
units lj                  # Use reduced LJ style units
atom_style atomic         # Uncharged point particles
atom_modify map hash      # Needed for indexing of clusters etc
                          # Used to be able to find where atoms are in relation to each other.

# Define a lattice with which to populate the simulation cell. With units
# set to 'lj' the second argument to the lattice command is the reduced
# density rho* and the spacings are multiples of that required to acheive
# that density. Also define a simulation cell called 'box' in lattice units
# and fill it with atoms. Here we're creating a box which is ten lattice
# constants in each direction.
lattice fcc 1.0 spacing 1 1 1                 # All equal sizes - gives the right reduced density.
Lattice spacing in x,y,z = 1.5874011 1.5874011 1.5874011

region box block 0 10 0 10 0 10 units lattice # Defines a region, "box", in lattice units
create_box 1 box                              # Creates a simulation box as specified above,
Created orthogonal box = (0.0000000 0.0000000 0.0000000) to (15.874011 15.874011 15.874011)
  2 by 4 by 4 MPI processor grid
                                              # with one type of atom
create_atoms 1 box                            # Creates particles on lattice points
Created 4000 atoms
  using lattice units in orthogonal box = (0.0000000 0.0000000 0.0000000) to (15.874011 15.874011 15.874011)
  create_atoms CPU = 0.002 seconds


# Set the mass of the first (and only) atom type.
mass 1 1.0

# Lennard-Jones interactions between particles, 3.5 sigma cut-off. Apply
# long range tail corrections to energy and pressure and set all coefficients
# to unity since we work in reduced units here. Note that this doesn't shift
# the potential such that it goes to zero at the cutoff. That would require
# pair_modify('shift', 'yes').
pair_style lj/cut  3.5      # non-GPU version
pair_modify tail  yes
pair_coeff 1  1  1.0  1.0   # Intearaction between 1 and 1 set with epsilon = 1 and sigma = 1

write_data data.*
System init for write_data ...
Neighbor list info ...
  update every 1 steps, delay 10 steps, check yes
  max neighbors/atom: 2000, page size: 100000
  master list distance cutoff = 3.8
  ghost atom cutoff = 3.8
  binsize = 1.9, bins = 9 9 9
  1 neighbor lists, perpetual/occasional/extra = 1 0 0
  (1) pair lj/cut, perpetual
      attributes: half, newton on
      pair build: half/bin/atomonly/newton
      stencil: half/bin/3d
      bin: standard

#############################
#   M E L T   S Y S T E M   #
#############################

velocity all create 2.4 2750902 mom yes dist gaussian # Assign velocities
                                                    # Temperature 2.4, random number seed, zero linear momentum
						                                                        # Gaussian distribution

timestep 0.002   # simulation timestep
thermo 100       # output thermodynamic data every 100 steps

# Define a fix  in this case with index 1 applied to all
# particles in the simulation. This fix is for simulations
# in the anisotropic NPT ensemble. Note that we use the MTK
# correction.
fix 1 all npt temp 2.4 2.4 0.1 iso 5.68 5.68 0.5 mtk yes tchain 5 pchain 5 # Use NPT ensemble
                                                                         # Set temperature and pressure and damping
                                                                         # Numbers of thermostats in chain and in barostat
run 1000         # run for 10000 steps
Per MPI rank memory allocation (min/avg/max) = 3.660 | 3.660 | 3.660 Mbytes
Step Temp E_pair E_mol TotEng Press Volume 
       0          2.4   -8.3859253            0   -4.7868253   -2.2405722         4000 
     100    1.2608475   -6.5235855            0   -4.6327871    5.4038563    4091.0951 
     200    1.4674745   -6.2960149            0   -4.0953535    6.0843453    4138.9956 
     300    1.5811347   -6.0195196            0   -3.6484105    5.8230308      4272.98 
     400    1.6903552   -5.7119813            0   -3.1770823    5.9377022    4398.4635 
     500    1.7989246   -5.4338299            0   -2.7361176    5.7946904    4546.9323 
     600    1.9022797   -5.1497661            0   -2.2970598    5.8333119    4691.4311 
     700    2.0414959   -4.9561197            0   -1.8946415    5.6184351    4842.6632 
     800    2.1308362   -4.7068196            0   -1.5113644    5.7371792    4975.4569 
     900    2.2803533   -4.5781415            0   -1.1584666    5.7093427    5072.7544 
    1000    2.3672823   -4.4702836            0  -0.92024792    5.6050301    5163.6463 
Loop time of 0.261504 on 32 procs for 1000 steps with 4000 atoms

Performance: 660792.112 tau/day, 3824.028 timesteps/s
99.3% CPU use with 32 MPI tasks x no OpenMP threads

MPI task timing breakdown:
Section |  min time  |  avg time  |  max time  |%varavg| %total
---------------------------------------------------------------
Pair    | 0.13235    | 0.13938    | 0.14795    |   1.0 | 53.30
Neigh   | 0.025937   | 0.027307   | 0.028424   |   0.4 | 10.44
Comm    | 0.065075   | 0.071632   | 0.078951   |   1.5 | 27.39
Output  | 0.00019879 | 0.00020223 | 0.00024577 |   0.0 |  0.08
Modify  | 0.017548   | 0.021117   | 0.024454   |   1.5 |  8.08
Other   |            | 0.001869   |            |       |  0.71

Nlocal:        125.000 ave         135 max         113 min
Histogram: 1 0 2 4 3 13 2 2 3 2
Nghost:        1662.72 ave        1680 max        1643 min
Histogram: 2 1 2 2 6 6 7 2 3 1
Neighs:        11066.0 ave       11928 max       10173 min
Histogram: 2 2 2 5 6 5 4 0 1 5

Total # of neighbors = 354112
Ave neighs/atom = 88.528000
Neighbor list builds = 89
Dangerous builds = 32

# Equilibrate just above the melting temperature to avoid step fn in T

fix 1 all npt temp 1.25 1.25 0.1 iso 5.68 5.68 0.5 mtk yes tchain 5 pchain 5
run 1000
Per MPI rank memory allocation (min/avg/max) = 3.661 | 3.661 | 3.661 Mbytes
Step Temp E_pair E_mol TotEng Press Volume 
    1000    2.3672823   -4.4702836            0  -0.92024792    5.6050301    5163.6463 
    1100    1.9569734    -4.706111            0   -1.7713848    5.4657034    5011.4174 
    1200    1.7262382   -4.9667701            0   -2.3780602    5.5966981    4817.3008 
    1300     1.587552    -5.220701            0   -2.8399684    5.6758355    4663.7229 
    1400    1.4738799   -5.4342144            0   -3.2239472    5.4755949    4569.2977 
    1500    1.3534378   -5.5295528            0   -3.4999037    5.6215529    4496.5144 
    1600    1.2908728   -5.6315259            0   -3.6957007    5.7257345     4433.469 
    1700    1.2788408   -5.7494795            0   -3.8316978    5.6735232     4386.563 
    1800     1.254965   -5.8228809            0   -3.9409041    5.4759615    4370.1173 
    1900     1.226926   -5.8280252            0   -3.9880963    5.6657418    4349.5824 
    2000    1.2829323   -5.8566878            0   -3.9327705    5.6371083    4341.9677 
Loop time of 0.250843 on 32 procs for 1000 steps with 4000 atoms

Performance: 688876.309 tau/day, 3986.553 timesteps/s
99.7% CPU use with 32 MPI tasks x no OpenMP threads

MPI task timing breakdown:
Section |  min time  |  avg time  |  max time  |%varavg| %total
---------------------------------------------------------------
Pair    | 0.13119    | 0.138      | 0.14389    |   0.7 | 55.01
Neigh   | 0.022306   | 0.023167   | 0.024032   |   0.3 |  9.24
Comm    | 0.059949   | 0.067363   | 0.075186   |   1.2 | 26.85
Output  | 0.00019622 | 0.00019956 | 0.00023909 |   0.0 |  0.08
Modify  | 0.017702   | 0.019861   | 0.022396   |   0.9 |  7.92
Other   |            | 0.002251   |            |       |  0.90

Nlocal:        125.000 ave         131 max         119 min
Histogram: 2 3 5 2 4 4 3 2 3 4
Nghost:        1848.94 ave        1863 max        1828 min
Histogram: 1 0 1 1 3 11 7 3 2 3
Neighs:        13168.5 ave       13949 max       12671 min
Histogram: 5 6 5 1 3 2 3 4 1 2

Total # of neighbors = 421393
Ave neighs/atom = 105.34825
Neighbor list builds = 75
Dangerous builds = 6


# Small amount of linear quench

fix 1 all npt temp 1.25 ${temp} 0.1 iso 5.68 5.68 0.5 mtk yes tchain 5 pchain 5
fix 1 all npt temp 1.25 2.39 0.1 iso 5.68 5.68 0.5 mtk yes tchain 5 pchain 5
run 2000
Per MPI rank memory allocation (min/avg/max) = 3.661 | 3.662 | 3.662 Mbytes
Step Temp E_pair E_mol TotEng Press Volume 
    2000    1.2829323   -5.8566878            0   -3.9327705    5.6371083    4341.9677 
    2100    1.2653646   -5.8366839            0   -3.9391115    5.7131482    4344.3084 
    2200    1.3144269   -5.8019624            0    -3.830815    5.5362142    4378.1917 
    2300    1.3749153   -5.7422365            0   -3.6803791    5.7434878    4389.2475 
    2400    1.3909417   -5.6478856            0   -3.5619947    5.6891679    4435.6043 
    2500    1.4715992   -5.5777711            0   -3.3709242     5.861301    4457.2286 
    2600    1.4857389   -5.4655429            0   -3.2374917    5.7596234    4521.5342 
    2700     1.547977   -5.3890313            0   -3.0676463    5.6246327    4572.2527 
    2800    1.6299402   -5.3338692            0   -2.8895702    5.5881988    4611.3632 
    2900    1.6830228   -5.2572695            0   -2.7333665    5.5574156    4657.2534 
    3000    1.7428142   -5.1748946            0   -2.5613268    5.6392829    4694.0553 
    3100    1.8084303   -5.0963632            0   -2.3843959    5.7032283    4737.5602 
    3200    1.8588524   -5.0111932            0   -2.2236116    5.6782084    4787.6607 
    3300    1.9201597   -4.9289904            0   -2.0494708     5.866294    4816.1745 
    3400    1.9875671   -4.8790044            0    -1.898399     5.522891     4890.249 
    3500     2.071451   -4.8257696            0   -1.7193698    5.4748271    4928.1714 
    3600    2.0943341   -4.7609158            0      -1.6202     5.323138    4995.4476 
    3700    2.1432981   -4.6390734            0     -1.42493    5.7426287    5017.0766 
    3800    2.2115522   -4.5654501            0   -1.2489512    5.7953852    5059.2849 
    3900    2.2939384   -4.5313791            0   -1.0913317     5.791479    5099.0091 
    4000    2.3140041   -4.4204855            0  -0.95034712    5.7738337    5167.7494 
Loop time of 0.497868 on 32 procs for 2000 steps with 4000 atoms

Performance: 694159.748 tau/day, 4017.128 timesteps/s
99.7% CPU use with 32 MPI tasks x no OpenMP threads

MPI task timing breakdown:
Section |  min time  |  avg time  |  max time  |%varavg| %total
---------------------------------------------------------------
Pair    | 0.25881    | 0.26876    | 0.27731    |   0.8 | 53.98
Neigh   | 0.046571   | 0.047762   | 0.048818   |   0.3 |  9.59
Comm    | 0.12961    | 0.13657    | 0.15037    |   1.4 | 27.43
Output  | 0.00040361 | 0.0004096  | 0.00048937 |   0.0 |  0.08
Modify  | 0.03645    | 0.040062   | 0.042979   |   1.0 |  8.05
Other   |            | 0.004297   |            |       |  0.86

Nlocal:        125.000 ave         134 max         117 min
Histogram: 4 3 2 2 7 5 2 3 2 2
Nghost:        1656.16 ave        1670 max        1638 min
Histogram: 1 0 1 4 5 7 8 1 3 2
Neighs:        11044.5 ave       11920 max        9890 min
Histogram: 1 3 2 2 6 1 4 6 4 3

Total # of neighbors = 353423
Ave neighs/atom = 88.355750
Neighbor list builds = 158
Dangerous builds = 13

#############################
# F R E E Z E  S Y S T E M  #
#############################

# Define solid atoms. This closely follows ten Wolde  Ruiz-Montero and Frenkel  Faraday Discuss  1996  104  93-110
# Compute components of the per-atom q6 vector
compute q6 all orientorder/atom degrees 1 6 components 6 nnn NULL cutoff 1.3 # compute the Q6 parameter.
                                                                             # Use all neighbours within 1.3 unit cell.

# get number of connections
compute coord_number all coord/atom orientorder q6 0.5

# An atom is solid if it has 8 or more connections (of a possible 14)
variable is_solid atom c_coord_number>=8
group solid dynamic all var is_solid    # Must be dynamic to update
dynamic group solid defined

# do clustering
compute cluster solid cluster/atom 1.3 # Create a cluster where all atoms within are solid and max 1.3 units from another member

# define chunks one chunk per cluster
compute clus_chunks solid chunk/atom c_cluster nchunk every compress yes  # Says which atoms are in which chunk

# count the size of each chunk
compute size_chunks solid property/chunk clus_chunks count


# Find the maximum entry in the vector of chunk sizes
variable max_n equal max(c_size_chunks)


# Thermo style which includes this variable
thermo_style custom step temp pe vol v_max_n

thermo ${N}  # Print the thermo information every 100 steps
thermo 100  

# Reset the npt fix at a lower temperature (below freezing)
fix 1  all npt temp  ${temp} ${temp}  0.1  iso  5.68  5.68  0.5  mtk yes tchain  5  pchain  5
fix 1  all npt temp  2.39 ${temp}  0.1  iso  5.68  5.68  0.5  mtk yes tchain  5  pchain  5
fix 1  all npt temp  2.39 2.39  0.1  iso  5.68  5.68  0.5  mtk yes tchain  5  pchain  5

dump dmp2 all dcd ${N} traj_${rand}.dcd
dump dmp2 all dcd 100 traj_${rand}.dcd
dump dmp2 all dcd 100 traj_462431.dcd


# fix rnuntil all halt ${N} v_max_n >= 3980 error soft message no   # Stop when solidified


run 100000 # 5000000  # Run for this many steps
Neighbor list info ...
  update every 1 steps, delay 10 steps, check yes
  max neighbors/atom: 2000, page size: 100000
  master list distance cutoff = 3.8
  ghost atom cutoff = 3.8
  binsize = 1.9, bins = 10 10 10
  4 neighbor lists, perpetual/occasional/extra = 1 3 0
  (1) pair lj/cut, perpetual
      attributes: half, newton on
      pair build: half/bin/atomonly/newton
      stencil: half/bin/3d
      bin: standard
  (2) compute orientorder/atom, occasional
      attributes: full, newton on
      pair build: full/bin/atomonly
      stencil: full/bin/3d
      bin: standard
  (3) compute coord/atom, occasional
      attributes: full, newton on
      pair build: full/bin/atomonly
      stencil: full/bin/3d
      bin: standard
  (4) compute cluster/atom, occasional
      attributes: full, newton on
      pair build: full/bin/atomonly
      stencil: full/bin/3d
      bin: standard
Per MPI rank memory allocation (min/avg/max) = 9.378 | 9.382 | 9.385 Mbytes
Step Temp PotEng Volume v_max_n 
    4000    2.3140041   -4.4204855    5167.7494            1 
    4100    2.3917478   -4.4175352     5170.604       -1e+20 
    4200     2.351616   -4.3343244    5232.5891       -1e+20 
    4300    2.3819402   -4.3091534     5246.993            1 
    4400    2.3722069   -4.3239754    5243.8154            1 
    4500    2.3691366   -4.3862358    5233.9218       -1e+20 
    4600    2.4239235   -4.3756862    5192.8392            1 
    4700    2.3836669   -4.3693885     5238.578            1 
    4800    2.4136548   -4.3531184    5268.7144            1 
    4900    2.3938464   -4.3928796    5198.4264            1 
    5000    2.3668325     -4.43831    5215.3657            1 
    5100    2.4142111   -4.3683569    5206.9193       -1e+20 
    5200    2.3774374   -4.3873663    5221.2791       -1e+20 
    5300    2.4338503   -4.3602284    5221.8185       -1e+20 
    5400    2.4008393   -4.3958732    5221.0188       -1e+20 
    5500    2.3667413   -4.3974691    5220.0467       -1e+20 
    5600    2.4230523   -4.3682425    5212.6713            1 
    5700    2.3618999    -4.370562    5260.1884       -1e+20 
    5800     2.441212   -4.3603615    5215.3433            1 
    5900    2.3892769   -4.4122229    5219.2127            2 
    6000    2.4146237   -4.4489254     5206.898       -1e+20 
    6100    2.3815975   -4.4200255    5164.2937            1 
    6200    2.4148183   -4.4036845    5230.0546       -1e+20 
    6300    2.3921686   -4.3046907     5241.985            1 
    6400     2.450413   -4.3390284    5275.5164            1 
    6500    2.4122628   -4.3418958    5216.9876       -1e+20 
    6600    2.3669211   -4.4027204    5216.8492            1 
    6700    2.3828806   -4.3571253    5218.5301            1 
    6800    2.4108775   -4.3620333    5228.0187            1 
    6900    2.3113152   -4.2845874    5245.5876            1 
    7000    2.4574637   -4.3765234    5195.5019            1 
    7100    2.3108911   -4.3839357    5242.4644       -1e+20 
    7200    2.3998681    -4.370219    5188.5451            1 
    7300    2.4157989   -4.3362074    5223.0752            1 
    7400    2.3285828    -4.306957    5274.0005            2 
    7500    2.4500756   -4.2937263    5215.6017            1 
    7600      2.34324   -4.3414956    5250.2293       -1e+20 
    7700    2.3739084   -4.3284977      5216.84            1 
    7800    2.3457034   -4.3538749    5195.8834       -1e+20 
    7900    2.3700028   -4.3633771    5262.6378            1 
    8000    2.4370213   -4.3438085    5231.7932            2 
    8100    2.3437052   -4.3312369    5209.0871       -1e+20 
    8200    2.3832811   -4.3402622    5272.1509       -1e+20 
    8300    2.4362887   -4.3552174    5234.5525            1 
    8400    2.4098747   -4.4076923     5217.574            1 
    8500    2.3818157   -4.4420056     5204.586            1 
    8600    2.4066475   -4.4534776    5161.0402       -1e+20 
    8700    2.3457588   -4.3733835    5227.6711            1 
    8800    2.4078969   -4.3452365    5232.0988       -1e+20 
    8900    2.3844918   -4.3994375    5219.7962       -1e+20 
    9000    2.3707041   -4.4275744    5146.1802       -1e+20 
    9100    2.3878957   -4.4178612     5208.838            1 
    9200    2.4125675   -4.3848391    5228.7613       -1e+20 
    9300    2.4036167   -4.3571357    5238.4871            1 
    9400    2.4073543   -4.3977188    5236.7917       -1e+20 
    9500    2.3627716   -4.3894297    5204.4057            1 
    9600    2.4388032   -4.4081987    5214.9293            1 
    9700    2.3467241   -4.3470258    5214.3493            1 
    9800     2.363749   -4.4235253    5177.2931            1 
    9900    2.3729077   -4.4148472     5180.759       -1e+20 
   10000    2.3895925   -4.3601282    5245.2601            1 
   10100    2.4153593   -4.3778546    5233.9842            1 
   10200    2.3716878   -4.3690631    5214.5067            1 
   10300    2.3954249   -4.3390241    5234.0688       -1e+20 
   10400     2.377979   -4.3938799    5243.8123            1 
   10500    2.3831593   -4.3805783    5180.1277       -1e+20 
   10600    2.3656592   -4.2963699    5267.2217       -1e+20 
   10700    2.4506126   -4.3900019     5238.094       -1e+20 
   10800    2.3595884   -4.3357283    5227.2193            1 
   10900    2.4100782   -4.3143975     5244.003            1 
   11000    2.3699548   -4.3883952    5226.4278            2 
   11100    2.3892285   -4.4143349    5197.2551       -1e+20 
   11200    2.4482346   -4.4210957     5208.501       -1e+20 
   11300    2.3779472   -4.3851343    5222.8724       -1e+20 
   11400    2.3777275   -4.3336453     5209.758            1 
   11500    2.3879481   -4.3658353    5241.5705       -1e+20 
   11600    2.4349475   -4.3605735    5245.6805            1 
   11700    2.3633333   -4.3333438    5232.3272            1 
   11800    2.3239063   -4.3530278     5195.565            1 
   11900    2.3838263   -4.3670313    5215.0642            1 
   12000    2.3910828   -4.3600873    5233.7895       -1e+20 
   12100    2.4220775    -4.364146    5219.7658       -1e+20 
   12200    2.3678092   -4.3841104    5184.2189            1 
   12300    2.3523568   -4.3685964    5232.7782            1 
   12400    2.3992042    -4.315246    5225.1833       -1e+20 
   12500    2.3907767   -4.3623313    5241.3779       -1e+20 
   12600    2.3492075   -4.3797412    5211.6833       -1e+20 
   12700    2.3921436   -4.3036471    5222.3645       -1e+20 
   12800    2.3697236   -4.3122407    5253.6365            1 
   12900    2.3550445   -4.3271468    5226.8794            1 
   13000    2.4183784   -4.3645707    5217.0413       -1e+20 
   13100    2.3607077   -4.4096522    5233.0543       -1e+20 
   13200    2.3838491   -4.3339721    5206.4649            1 
   13300    2.4051408   -4.3627502    5280.8077            1 
   13400    2.4172819   -4.3813424    5220.9573            1 
   13500    2.3829455   -4.3336158    5233.4846            1 
   13600    2.3907684   -4.3835493    5257.6639            1 
   13700    2.3672684   -4.3694945    5162.5748       -1e+20 
   13800    2.3705457    -4.433194    5212.5851            1 
   13900    2.4011861   -4.3803421    5243.0696       -1e+20 
   14000    2.4417464    -4.342267    5215.6267            1 
   14100    2.3483983   -4.3782848    5249.7313            1 
   14200    2.4240163   -4.3707189     5223.418            1 
   14300    2.3731076   -4.3204427    5235.6071       -1e+20 
   14400    2.3704647   -4.3644915    5210.5864       -1e+20 
   14500    2.3926941   -4.3950249    5207.4778       -1e+20 
   14600    2.3891386   -4.4021403    5200.7221            1 
   14700    2.3988831   -4.3834889    5204.2598            2 
   14800    2.3811088   -4.3763075    5243.3637       -1e+20 
   14900    2.4217213   -4.4186309    5188.3942            1 
   15000    2.3331657   -4.3898923    5222.7145       -1e+20 
   15100     2.410807   -4.3695319    5194.8924            1 
   15200    2.3568871   -4.3572041    5230.1211       -1e+20 
   15300    2.3863335   -4.3454664    5245.6779            1 
   15400     2.417587   -4.3019261    5240.5378            1 
   15500    2.3758819   -4.3404891    5268.3864       -1e+20 
   15600    2.4190498   -4.3506638    5236.0586            1 
   15700    2.3393439   -4.3771819    5226.3378            1 
   15800    2.3574652   -4.3544303    5210.7206       -1e+20 
   15900    2.4132604   -4.2994752    5229.6375            1 
   16000    2.3424049   -4.3364347    5279.9013       -1e+20 
   16100    2.5115762    -4.331066    5225.1285            1 
   16200    2.3748802   -4.3318504     5264.398       -1e+20 
   16300    2.4134753   -4.3429001    5247.7716            1 
   16400    2.3534966    -4.359374    5214.5945            1 
   16500    2.4155338   -4.3801152    5216.1435            1 
   16600    2.4150847   -4.3553648    5239.2188            1 
   16700    2.3712888   -4.3843263    5209.4047            1 
   16800    2.3660052   -4.4201048    5224.5414       -1e+20 
   16900     2.426188   -4.3945357    5217.1179            1 
   17000    2.3752141   -4.3948765    5200.9936            1 
   17100    2.3908089   -4.3959361    5214.3623       -1e+20 
   17200    2.3711749   -4.3467153    5226.7411       -1e+20 
   17300    2.4152721   -4.3054962    5248.6308            1 
   17400    2.3907055   -4.3657365    5226.3096            1 
   17500    2.3851822   -4.3432305    5220.8178       -1e+20 
   17600    2.4388108   -4.3522584    5248.7743       -1e+20 
   17700    2.3650337   -4.3460023    5198.7607            2 
   17800    2.3777416   -4.3438111    5255.2559       -1e+20 
   17900    2.4035412   -4.3302883    5230.8089       -1e+20 
   18000    2.3639244   -4.2991195    5234.5046            1 
   18100     2.361106   -4.3774801    5233.1373            1 
   18200     2.385674   -4.3510296    5198.1215       -1e+20 
   18300    2.3655652    -4.341231    5246.3635       -1e+20 
   18400    2.3813584    -4.297332     5256.752            1 
   18500     2.485404   -4.3656203     5266.405            1 
   18600    2.3702682   -4.3237344     5255.164       -1e+20 
   18700    2.3904051   -4.3292997    5210.4916       -1e+20 
   18800    2.3814882   -4.3994634    5231.5214       -1e+20 
   18900    2.3386376   -4.3653932    5222.2553       -1e+20 
   19000    2.3806425   -4.3288252    5195.1365            2 
   19100    2.3607477   -4.3806755    5253.4857            1 
   19200    2.4505733   -4.3492624    5234.9651       -1e+20 
   19300    2.3756918   -4.3591481     5220.112       -1e+20 
   19400    2.4015862   -4.3421004    5231.4714            1 
   19500    2.3505809   -4.3965085    5223.5163       -1e+20 
   19600    2.3800168   -4.3301093    5201.0621            1 
   19700     2.372893   -4.3743273    5204.0973       -1e+20 
   19800    2.4164015   -4.3891346    5249.3483       -1e+20 
   19900    2.4169085   -4.3401826     5228.791            1 
   20000    2.3737706    -4.378631    5204.7127            1 
   20100    2.4252717   -4.3744354    5253.2678       -1e+20 
   20200    2.4213535   -4.3351673     5236.847       -1e+20 
   20300    2.3468482   -4.3260732    5241.9307            1 
   20400    2.4890937   -4.3694067    5236.4032       -1e+20 
   20500    2.3818139   -4.3495039    5248.4047       -1e+20 
   20600    2.3505774   -4.3126497     5218.533       -1e+20 
   20700    2.3750212   -4.4013651    5190.6572       -1e+20 
   20800    2.3871127   -4.3981659    5225.0187       -1e+20 
   20900    2.3966725   -4.3208796    5245.8886       -1e+20 
   21000    2.4201732   -4.3727936    5228.4689       -1e+20 
   21100    2.3803239   -4.3771679    5251.2265            2 
   21200     2.378654   -4.3516582    5214.2005       -1e+20 
   21300    2.3993426   -4.3866827    5197.4193            1 
   21400    2.3264671   -4.3663376    5223.8619       -1e+20 
   21500    2.3920264   -4.3223092    5192.2948            1 
   21600      2.36028   -4.3861113    5228.8606            1 
   21700    2.4335766   -4.3538857    5223.4464       -1e+20 
   21800    2.4044982   -4.3162533    5270.4882       -1e+20 
   21900    2.3964397   -4.3746238    5216.3601       -1e+20 
   22000     2.370317   -4.3309925    5227.7878       -1e+20 
   22100    2.3783916   -4.3114813    5237.6309       -1e+20 
   22200    2.3823497   -4.3516932     5239.797            1 
   22300    2.4066845   -4.2824632    5252.2624            1 
   22400    2.3698117   -4.2970441    5264.5268            3 
   22500    2.4214808   -4.3871469    5235.0765       -1e+20 
   22600    2.3934712    -4.376576    5235.0441       -1e+20 
   22700    2.3612223   -4.3947985    5210.7099       -1e+20 
   22800    2.3941032   -4.3909728    5180.0025       -1e+20 
   22900    2.3781502   -4.3862056    5253.0445            1 
   23000    2.4420382   -4.3499691    5236.2483       -1e+20 
   23100    2.4067559    -4.408763    5238.2993       -1e+20 
   23200    2.3629318   -4.4502626    5208.9655       -1e+20 
   23300    2.3980124   -4.4087565    5171.7632            1 
   23400    2.3834477   -4.3782597    5233.5143       -1e+20 
   23500    2.4120826   -4.3361872    5250.8316            1 
   23600    2.3900503   -4.3314988    5248.1677       -1e+20 
   23700    2.3987936   -4.4460128    5206.4986            1 
   23800    2.3857899   -4.4186609     5166.237            2 
   23900    2.3679375   -4.3516145    5217.0605       -1e+20 
   24000    2.4107304   -4.3827582    5231.8348            1 
   24100    2.3649986   -4.4412566    5229.2982            1 
   24200     2.380104   -4.3616672    5197.0914       -1e+20 
   24300    2.3652992   -4.3272816    5208.6823            1 
   24400    2.4499772   -4.3706304    5264.9907       -1e+20 
   24500    2.4073475     -4.37052    5229.5938            1 
   24600    2.3552095   -4.4181677    5204.7046            1 
   24700    2.3875552   -4.3816522    5193.5031       -1e+20 
   24800    2.4190153   -4.4323284    5195.3105       -1e+20 
   24900     2.376501   -4.4240838    5210.7203            1 
   25000      2.39706   -4.3658888    5238.4987            1 
   25100    2.3949187   -4.3949581    5211.3518            1 
   25200    2.3991021   -4.3747991     5211.732       -1e+20 
   25300    2.3964866   -4.3740841    5274.9339            1 
   25400    2.3775251   -4.3823043    5186.4255       -1e+20 
   25500    2.3976564   -4.4087859    5209.5634            1 
   25600    2.3893474   -4.4411264    5217.4269            1 
   25700    2.3811271   -4.3932715    5154.4316            1 
   25800    2.3680381    -4.412747    5243.5795       -1e+20 
   25900    2.3933613   -4.3449968    5216.8979       -1e+20 
   26000    2.3322531   -4.3520688    5208.3382            1 
   26100    2.3981668   -4.3450979    5249.5536            1 
   26200    2.4671089   -4.3776977    5246.6155       -1e+20 
   26300    2.4002163   -4.4304287    5242.2455            1 
   26400    2.3979767   -4.3724027    5164.4372       -1e+20 
   26500     2.357229   -4.4200855    5233.8969       -1e+20 
   26600    2.4238403   -4.4127567    5235.8296            1 
   26700    2.4087701   -4.3540965    5209.5994            1 
   26800    2.3282873   -4.3341147    5243.8198            1 
   26900    2.4531256   -4.3708419    5234.6388            1 
   27000    2.3772806   -4.3674414    5262.8716            1 
   27100     2.401839   -4.3958549    5221.2697            1 
   27200    2.4157754   -4.3873916    5178.5199       -1e+20 
   27300     2.363528   -4.4040619    5244.8743       -1e+20 
   27400    2.4203452    -4.354834     5205.977            1 
   27500    2.3542357   -4.3786048    5244.2433            1 
   27600    2.4025619   -4.3755871    5192.1741            1 
   27700    2.3968876   -4.3914846    5250.8027            1 
   27800    2.4118328   -4.3136394    5226.4816            1 
   27900    2.3616738   -4.3486242    5190.7606            1 
   28000    2.3553846   -4.4056116    5225.7974            1 
   28100    2.4174849   -4.3345027    5219.1363            1 
   28200    2.3758974   -4.3754373    5240.3957       -1e+20 
   28300    2.3585324    -4.407791    5200.6193            1 
   28400    2.3744542   -4.3791019    5226.5156       -1e+20 
   28500    2.3848658   -4.3147932    5253.1803            1 
   28600     2.428663   -4.3706413    5259.7045       -1e+20 
   28700    2.3643817   -4.3664154    5225.1618            1 
   28800    2.4317849   -4.4204253    5208.0983       -1e+20 
   28900    2.3469898   -4.3997031    5233.3258            1 
   29000    2.3985946   -4.3493953     5259.277       -1e+20 
   29100    2.4182754   -4.2884851    5251.2721            1 
   29200    2.3602982   -4.3548829    5240.6714       -1e+20 
   29300     2.400785   -4.4006079    5201.8326       -1e+20 
   29400    2.3781128   -4.3940107    5182.2293       -1e+20 
   29500    2.3917196    -4.426329    5241.3723            1 
   29600    2.4274868   -4.3636101    5233.4595            1 
   29700     2.314498   -4.3460453    5230.0849            1 
   29800    2.3830978   -4.4179894    5167.1478            1 
   29900    2.3791456   -4.4195859    5201.7377            1 
   30000    2.3795861   -4.3733044    5222.3462            1 
   30100    2.4424471   -4.3244049    5240.9461       -1e+20 
   30200     2.369271   -4.2922729     5269.477       -1e+20 
   30300     2.400951   -4.3585028    5228.3613            1 
   30400    2.3866557   -4.4091369     5217.348            1 
   30500    2.4487379   -4.4048522    5215.2198       -1e+20 
   30600      2.34403   -4.3826146     5211.157            1 
   30700    2.4447161   -4.4392275    5213.0735       -1e+20 
   30800    2.4627543   -4.3755723    5267.4689            1 
   30900    2.3848709   -4.3384994     5256.189            1 
   31000    2.3959621   -4.3710691    5212.2518            1 
   31100    2.4379869   -4.4497882    5217.7669            1 
   31200    2.3413136   -4.4006066    5208.3574            2 
   31300    2.4047123    -4.369608    5214.5318            1 
   31400    2.3853195   -4.3714547     5234.215            1 
   31500    2.4466468   -4.3691673    5249.9083            1 
   31600    2.3541515    -4.304072    5242.7033       -1e+20 
   31700    2.3980455   -4.3778988    5213.2521            1 
   31800    2.3595416   -4.3719706    5221.6515            1 
   31900    2.4288636   -4.3788536    5224.7758       -1e+20 
   32000    2.3627955    -4.380282    5205.5616            1 
   32100    2.4254416   -4.4221624    5209.6847       -1e+20 
   32200    2.3608191   -4.4136831    5193.0558       -1e+20 
   32300    2.3881141    -4.424188    5184.4958       -1e+20 
   32400    2.4287402   -4.4353195    5187.4645            1 
   32500    2.3513485   -4.3867906    5232.6098            1 
   32600    2.4433715   -4.3486565    5187.5886       -1e+20 
   32700    2.3545417   -4.3839033    5246.8967            1 
   32800    2.4021869   -4.3882428    5200.0616            1 
   32900      2.38363   -4.3080986    5228.8219            1 
   33000    2.4028489   -4.3789863    5244.6919       -1e+20 
   33100    2.3970898   -4.3857843    5220.8237            1 
   33200    2.3656578   -4.3550441    5222.5978            1 
   33300    2.4353695   -4.3621398    5244.7016       -1e+20 
   33400    2.3943778   -4.3960849    5230.5362            1 
   33500    2.3930896   -4.3356719    5234.9718            1 
   33600    2.4095168   -4.3844031    5260.0545       -1e+20 
   33700    2.3966604   -4.3878773    5161.9549            1 
   33800    2.3854878   -4.3705549    5226.3997            1 
   33900    2.3873887   -4.3522479     5253.496       -1e+20 
   34000    2.4160739   -4.2893158    5231.6137            1 
   34100    2.3727127   -4.3275024    5277.5309            1 
   34200    2.3581821   -4.3149794    5214.9794            1 
   34300    2.4179928   -4.3540341    5230.8599       -1e+20 
   34400    2.4053772    -4.355454    5283.6418       -1e+20 
   34500    2.4052511   -4.3372622    5206.1191       -1e+20 
   34600     2.358188   -4.4283555    5233.9075            1 
   34700     2.430398    -4.381692    5197.1187       -1e+20 
   34800    2.3594106   -4.3744816    5220.0466       -1e+20 
   34900    2.3927761   -4.3893364    5224.3955       -1e+20 
   35000    2.4539005   -4.3365028    5212.7262       -1e+20 
   35100    2.3577776   -4.3900624    5263.0246       -1e+20 
   35200    2.4308663   -4.4082485     5178.702            1 
   35300    2.3760026   -4.4118028    5220.7426            1 
   35400    2.3961786   -4.3626387    5244.4737            1 
   35500     2.395342   -4.3310132    5210.5915            2 
   35600    2.3723803   -4.3803391    5227.7843       -1e+20 
   35700    2.4220207   -4.3688338    5229.8928            4 
   35800    2.3838493    -4.370153    5228.8576            1 
   35900    2.4015246   -4.3713531    5223.1423       -1e+20 
   36000    2.3588391    -4.400414    5184.7179            1 
   36100    2.3710324   -4.3916322    5191.8334            1 
   36200     2.389304   -4.3549349    5240.8898       -1e+20 
   36300    2.3785789   -4.3402842    5241.3778       -1e+20 
   36400    2.4091674   -4.2978457    5262.1364            1 
   36500    2.3628291    -4.355705    5257.0275            2 
   36600    2.3926131   -4.3309502    5214.5379            1 
   36700    2.3915102   -4.3868705    5225.4534       -1e+20 
   36800    2.3898026   -4.3352889    5233.0103       -1e+20 
   36900    2.4293166    -4.334043     5244.295            1 
   37000    2.3832622   -4.3800899    5232.5538            1 
   37100    2.4251747   -4.3506371    5208.3353            1 
   37200    2.3668786   -4.3422088    5271.7024            1 
   37300    2.4070593   -4.3702702    5216.9424            1 
   37400    2.3631517   -4.3564114    5209.1125       -1e+20 
   37500    2.3860505   -4.3455686    5236.8197            1 
   37600    2.4341941   -4.3726578     5231.143            2 
   37700    2.3323707   -4.3618338    5234.0067       -1e+20 
   37800    2.4225738   -4.3409057    5211.1879       -1e+20 
   37900    2.4032359    -4.326609    5244.8327       -1e+20 
   38000    2.3725706    -4.395002    5215.5601       -1e+20 
   38100    2.4154585   -4.3968847    5200.4327            1 
   38200    2.3841849   -4.3179979    5261.7123       -1e+20 
   38300    2.4208144   -4.3395655    5261.1451            1 
   38400    2.3233679   -4.2854806      5215.78            1 
   38500    2.3459491   -4.3548176    5184.5511            1 
   38600    2.3824656   -4.3730493    5203.9391       -1e+20 
   38700    2.4028434   -4.3830726    5236.1642       -1e+20 
   38800    2.4096943   -4.3257345    5276.4387       -1e+20 
   38900    2.4022703   -4.3764989     5208.722       -1e+20 
   39000     2.373579   -4.3887379    5223.4253       -1e+20 
   39100    2.4198613   -4.3316626    5216.8642       -1e+20 
   39200    2.3877555   -4.3615829    5277.7364       -1e+20 
   39300    2.3320506   -4.3193762    5208.7212       -1e+20 
   39400    2.4410438   -4.4043919    5268.3691            1 
   39500    2.3838068   -4.3706222    5222.1947            1 
   39600     2.382816   -4.3735943    5209.4219       -1e+20 
   39700    2.3805676   -4.2982284    5257.5271            1 
   39800    2.4095208   -4.3341648    5256.1303       -1e+20 
   39900     2.399571   -4.3668824    5209.9011       -1e+20 
   40000    2.3353019   -4.4151129    5199.7653            1 
   40100    2.3740063   -4.3655753    5187.6688       -1e+20 
   40200    2.3522231   -4.3173112    5300.8154            1 
   40300    2.4216288   -4.3553125    5208.4732       -1e+20 
   40400    2.4054875   -4.3712412    5241.2954            1 
   40500    2.3416851   -4.3600617    5247.4561            2 
   40600    2.4278081   -4.3391157    5200.5548       -1e+20 
   40700    2.3584935    -4.327665    5270.1726            1 
   40800    2.4496432   -4.3094029    5243.5242       -1e+20 
   40900    2.3719697   -4.3274806    5233.0169            1 
   41000    2.4257142   -4.3930928    5250.5965            1 
   41100    2.3737985   -4.3976678    5184.6161       -1e+20 
   41200    2.4009105   -4.4112599    5203.2819            2 
   41300    2.3797356    -4.348218     5248.038       -1e+20 
   41400    2.3983798   -4.3820978    5218.6674            2 
   41500    2.3623029   -4.4022227    5196.4861       -1e+20 
   41600    2.4117607   -4.4136398    5214.2001       -1e+20 
   41700    2.4253012   -4.3416812    5249.0946            2 
   41800    2.3952625   -4.4165811     5245.619       -1e+20 
   41900    2.3810958    -4.362123    5203.3229            1 
   42000    2.3921787   -4.3262952    5259.2375       -1e+20 
   42100    2.3838394   -4.3351624     5211.542            1 
   42200    2.3907274   -4.3994644    5206.6542       -1e+20 
   42300    2.3664952   -4.3275164    5235.2193       -1e+20 
   42400    2.4119243    -4.304995    5247.8297            1 
   42500    2.3522704   -4.3535295    5225.8265       -1e+20 
   42600    2.3757754   -4.3874974    5215.9302            1 
   42700    2.4381326   -4.3237028    5202.8653            1 
   42800      2.33201   -4.3509341    5244.7553            1 
   42900    2.4042034   -4.3838198    5199.4686            1 
   43000    2.4039203   -4.3744612    5213.9597            1 
   43100    2.3545387     -4.35183    5257.8374            1 
   43200    2.4651898   -4.3411953    5189.4618            1 
   43300    2.3165228   -4.3425813    5277.5013       -1e+20 
   43400    2.4136712   -4.3148706    5211.2914       -1e+20 
   43500    2.3792117   -4.3860774    5258.5146       -1e+20 
   43600    2.4178262   -4.3878278    5211.2842            1 
   43700    2.3690644   -4.3768388     5200.157            1 
   43800    2.4285509   -4.3599243    5237.6406            1 
   43900    2.3794482   -4.3427163    5249.3763       -1e+20 
   44000    2.4241714   -4.3447065    5251.8366            1 
   44100    2.3928764    -4.336691    5238.6711            1 
   44200    2.3904154   -4.3804585    5206.3733            1 
   44300    2.3643955   -4.4316282    5199.1388       -1e+20 
   44400    2.3803051    -4.386263    5198.0238            1 
   44500    2.3937792   -4.3402787    5252.6127       -1e+20 
   44600     2.393686   -4.4137878     5240.122       -1e+20 
   44700    2.3854515   -4.3095539    5225.6877            1 
   44800    2.3957288   -4.3669048    5274.8112            1 
   44900    2.3746724   -4.3355752    5220.4195       -1e+20 
   45000    2.3936204   -4.3556441    5221.1241       -1e+20 
   45100    2.3950808   -4.3610237    5258.8137       -1e+20 
   45200    2.3936338   -4.4009948    5214.2622       -1e+20 
   45300    2.3656355   -4.3471205    5202.2217            1 
   45400    2.4084068   -4.3896653    5252.7644            1 
   45500    2.3971551   -4.3615681     5236.591            1 
   45600    2.4067798    -4.361533    5199.8512            1 
   45700    2.3180603   -4.3928772    5241.5683            1 
   45800    2.4210488   -4.3672298    5213.5237       -1e+20 
   45900     2.367561   -4.3496485    5234.4135       -1e+20 
   46000    2.4274155   -4.3736419     5228.666       -1e+20 
   46100     2.386374   -4.3591159     5213.886       -1e+20 
   46200    2.4132108   -4.3740255    5258.8724       -1e+20 
   46300    2.3736609   -4.3416126    5212.8617            1 
   46400    2.3961491   -4.3966818    5253.3871            1 
   46500    2.4318878   -4.3362287    5234.8386            1 
   46600    2.3663398   -4.3469437    5230.5575       -1e+20 
   46700    2.3304006   -4.3469993    5195.3019            1 
   46800    2.3821447   -4.3243742    5183.5499            1 
   46900    2.3611909   -4.3480505    5238.9751            1 
   47000     2.380431   -4.3847015    5193.5845       -1e+20 
   47100    2.3558423   -4.3539178    5217.9751            1 
   47200    2.3679866    -4.318895    5242.8479       -1e+20 
   47300    2.3701326    -4.365159    5214.8996       -1e+20 
   47400    2.3851033   -4.3698221    5178.4984       -1e+20 
   47500    2.3377052   -4.4134771    5228.2323       -1e+20 
   47600    2.4063945   -4.3371283    5234.3088            2 
   47700    2.3555461   -4.2908154    5232.8932            1 
   47800    2.3656723    -4.403489     5198.626       -1e+20 
   47900    2.3939543   -4.4221043    5188.5693            1 
   48000    2.3988043   -4.3671042    5249.4069       -1e+20 
   48100    2.4231959   -4.3613093    5225.8751            1 
   48200    2.3923086   -4.4090239    5222.5244            1 
   48300    2.4270463   -4.3532916    5216.0884            1 
   48400    2.3676484   -4.3480775    5267.3998            1 
   48500    2.4516632     -4.39841    5183.4823            1 
   48600     2.334684    -4.395818    5220.9398       -1e+20 
   48700     2.396897   -4.3518585     5221.375       -1e+20 
   48800    2.3914621   -4.3864966    5222.1749       -1e+20 
   48900    2.3953636   -4.4437966    5185.0375       -1e+20 
   49000    2.4409435   -4.4198497    5218.0597       -1e+20 
   49100    2.4079545   -4.3477393    5259.0393            1 
   49200    2.3846373   -4.3808859    5229.8669       -1e+20 
   49300    2.3931546   -4.3428491    5208.8781            1 
   49400    2.3697652   -4.3838657    5262.6589            1 
   49500    2.4101106   -4.3818432    5183.7085       -1e+20 
   49600    2.3394843   -4.3536268    5241.5701       -1e+20 
   49700     2.390224   -4.3791341    5209.2678            2 
   49800    2.4071951   -4.3985891    5204.6618            1 
   49900    2.3658925   -4.3638349    5265.0757            1 
   50000     2.395866   -4.3060985    5222.9575            1 
   50100    2.3815281   -4.3635207    5225.8955       -1e+20 
   50200    2.4042851   -4.3324968    5237.8038            1 
   50300    2.4064353   -4.3156749    5297.1341       -1e+20 
   50400    2.4111637   -4.3621703    5204.4675       -1e+20 
   50500    2.3596001   -4.3875661    5217.6989       -1e+20 
   50600    2.4071313     -4.36289    5254.7941       -1e+20 
   50700    2.3890878    -4.302049    5248.8838            1 
   50800    2.3876688   -4.3935165    5225.1267            1 
   50900    2.3961746   -4.4078462    5221.4267            1 
   51000    2.4043657   -4.3334458    5219.7094       -1e+20 
   51100     2.372707   -4.2984472    5250.8595       -1e+20 
   51200    2.3846847   -4.3686356    5217.7739       -1e+20 
   51300    2.4210196   -4.3766486    5227.7745       -1e+20 
   51400    2.3623782   -4.3788488    5229.7083            1 
   51500    2.4182834   -4.3824944    5194.7306       -1e+20 
   51600    2.3632071   -4.3157446    5289.7986            1 
   51700     2.420671   -4.3114469    5224.7192            1 
   51800    2.4108061   -4.3959558    5208.7843            1 
   51900    2.3480076    -4.435495    5214.0355            1 
   52000    2.4320537   -4.3921947    5171.9391       -1e+20 
   52100    2.3709756   -4.3447142    5264.4494       -1e+20 
   52200    2.3895953   -4.3367145    5225.1656       -1e+20 
   52300    2.3700219   -4.3393332    5218.3201            1 
   52400    2.4072206   -4.3318382     5264.005            1 
   52500    2.3736322   -4.3449559    5256.1621       -1e+20 
   52600    2.4016698   -4.3507335    5216.7106       -1e+20 
   52700    2.3916209   -4.2931682    5254.9217            1 
   52800    2.4131703   -4.3364658    5249.3164       -1e+20 
   52900    2.3984917   -4.3938976    5212.9065       -1e+20 
   53000    2.4107394   -4.3691664     5217.096            1 
   53100    2.3599321   -4.3184053    5245.3676            1 
   53200    2.4159817   -4.3554111    5215.7165       -1e+20 
   53300    2.3617462   -4.3984164    5203.2284            1 
   53400    2.3676617   -4.3549797    5188.2167            1 
   53500    2.4037529   -4.3792917    5231.5101            1 
   53600    2.4020927   -4.4197432    5248.1116       -1e+20 
   53700    2.4310888   -4.3822097    5209.3064            1 
   53800    2.3273622   -4.3978551    5225.6747            1 
   53900    2.4338332   -4.4024249    5180.0298            1 
   54000    2.3753277   -4.3964378    5241.9541            1 
   54100    2.4474579   -4.3686022    5235.5452            1 
   54200    2.3987645    -4.396712    5214.2739            1 
   54300    2.3892352   -4.4326823    5210.5937            1 
   54400    2.3898069   -4.4450015    5159.4382            1 
   54500    2.3623249   -4.3814143    5209.9685            1 
   54600    2.4031924   -4.3383418    5220.4342            1 
   54700    2.3622692   -4.3543074    5219.0538            1 
   54800     2.380433   -4.3399096    5232.6233       -1e+20 
   54900    2.3880949   -4.3402206    5221.2178       -1e+20 
   55000    2.3806837    -4.404211     5220.198       -1e+20 
   55100    2.4127835   -4.3891149    5246.3181       -1e+20 
   55200    2.4028791   -4.3598136    5207.1596            1 
   55300    2.3249373   -4.3798658    5226.3261       -1e+20 
   55400    2.3978878   -4.3910912    5192.8223            1 
   55500     2.383798   -4.3493496    5226.5331            1 
   55600    2.4196529   -4.4265608     5254.965            1 
   55700    2.3905077   -4.3938375    5190.5821            1 
   55800    2.3786815   -4.4307933    5193.2679       -1e+20 
   55900    2.3627177   -4.3760418    5239.9452            1 
   56000    2.4341749   -4.3641055    5229.7596            1 
   56100    2.3687403   -4.3782202    5206.2383            1 
   56200    2.4218624   -4.3890379    5225.5988            2 
   56300    2.4065612   -4.4020396    5232.6273            1 
   56400     2.397829    -4.334346    5230.0532       -1e+20 
   56500    2.3587257   -4.3678926     5266.097            1 
   56600    2.4169722   -4.3565364    5158.1125       -1e+20 
   56700    2.3396695   -4.4172508    5207.1786       -1e+20 
   56800    2.4102852   -4.3991075    5216.2343            1 
   56900    2.4044908   -4.3812776    5222.9198       -1e+20 
   57000    2.3574526   -4.3979838    5204.5665       -1e+20 
   57100    2.4268216   -4.3755797    5208.4777            1 
   57200    2.3435866   -4.2954185    5256.6299       -1e+20 
   57300    2.4508723   -4.3267261    5251.2187            1 
   57400    2.3789202   -4.3475449     5244.286            1 
   57500    2.3563712   -4.3829674    5231.6362            1 
   57600    2.4580308   -4.3847747    5178.3612            1 
   57700    2.3447051   -4.4178352    5240.2592            1 
   57800    2.3779645   -4.3191972    5193.2299       -1e+20 
   57900    2.3828831   -4.3782209    5215.4416            1 
   58000     2.383828   -4.4641931    5187.7062            1 
   58100    2.3687547   -4.3666698    5198.4417            1 
   58200    2.4056119   -4.3668526    5242.8053       -1e+20 
   58300    2.3870452    -4.369555    5239.1945       -1e+20 
   58400    2.4162031   -4.3755775    5227.6018            1 
   58500    2.3635054   -4.4332847    5221.9703       -1e+20 
   58600    2.4135127   -4.3596211    5202.8492       -1e+20 
   58700    2.3601568   -4.3924099    5214.2304       -1e+20 
   58800     2.360847   -4.3833005    5212.2081            1 
   58900    2.3987981   -4.3385041     5242.306       -1e+20 
   59000    2.3759954   -4.3839588    5229.9021            1 
   59100    2.4104764   -4.4084431    5195.7233            1 
   59200    2.3861036    -4.395935    5219.1196       -1e+20 
   59300    2.3925256   -4.3759161    5220.6425            1 
   59400    2.3870881   -4.4054373    5186.4471            1 
   59500    2.4026533    -4.407362    5232.3129       -1e+20 
   59600    2.4488054   -4.3522734    5228.6946            1 
   59700     2.371092   -4.4075305    5258.1281            1 
   59800    2.4116241   -4.3482126    5228.9008            1 
   59900    2.4082274   -4.3703689    5256.2882            1 
   60000    2.3922417   -4.3440968    5247.5754       -1e+20 
   60100    2.3903532   -4.3213624    5235.5152            1 
   60200    2.3710699   -4.3980651    5238.0283            1 
   60300     2.470808   -4.3833532    5230.2179            1 
   60400     2.367353   -4.3349101    5234.4434            1 
   60500    2.3696811   -4.3968656     5214.241            1 
   60600    2.3901928   -4.3672981    5168.1182            1 
   60700    2.3749957   -4.3617416    5261.6286       -1e+20 
   60800    2.4018596   -4.3604861     5215.133       -1e+20 
   60900    2.3899297   -4.3681984    5238.9755            1 
   61000    2.4135432   -4.3901008    5232.9415            1 
   61100    2.3777429   -4.3538134     5203.179       -1e+20 
   61200    2.3539046   -4.4218278    5194.4939            1 
   61300    2.3913429    -4.361648    5198.8874       -1e+20 
   61400    2.4246366   -4.3510969    5277.7015       -1e+20 
   61500    2.3863002   -4.3682353    5219.0884            1 
   61600    2.4146704    -4.380631    5236.6663            1 
   61700    2.3707638   -4.4041858    5217.9807       -1e+20 
   61800    2.4118607   -4.3974011    5203.3896            1 
   61900    2.3894045   -4.3606251    5254.3439            1 
   62000    2.4201826   -4.3454719    5267.4674            1 
   62100    2.3962238   -4.3632419    5216.3573            1 
   62200    2.3498436   -4.4328702    5217.7395            1 
   62300     2.412053   -4.3590424    5214.6005            1 
   62400    2.4119233   -4.2997766     5229.328            1 
   62500    2.3867578   -4.4164846    5250.4485            1 
   62600    2.4035875   -4.3547048    5213.9836            1 
   62700    2.3796209   -4.3701913    5223.0903       -1e+20 
   62800    2.3687396   -4.4259741    5194.9822       -1e+20 
   62900    2.3982599   -4.3496784    5201.3594            2 
   63000    2.3976666   -4.3672463    5224.0206            1 
   63100    2.3709107   -4.4458799    5218.3438            1 
   63200    2.4488641   -4.3993592    5210.9177            1 
   63300    2.3393041   -4.3184948    5197.3553       -1e+20 
   63400    2.4446538   -4.3608337    5246.9193            1 
   63500    2.3752293   -4.3306537    5258.4249       -1e+20 
   63600     2.380666   -4.3927762    5222.0856       -1e+20 
   63700    2.3767596   -4.4020241    5180.7603       -1e+20 
   63800    2.4601456   -4.3946893    5220.3748       -1e+20 
   63900    2.3707014    -4.344891    5258.9665       -1e+20 
   64000    2.4363756   -4.3334656    5245.0558            1 
   64100    2.3823297   -4.3624555    5242.0334       -1e+20 
   64200    2.3757777   -4.3702908    5222.0654            1 
   64300    2.3897131   -4.3862336    5188.8411            1 
   64400    2.4116422   -4.3748813    5262.6271            1 
   64500    2.4287778   -4.2830069    5243.6259       -1e+20 
   64600    2.3890985   -4.3510429    5242.3411            1 
   64700    2.3648413   -4.3972238    5222.5333            1 
   64800    2.3983422   -4.3466224    5190.2578            1 
   64900    2.3090023   -4.3559423    5229.4081       -1e+20 
   65000    2.4232233   -4.3893618    5180.6982       -1e+20 
   65100    2.3681605   -4.3793726    5242.1429            1 
   65200    2.4034262   -4.3500072    5224.8261            1 
   65300    2.3861056   -4.3842073    5213.9815       -1e+20 
   65400    2.4006485   -4.3493726    5253.7387       -1e+20 
   65500    2.4106949   -4.2782945    5268.3781       -1e+20 
   65600    2.3750882    -4.354047    5249.4022            1 
   65700    2.3963346   -4.3649147    5231.8977            1 
   65800    2.3158644   -4.3738572    5223.7948       -1e+20 
   65900    2.4006894   -4.3694899    5250.6447       -1e+20 
   66000    2.4190293   -4.3550464     5217.063            1 
   66100    2.3785726   -4.4096533    5207.6636            1 
   66200     2.375413   -4.3622222    5227.6955       -1e+20 
   66300    2.4095546   -4.3507307    5210.9525       -1e+20 
   66400    2.3015167     -4.37476    5220.6971            1 
   66500    2.4083535   -4.3980743    5183.7158            1 
   66600    2.4189411   -4.3462348    5262.9089       -1e+20 
   66700    2.4250619   -4.3966763     5217.574            1 
   66800    2.3953113   -4.3812975    5254.6695       -1e+20 
   66900    2.3919028   -4.3583687    5206.3031       -1e+20 
   67000    2.3865888   -4.3825942     5213.484            1 
   67100    2.3752499   -4.3385832    5277.0721       -1e+20 
   67200    2.4462086   -4.3409391    5235.1461            1 
   67300    2.3636475   -4.3506688    5223.5836       -1e+20 
   67400     2.386818   -4.3584082      5244.28       -1e+20 
   67500    2.4021583    -4.347823    5216.6976            1 
   67600    2.3743136   -4.4008855    5221.2918            1 
   67700    2.4095342   -4.3440914    5215.7964       -1e+20 
   67800    2.3512263   -4.3262646    5225.5172            1 
   67900     2.362178   -4.3788327    5223.0847       -1e+20 
   68000    2.4198094   -4.3894609    5199.3963            1 
   68100    2.3692664   -4.3983205    5223.9681       -1e+20 
   68200    2.3507797   -4.3930764    5176.6709       -1e+20 
   68300    2.4294476   -4.4225205    5194.6899       -1e+20 
   68400    2.3609317   -4.4001975    5236.4555            1 
   68500    2.4093765   -4.3192413    5213.6588            1 
   68600    2.3902602   -4.4053232    5252.8658            1 
   68700    2.4836072   -4.3848129    5243.1014            1 
   68800    2.3716528    -4.361091    5222.8798            1 
   68900    2.3143579   -4.3224914    5221.6091       -1e+20 
   69000    2.4402924   -4.3612795    5214.8658       -1e+20 
   69100    2.3625233   -4.3883712    5237.9772            1 
   69200     2.432019   -4.3703462    5227.0479            1 
   69300    2.3804007   -4.3725762    5221.7092       -1e+20 
   69400    2.3252632   -4.3846481    5185.1367            1 
   69500    2.4368163   -4.3997932    5187.0583       -1e+20 
   69600    2.3626859   -4.3964148    5226.5884       -1e+20 
   69700    2.4381752   -4.3946681    5226.0351       -1e+20 
   69800    2.3942051   -4.3947006    5210.6338            1 
   69900    2.3433681   -4.4333844    5194.3031       -1e+20 
   70000    2.4006026   -4.4094783    5198.9907            1 
   70100    2.3913762   -4.3393706    5223.3603       -1e+20 
   70200    2.3724336   -4.3977364    5258.9423            1 
   70300    2.4199336   -4.3912864    5186.4756            1 
   70400    2.3506922   -4.3792816    5228.9384            1 
   70500    2.4191923   -4.4130356    5197.4989            1 
   70600    2.3790155    -4.354876    5230.2942            1 
   70700    2.3533172   -4.4236292    5186.6209            1 
   70800    2.3593548   -4.3788191    5184.4947       -1e+20 
   70900    2.3833308   -4.3715048    5239.7462            1 
   71000    2.3741681   -4.3261082    5233.1617            1 
   71100    2.4254583   -4.3349825    5229.5846       -1e+20 
   71200    2.3723769   -4.3635296    5243.5507            1 
   71300    2.4282627    -4.344503    5223.0797       -1e+20 
   71400    2.3721101   -4.4190346    5256.8594            1 
   71500    2.3930673   -4.4076771    5181.4138       -1e+20 
   71600    2.4003098   -4.3339744    5209.5431       -1e+20 
   71700    2.3904018   -4.3817754    5234.8857            1 
   71800    2.3832241   -4.3940942    5188.7056            1 
   71900    2.3940688   -4.3783726    5227.4259            1 
   72000    2.3861851   -4.3639956    5226.2198       -1e+20 
   72100     2.369724   -4.3522906    5206.1669            1 
   72200    2.4039083   -4.3734626     5222.486            1 
   72300    2.3450746   -4.4257924     5212.626       -1e+20 
   72400    2.4128274   -4.3971593    5176.9287       -1e+20 
   72500    2.4116271   -4.3535028     5246.508       -1e+20 
   72600     2.383496   -4.3619263    5261.0676            1 
   72700    2.3890614   -4.3624096    5194.0802       -1e+20 
   72800    2.3235235   -4.3555843    5230.7786       -1e+20 
   72900    2.3995414   -4.3600932    5231.5105            1 
   73000    2.3524838   -4.3417312    5199.0659       -1e+20 
   73100    2.3479425   -4.4237595    5193.3739            1 
   73200    2.3929752   -4.3681925    5212.0154            1 
   73300    2.3892135   -4.3681287    5217.8281       -1e+20 
   73400     2.393567   -4.3062202     5251.198            2 
   73500    2.4087708   -4.3585632    5233.0279            1 
   73600    2.3402047   -4.3493892    5237.6321       -1e+20 
   73700     2.412417   -4.3157264    5256.9742            1 
   73800    2.3661907   -4.3367562    5270.6133       -1e+20 
   73900    2.3776895   -4.3956986    5198.2747            2 
   74000    2.3337608   -4.3673505    5190.6103            2 
   74100    2.3717025   -4.3418095    5215.3565            1 
   74200    2.3729675   -4.3080188    5253.1798       -1e+20 
   74300    2.4540842   -4.3298314    5272.0549       -1e+20 
   74400    2.4082681   -4.3447381     5224.832            1 
   74500    2.3553877   -4.3676172    5230.5619       -1e+20 
   74600    2.4092114   -4.4095093    5187.3254            1 
   74700    2.4012119   -4.3663613    5225.5646       -1e+20 
   74800    2.3946884   -4.3987114    5250.5144       -1e+20 
   74900    2.3798757   -4.3772855    5148.8777            1 
   75000    2.3891547   -4.4473816    5211.3765            1 
   75100    2.3944789   -4.3973118    5232.6632            1 
   75200    2.4286143    -4.337574    5223.7102            1 
   75300    2.3911037   -4.2871795    5306.3685       -1e+20 
   75400    2.3856415   -4.2962783     5262.279            1 
   75500    2.3852574   -4.3633854    5219.8016       -1e+20 
   75600     2.416869    -4.400003    5235.9327            1 
   75700    2.3718142   -4.3364633    5220.5955            2 
   75800    2.4149586   -4.4093957    5181.9981            1 
   75900    2.3216302   -4.3711859    5227.3311            1 
   76000    2.4316659   -4.3641192    5201.3155            1 
   76100    2.3448335   -4.3643311    5234.2072       -1e+20 
   76200    2.4346514   -4.4000347    5232.3805            1 
   76300    2.3900876   -4.3733627    5237.3912            1 
   76400    2.4345219   -4.3502862    5247.4734       -1e+20 
   76500    2.3765165   -4.3601031     5226.362            1 
   76600    2.3653723   -4.3937931    5196.0513            1 
   76700    2.4208923   -4.3670138    5190.5105            1 
   76800    2.3997684   -4.3782068    5264.0912            1 
   76900    2.3950191   -4.3570398    5220.9121            1 
   77000    2.3657902   -4.3569156    5238.0045       -1e+20 
   77100    2.3852264   -4.3216209    5231.7983       -1e+20 
   77200    2.3955028   -4.3806989    5210.6094            1 
   77300    2.3531844   -4.3535313    5241.3196            1 
   77400    2.4427827   -4.3374963    5224.9383            1 
   77500    2.3652315   -4.3429258    5266.0027       -1e+20 
   77600    2.3948264   -4.3418559     5214.107            1 
   77700    2.3986795   -4.3756626    5225.7934            1 
   77800    2.3254538   -4.3677509    5208.6679            1 
   77900    2.3952318   -4.3858711    5209.1652            1 
   78000    2.3771587    -4.354574    5241.5061       -1e+20 
   78100    2.4604803   -4.3781628    5257.2143       -1e+20 
   78200    2.3973175   -4.3688986    5218.7586            3 
   78300    2.3570091   -4.3672008    5195.9122            1 
   78400    2.4474464    -4.373194    5236.1937       -1e+20 
   78500    2.4038064   -4.3930405    5241.1544            1 
   78600    2.3942765   -4.4139982    5223.2002       -1e+20 
   78700    2.4042724   -4.4011073    5198.7436       -1e+20 
   78800    2.3689508   -4.3473801    5259.4486            1 
   78900    2.4382586   -4.2995816    5235.6106       -1e+20 
   79000     2.396654   -4.3723957    5234.3025       -1e+20 
   79100    2.3757466   -4.3998495    5214.0249            1 
   79200    2.4139788   -4.3821798    5207.3668            1 
   79300    2.3661225    -4.365056    5234.1667            1 
   79400    2.3730947   -4.3089228    5219.8522            1 
   79500    2.3595719   -4.2865595    5265.4893       -1e+20 
   79600    2.4072624   -4.2983841    5251.4561            1 
   79700    2.3713448    -4.355576    5256.5603            1 
   79800    2.3614893   -4.3949753    5199.2684            1 
   79900    2.4037059   -4.4043664    5207.0697            1 
   80000    2.3886097   -4.3851496    5203.6054            1 
   80100    2.4083474    -4.420069    5190.5441            1 
   80200     2.409042   -4.3844174    5252.8025            1 
   80300    2.4419648   -4.2863844    5213.5129       -1e+20 
   80400    2.3332472   -4.3130258    5259.0575            1 
   80500    2.4521689   -4.3815071    5221.6292            3 
   80600    2.3877929    -4.409004    5249.1571            1 
   80700    2.4230117   -4.3665314    5219.2571       -1e+20 
   80800    2.3291045   -4.3127539    5173.5892       -1e+20 
   80900    2.3791851   -4.3877891     5230.327            1 
   81000    2.3750708   -4.3575147    5202.0319       -1e+20 
   81100    2.3946452   -4.3605418    5220.6241       -1e+20 
   81200    2.4141569   -4.3779449    5237.4457            1 
   81300    2.3861943   -4.3724169    5233.5309       -1e+20 
   81400    2.4742885   -4.3194331     5240.826       -1e+20 
   81500    2.3637202   -4.3129985    5256.1489            1 
   81600     2.424129   -4.4096907    5227.9436            1 
   81700    2.3814934   -4.4298027    5198.2785       -1e+20 
   81800    2.4148439   -4.3900222    5193.8567       -1e+20 
   81900    2.3544234    -4.328991    5207.3764            1 
   82000    2.3782968   -4.3741893    5253.2019       -1e+20 
   82100    2.4399366   -4.3234593    5216.0605       -1e+20 
   82200    2.3444298   -4.3439512    5238.5175       -1e+20 
   82300    2.3856995   -4.3440299    5247.5969            1 
   82400    2.4036316   -4.3187421    5222.0243       -1e+20 
   82500    2.3505333   -4.3305161     5251.769            1 
   82600    2.4181317   -4.3683167    5240.5356       -1e+20 
   82700     2.434764   -4.3408531    5244.8344       -1e+20 
   82800    2.3785037   -4.4035708    5264.1468       -1e+20 
   82900    2.4262401   -4.3368842    5210.7598       -1e+20 
   83000      2.31196   -4.3545662    5256.6244            1 
   83100    2.4396082   -4.3689224    5207.5589       -1e+20 
   83200     2.343027   -4.3540634    5235.3245            1 
   83300    2.4204969   -4.3485872    5216.7267       -1e+20 
   83400    2.3427298   -4.3387662    5226.4719            1 
   83500    2.3908437   -4.3162155    5246.3011            1 
   83600    2.4611297   -4.3517959    5258.6266       -1e+20 
   83700    2.3575061   -4.3389704    5230.5186            1 
   83800    2.3941456   -4.3714646    5209.1342            1 
   83900    2.3666143   -4.3828344    5230.4241            1 
   84000    2.4308644   -4.3588108    5233.7588            1 
   84100    2.3669947   -4.3698379    5244.8131       -1e+20 
   84200     2.365207    -4.434652    5191.5316            1 
   84300     2.388147   -4.4079669    5168.0027       -1e+20 
   84400    2.3402457    -4.360678    5235.4224            1 
   84500    2.4122989   -4.3679343    5226.8367            1 
   84600    2.4039054   -4.3768493    5249.5495            1 
   84700    2.4263591   -4.3955577    5246.2509       -1e+20 
   84800    2.4395819   -4.4069152    5208.8503            1 
   84900    2.2987288   -4.3458244    5259.4578       -1e+20 
   85000    2.4286618   -4.3015841    5175.3032       -1e+20 
   85100    2.3705878   -4.4170259    5222.3267       -1e+20 
   85200    2.3808692   -4.4112737    5196.1408       -1e+20 
   85300    2.3976706   -4.3513921    5205.8112            1 
   85400    2.3914503   -4.3903978    5240.3879       -1e+20 
   85500    2.3436086   -4.3848243    5161.9673            1 
   85600    2.3719491   -4.4014619    5219.9281            1 
   85700    2.3968366   -4.3850083    5210.2724       -1e+20 
   85800    2.4230469   -4.3112884    5230.7537       -1e+20 
   85900      2.36709   -4.3556493    5270.4559       -1e+20 
   86000    2.3963205   -4.2906751    5225.0487            1 
   86100    2.3301589    -4.299736    5247.4636            1 
   86200    2.3958019   -4.3421606    5208.6091            1 
   86300    2.3688068   -4.4116575    5223.2259            1 
   86400    2.4103782   -4.3615066    5216.8353            1 
   86500    2.3911935   -4.3598317    5241.5007       -1e+20 
   86600    2.4020949   -4.3683834    5229.7529            1 
   86700    2.4404048   -4.4249718    5238.4869       -1e+20 
   86800    2.3844741   -4.4044394    5223.6332       -1e+20 
   86900    2.3717808   -4.4020063    5168.3325            1 
   87000    2.4218282   -4.3886931     5215.656       -1e+20 
   87100     2.415295   -4.3982624    5234.2526            1 
   87200    2.3527995   -4.3606196    5204.8198            1 
   87300    2.3743476    -4.337476     5218.258       -1e+20 
   87400    2.3898918   -4.3221415    5246.3858            1 
   87500    2.4083083   -4.3943146    5215.9073       -1e+20 
   87600    2.3645691   -4.4194871    5201.0666            1 
   87700    2.4126748   -4.3641054    5202.1291            1 
   87800    2.3337827   -4.3618754    5216.0976       -1e+20 
   87900    2.3936902   -4.4066543    5215.5585            1 
   88000    2.3777314   -4.3340799    5217.8304       -1e+20 
   88100    2.3643022   -4.3443282      5227.47       -1e+20 
   88200    2.4359786   -4.3825337    5225.3489            1 
   88300    2.3748255    -4.396193     5226.456       -1e+20 
   88400    2.3918039   -4.3739016    5189.0672            1 
   88500    2.4307593   -4.3792011     5234.187       -1e+20 
   88600    2.3993382   -4.3938594    5228.0889       -1e+20 
   88700     2.431695   -4.4118778    5199.5742            1 
   88800    2.3544044   -4.4323351    5209.9074       -1e+20 
   88900    2.4071041   -4.3764079    5208.8942       -1e+20 
   89000    2.4598685   -4.4406027    5250.0683       -1e+20 
   89100    2.3627769   -4.4069945    5216.4417       -1e+20 
   89200     2.417942   -4.3905741     5208.037            1 
   89300    2.3817314   -4.3311143    5248.9391       -1e+20 
   89400    2.4290737   -4.3522012    5285.3896            1 
   89500    2.3829446   -4.2978604     5205.013       -1e+20 
   89600    2.3362421   -4.3433609    5234.0499            1 
   89700    2.3953172   -4.3326263    5229.6713            1 
   89800    2.3734557   -4.3434353     5253.184            1 
   89900    2.3882608   -4.2815642    5242.1116            1 
   90000    2.3881732   -4.3717639    5224.9611       -1e+20 
   90100    2.3360761   -4.4032934    5215.4805            1 
   90200    2.3876527   -4.3128276    5172.4301       -1e+20 
   90300    2.3967504   -4.3793741    5240.0676            1 
   90400     2.372506   -4.3669102    5243.4262       -1e+20 
   90500    2.4012765    -4.342212    5229.2978       -1e+20 
   90600     2.346784   -4.3112024    5227.0769            1 
   90700    2.4108503   -4.3282204    5220.4909       -1e+20 
   90800    2.3620189   -4.3341858    5257.9299            1 
   90900    2.4348458    -4.389652    5217.1635            1 
   91000    2.3953862   -4.4091084    5208.9825            1 
   91100     2.396345    -4.385998    5210.6372            1 
   91200    2.4427393   -4.3832535    5278.4833            2 
   91300    2.4134589   -4.3521808    5226.4528            1 
   91400    2.3316915   -4.3303741    5222.6819            1 
   91500    2.4422436   -4.4003455    5217.8162       -1e+20 
   91600    2.3486133   -4.3406913    5201.7848       -1e+20 
   91700    2.3739865   -4.3439299    5253.0924       -1e+20 
   91800    2.4546426   -4.3079845    5248.4192       -1e+20 
   91900    2.3940828   -4.3654924    5261.0341            1 
   92000    2.4165056   -4.3578416    5234.3275            1 
   92100     2.377749   -4.3615331    5231.4798       -1e+20 
   92200    2.3579741   -4.3236564    5190.0508            1 
   92300     2.368718   -4.4018531    5179.6829       -1e+20 
   92400    2.3780155   -4.3820098    5246.6083            1 
   92500    2.4177704    -4.336855     5248.053            1 
   92600    2.3596855   -4.3224849    5237.8402            1 
   92700    2.3697623   -4.3252965    5225.8582       -1e+20 
   92800    2.4109224   -4.3711478    5218.9467            1 
   92900    2.3712607   -4.4135335    5199.3985            1 
   93000    2.3741596   -4.4744587    5183.6644            1 
   93100    2.3919211   -4.3851427    5171.4231            1 
   93200    2.3696764   -4.3572015    5255.2186            1 
   93300    2.4180847   -4.3489989    5237.6976       -1e+20 
   93400    2.3883861    -4.369179    5212.1811       -1e+20 
   93500    2.3838738   -4.3644683    5225.2469            1 
   93600    2.3951645   -4.3733908    5222.3724            1 
   93700      2.36145   -4.4023841    5207.4073            1 
   93800    2.3913177   -4.3770526    5189.5283            1 
   93900    2.3929506    -4.342791    5250.7973            1 
   94000    2.4111956   -4.4042512    5239.9796       -1e+20 
   94100    2.3929179   -4.3372549    5230.9571            1 
   94200    2.4450596    -4.290943    5254.5344            1 
   94300    2.3846536   -4.3384977    5241.6381       -1e+20 
   94400    2.3783346   -4.3853322    5240.8464       -1e+20 
   94500    2.4708751   -4.4082171    5191.7617       -1e+20 
   94600    2.3419737   -4.4040312    5234.1144            1 
   94700    2.4060935   -4.3452008    5166.7112            1 
   94800    2.3398172   -4.3470201    5233.5112       -1e+20 
   94900     2.379561   -4.3625251    5225.8517            1 
   95000    2.3538926   -4.3554236    5194.7873            1 
   95100    2.4019557   -4.3281187    5231.6867       -1e+20 
   95200    2.3780128   -4.3778512    5227.5506       -1e+20 
   95300    2.3891952   -4.4065274    5194.2914            1 
   95400    2.3590123   -4.3445224    5195.3084            1 
   95500     2.380551   -4.3001226    5251.8283       -1e+20 
   95600      2.42086   -4.3732723    5224.1894       -1e+20 
   95700    2.3679803   -4.3715446    5232.7382            1 
   95800    2.4232499   -4.3004757    5208.0206            1 
   95900    2.3478445   -4.3889817    5255.1758       -1e+20 
   96000    2.4100044   -4.3535308     5218.565       -1e+20 
   96100    2.4030157    -4.346877    5236.4155            1 
   96200    2.3925707    -4.361872    5270.6565            1 
   96300     2.420511   -4.3237835    5238.4346       -1e+20 
   96400    2.3401666    -4.362371    5248.9332            1 
   96500    2.4139321   -4.3526876    5198.6813            1 
   96600    2.3711166   -4.4135461    5232.5427       -1e+20 
   96700    2.3902824   -4.3426152    5200.8515            1 
   96800    2.3829725   -4.4198712    5206.6344       -1e+20 
   96900    2.3906523   -4.3689361    5209.9005            1 
   97000    2.3793453   -4.3540797    5226.0525            1 
   97100    2.3689594   -4.4208445    5195.2795       -1e+20 
   97200    2.3505099   -4.3597711     5203.159       -1e+20 
   97300    2.4004695   -4.3461362    5232.8748       -1e+20 
   97400    2.3476365   -4.3868055    5234.8599       -1e+20 
   97500    2.4236902   -4.3568678    5230.7411       -1e+20 
   97600    2.3866635   -4.3232077    5270.6076            1 
   97700    2.4470777   -4.3310541    5265.4698            1 
   97800    2.3992352    -4.344678    5233.4609       -1e+20 
   97900    2.3596174   -4.4030106     5216.599            1 
   98000     2.393119   -4.3487091    5219.3711       -1e+20 
   98100    2.3989844   -4.3392698    5248.8834            1 
   98200     2.357286   -4.3946696    5202.3623            1 
   98300    2.3900984   -4.3699001    5209.8149            1 
   98400    2.4610813   -4.3759037    5249.7815            1 
   98500    2.3542274   -4.3544391    5241.1904            1 
   98600    2.3823324   -4.3419973    5192.6234       -1e+20 
   98700    2.3328977   -4.3744219    5225.9579            1 
   98800    2.3841589   -4.3459343    5228.4271            1 
   98900    2.4329104   -4.3341105    5240.5042       -1e+20 
   99000    2.3924899   -4.3536035     5262.409            1 
   99100    2.4103028   -4.3498698    5217.5999       -1e+20 
   99200    2.3643666   -4.3801242    5244.5876            1 
   99300    2.4211529   -4.3759244    5232.1588            1 
   99400    2.3683191   -4.3432678     5255.188            1 
   99500    2.4070473   -4.3209269     5253.809       -1e+20 
   99600    2.3665013   -4.3268008    5239.8008            1 
   99700    2.4498718   -4.3525225    5242.0477            1 
   99800    2.4032733   -4.4258939    5207.8491       -1e+20 
   99900    2.3567957   -4.3838378    5206.8385            1 
  100000    2.4306977   -4.3918912    5196.3689            1 
  100100     2.348012   -4.4040203    5238.2341       -1e+20 
  100200      2.43738   -4.3651021    5203.6514            1 
  100300    2.3542627   -4.3190973    5237.4302       -1e+20 
  100400    2.3779507   -4.3191688    5232.0899            1 
  100500    2.3803881   -4.3327683    5234.3664            1 
  100600    2.3380034   -4.3587451    5251.1491            1 
  100700    2.4096012   -4.3034435    5176.3499            1 
  100800    2.3275948   -4.3714173    5266.4102            1 
  100900    2.4219973   -4.3553905    5220.9133            1 
  101000    2.3808026   -4.3329459    5237.2429            1 
  101100    2.4043904   -4.3356264    5235.3737            1 
  101200     2.396146   -4.3312283    5237.7232            1 
  101300     2.359311   -4.3419336    5247.0938       -1e+20 
  101400    2.4130853   -4.3583563    5204.7052            1 
  101500    2.3388104   -4.3758973    5223.7065            1 
  101600    2.4416995   -4.3905367    5195.0697            1 
  101700    2.4025092    -4.303643    5263.6787       -1e+20 
  101800    2.3913448    -4.364975    5246.5742       -1e+20 
  101900    2.3774453   -4.3787428    5190.3998            3 
  102000    2.3583871   -4.3928262    5200.2117       -1e+20 
  102100    2.4237268   -4.4066528    5220.7383       -1e+20 
  102200    2.3410099   -4.3992808    5197.7691       -1e+20 
  102300    2.4016986   -4.3882469    5180.9061            2 
  102400    2.4016718   -4.3972813    5243.7902            1 
  102500    2.4203925   -4.3501259    5226.4562       -1e+20 
  102600    2.3619822   -4.3804294    5203.4688            1 
  102700    2.3985162   -4.3613164    5225.7203            1 
  102800     2.418746   -4.3571478    5254.4925            2 
  102900    2.3816606   -4.3496677    5244.1367       -1e+20 
  103000    2.4451842   -4.3919308    5218.6554       -1e+20 
  103100    2.3785009   -4.4261558    5211.3512       -1e+20 
  103200    2.4023383   -4.3536692    5216.4353            1 
  103300    2.3909048   -4.3774884    5245.3663            2 
  103400    2.4064237   -4.3560911    5252.6179            1 
  103500     2.395595   -4.3310623    5191.2477       -1e+20 
  103600    2.3377451   -4.3667275    5245.6939       -1e+20 
  103700    2.4253322   -4.3476955    5196.1458       -1e+20 
  103800    2.3853459    -4.415309    5219.2591            1 
  103900    2.3538796   -4.3855484    5193.9834            1 
  104000    2.4110107   -4.4125368    5181.0994       -1e+20 
Loop time of 165.701 on 32 procs for 100000 steps with 4000 atoms

Performance: 104284.321 tau/day, 603.497 timesteps/s
99.6% CPU use with 32 MPI tasks x no OpenMP threads

MPI task timing breakdown:
Section |  min time  |  avg time  |  max time  |%varavg| %total
---------------------------------------------------------------
Pair    | 12.159     | 12.703     | 13.114     |   7.8 |  7.67
Neigh   | 2.3789     | 2.4261     | 2.5025     |   2.0 |  1.46
Comm    | 8.9112     | 9.7433     | 11.277     |  23.5 |  5.88
Output  | 5.8555     | 5.856      | 5.8666     |   0.1 |  3.53
Modify  | 132.1      | 133.81     | 135.09     |   8.0 | 80.75
Other   |            | 1.167      |            |       |  0.70

Nlocal:        125.000 ave         134 max         113 min
Histogram: 2 0 1 5 7 1 4 6 2 4
Nghost:        1653.06 ave        1683 max        1623 min
Histogram: 2 2 4 3 3 5 4 7 0 2
Neighs:        11020.0 ave       12148 max        9595 min
Histogram: 1 1 4 4 3 5 5 3 1 5
FullNghs:      22039.8 ave       23688 max       19239 min
Histogram: 1 1 0 2 6 7 2 4 4 5

Total # of neighbors = 705272
Ave neighs/atom = 176.31800
Neighbor list builds = 9064
Dangerous builds = 1995

#clear
#
#next RN
#
#jump SELF
Total wall time: 0:02:46
