
units lj                  # Use reduced LJ style units
atom_style atomic         # Uncharged point particles
atom_modify map hash      # Needed for indexing of clusters etc
                          # Used to be able to find where atoms are in relation to each other.

lattice fcc 1.0 spacing 1 1 1
Lattice spacing in x,y,z = 1.5874011 1.5874011 1.5874011
region box block 0 10 0 10 0 10 units lattice
create_box 2 box
Created orthogonal box = (0.0000000 0.0000000 0.0000000) to (15.874011 15.874011 15.874011)
  3 by 4 by 4 MPI processor grid
create_atoms 1 box
Created 4000 atoms
  using lattice units in orthogonal box = (0.0000000 0.0000000 0.0000000) to (15.874011 15.874011 15.874011)
  create_atoms CPU = 0.011 seconds
set type 1 type/fraction 2 0.77 78393
Setting atom values ...
  3073 settings made for type/fraction
mass 1 1.0
mass 2 1.0
pair_style lj/cut  3.5
pair_modify tail  yes
pair_coeff 1  1  1.0  1.0   # Intearaction between 1 and 1 set with epsilon = 1 and sigma = 1
pair_coeff 1  2  1.5  0.8
pair_coeff 2  2  0.5  0.88

write_data data.0
System init for write_data ...
Neighbor list info ...
  update every 1 steps, delay 10 steps, check yes
  max neighbors/atom: 2000, page size: 100000
  master list distance cutoff = 3.8
  ghost atom cutoff = 3.8
  binsize = 1.9, bins = 9 9 9
  1 neighbor lists, perpetual/occasional/extra = 1 0 0
  (1) pair lj/cut, perpetual
      attributes: half, newton on
      pair build: half/bin/atomonly/newton
      stencil: half/bin/3d
      bin: standard
WARNING: Not all mixed pair coeffs generated from mixing. Use write_data with 'pair ij' option to store all pair coeffs. (../write_data.cpp:312)


#############################
#   M E L T   S Y S T E M   #
#############################

velocity all create 2.4 6229865 mom yes dist gaussian # Assign velocities
                                                    # Temperature 2.4, random number seed, zero linear momentum
                                                                                # Gaussian distribution

timestep 0.002   # simulation timestep
thermo 1000       # output thermodynamic data every 1000 steps bf 100

# Define a fix  in this case with index 1 applied to all
# particles in the simulation. This fix is for simulations
# in the anisotropic NPT ensemble. Note that we use the MTK
# correction.
fix 1 all npt temp 2.4 2.4 0.1 iso 5.68 5.68 0.5 mtk yes tchain 5 pchain 5 # Use NPT ensemble
                                                                         # Set temperature and pressure and damping
                                                                         # Numbers of thermostats in chain and in barostat
run 10000          # run for 10000 steps
Per MPI rank memory allocation (min/avg/max) = 3.642 | 3.644 | 3.648 Mbytes
Step Temp E_pair E_mol TotEng Press Volume 
       0          2.4   -3.8453673            0  -0.24626728   -3.4249601         4000 
    1000    2.4305732   -3.3309837            0   0.31396461    5.8379675    3698.8217 
    2000    2.3920186   -3.2661292            0   0.32100165    5.5794814    3762.7415 
    3000    2.3880417   -3.3755026            0   0.20566447    5.6293664    3695.0996 
    4000    2.3774035   -3.3312146            0   0.23399915    5.3013677    3744.8769 
    5000    2.4135853   -3.2878127            0   0.33166012    5.6274122    3761.7467 
    6000    2.3952052   -3.3284521            0   0.26345738    5.4548203    3753.7124 
    7000    2.4080272   -3.2948175            0   0.31632021    5.6001593    3761.4775 
    8000    2.4057566   -3.2953332            0    0.3123996    5.5484106    3756.9404 
    9000    2.4345589   -3.3180919            0   0.33283349    5.6896065    3734.3327 
   10000    2.3793172   -3.2983249            0   0.26975875    5.4440716     3755.874 
Loop time of 2.59635 on 48 procs for 10000 steps with 4000 atoms

Performance: 665549.211 tau/day, 3851.558 timesteps/s
99.6% CPU use with 48 MPI tasks x no OpenMP threads

MPI task timing breakdown:
Section |  min time  |  avg time  |  max time  |%varavg| %total
---------------------------------------------------------------
Pair    | 1.1843     | 1.2336     | 1.3112     |   2.3 | 47.51
Neigh   | 0.21485    | 0.22049    | 0.23093    |   0.7 |  8.49
Comm    | 0.80909    | 0.87816    | 0.91958    |   3.0 | 33.82
Output  | 0.00025012 | 0.00025394 | 0.00031607 |   0.0 |  0.01
Modify  | 0.22622    | 0.24827    | 0.28652    |   3.3 |  9.56
Other   |            | 0.0156     |            |       |  0.60

Nlocal:        83.3333 ave          92 max          75 min
Histogram: 3 3 6 3 7 10 6 7 1 2
Nghost:        1715.92 ave        1735 max        1698 min
Histogram: 3 3 6 7 10 3 5 3 4 4
Neighs:        10160.2 ave       11570 max        8999 min
Histogram: 4 4 2 9 9 9 7 2 0 2

Total # of neighbors = 487690
Ave neighs/atom = 121.92250
Neighbor list builds = 904
Dangerous builds = 176

# Equilibrate just above the melting temperature to avoid step fn in T

fix 1 all npt temp 1.25 1.25 0.1 iso 5.68 5.68 0.5 mtk yes tchain 5 pchain 5
run 2000
Per MPI rank memory allocation (min/avg/max) = 3.644 | 3.646 | 3.649 Mbytes
Step Temp E_pair E_mol TotEng Press Volume 
   10000    2.3793172   -3.2983249            0   0.26975875    5.4440716     3755.874 
   11000    1.2717163   -4.8690684            0   -2.9619708    5.7696521    2857.2559 
   12000    1.2419744   -4.8981035            0   -3.0356077    5.6131265     2857.751 
Loop time of 0.653494 on 48 procs for 2000 steps with 4000 atoms

Performance: 528849.354 tau/day, 3060.471 timesteps/s
99.6% CPU use with 48 MPI tasks x no OpenMP threads

MPI task timing breakdown:
Section |  min time  |  avg time  |  max time  |%varavg| %total
---------------------------------------------------------------
Pair    | 0.29493    | 0.31737    | 0.35355    |   2.3 | 48.56
Neigh   | 0.041275   | 0.043795   | 0.048036   |   0.7 |  6.70
Comm    | 0.20043    | 0.24202    | 0.2675     |   2.9 | 37.03
Output  | 5.2473e-05 | 5.3868e-05 | 6.954e-05  |   0.0 |  0.01
Modify  | 0.041553   | 0.045355   | 0.048242   |   0.9 |  6.94
Other   |            | 0.004907   |            |       |  0.75

Nlocal:        83.3333 ave          94 max          77 min
Histogram: 3 8 9 7 10 6 2 1 1 1
Nghost:        2063.92 ave        2081 max        2042 min
Histogram: 2 0 4 1 9 13 7 7 3 2
Neighs:        13355.5 ave       15459 max       11750 min
Histogram: 1 6 9 5 9 8 6 3 0 1

Total # of neighbors = 641065
Ave neighs/atom = 160.26625
Neighbor list builds = 145
Dangerous builds = 14

#############################
# L I N E A R  Q U E N C H  #
#############################

# Define solid atoms. This closely follows ten Wolde  Ruiz-Montero and Frenkel  Faraday Discuss  1996  104  93-110
# Compute components of the per-atom q6 vector
compute q6 all orientorder/atom degrees 1 6 components 6 nnn NULL cutoff 1.3 # compute the Q6 parameter.
                                                                             # Use all neighbours within 1.3 unit cell.

# get number of connections
compute coord_number all coord/atom orientorder q6 0.5

# An atom is solid if it has 8 or more connections (of a possible 14)
variable is_solid atom c_coord_number>=8
group solid dynamic all var is_solid    # Must be dynamic to update
dynamic group solid defined

# do clustering
compute cluster solid cluster/atom 1.3 # Create a cluster where all atoms within are solid and max 1.3 units from another member

# define chunks one chunk per cluster
compute clus_chunks solid chunk/atom c_cluster nchunk every compress yes  # Says which atoms are in which chunk

# count the size of each chunk
compute size_chunks solid property/chunk clus_chunks count


# Find the maximum entry in the vector of chunk sizes
variable max_n equal max(c_size_chunks)


# Thermo style which includes this variable
# thermo_style custom step temp pe vol v_max_n

thermo ${N}  # Print the thermo information every 100 steps
thermo 1000  

# Reset the npt fix at a lower temperature (below freezing)
fix 1  all npt temp  ${temp} ${temp}  0.1  iso  5.68  5.68  0.5  mtk yes tchain  5  pchain  5
fix 1  all npt temp  0.45 ${temp}  0.1  iso  5.68  5.68  0.5  mtk yes tchain  5  pchain  5
fix 1  all npt temp  0.45 0.45  0.1  iso  5.68  5.68  0.5  mtk yes tchain  5  pchain  5

dump dmp2 all dcd ${N} traj.dcd
dump dmp2 all dcd 1000 traj.dcd


compute msd all msd com yes
variable twopoint equal c_msd[4]/6/(step*dt+1.0e-6)
fix 9 all vector 10 c_msd[4]
variable fit equal slope(f_9)/6/(10*dt)
thermo_style custom step temp pe c_msd[4] v_twopoint v_fit v_max_n

fix 1 all npt temp 1.25 ${temp} 0.1 iso 5.68 5.68 0.5 mtk yes tchain 5 pchain 5
fix 1 all npt temp 1.25 0.45 0.1 iso 5.68 5.68 0.5 mtk yes tchain 5 pchain 5
run 5000000 # 5000000  # Run for this many steps
Neighbor list info ...
  update every 1 steps, delay 10 steps, check yes
  max neighbors/atom: 2000, page size: 100000
  master list distance cutoff = 3.8
  ghost atom cutoff = 3.8
  binsize = 1.9, bins = 8 8 8
  4 neighbor lists, perpetual/occasional/extra = 1 3 0
  (1) pair lj/cut, perpetual
      attributes: half, newton on
      pair build: half/bin/atomonly/newton
      stencil: half/bin/3d
      bin: standard
  (2) compute orientorder/atom, occasional
      attributes: full, newton on
      pair build: full/bin/atomonly
      stencil: full/bin/3d
      bin: standard
  (3) compute coord/atom, occasional
      attributes: full, newton on
      pair build: full/bin/atomonly
      stencil: full/bin/3d
      bin: standard
  (4) compute cluster/atom, occasional
      attributes: full, newton on
      pair build: full/bin/atomonly
      stencil: full/bin/3d
      bin: standard
Per MPI rank memory allocation (min/avg/max) = 9.841 | 9.845 | 9.848 Mbytes
Step Temp PotEng c_msd[4] v_twopoint v_fit v_max_n 
   12000    1.2419744   -4.8981035 2.9745973e-30 2.0656925e-32 8.3333333e+20            2 
   13000     1.241813   -4.8626801   0.73348084    0.0047018   0.06115952            2 
   14000    1.2304895   -4.8636985    1.5174349 0.0090323502  0.063779202            4 
   15000    1.2392264   -4.8303207      2.25422  0.012523444  0.063557596            2 
   16000    1.2314897   -4.8999367    2.9255802  0.015237397   0.06203562            1 
   17000    1.2500931   -4.8851475    3.5831986  0.017564699  0.060164796            3 
   18000    1.2668488   -4.8889783    4.2950442  0.019884463   0.05956176            3 
   19000    1.2472727   -4.9370144    5.0711181  0.022241745  0.059612361            1 
   20000    1.2355524    -4.852515    5.8320143  0.024300059  0.059929269            1 
   21000     1.222112   -4.8728198    6.5340095  0.025928609  0.060083774            1 
   22000     1.250485   -4.8987673    7.1935165  0.027248168  0.059998761            2 
   23000    1.2355389   -4.8995583    8.0106313  0.029024026  0.059966171            4 
   24000    1.2638657   -4.9207038    8.8475366  0.030720613  0.060341256            3 
   25000    1.2235368   -4.8505314    9.6081651  0.032027216  0.060802984            2 
   26000    1.2493515   -4.8839678    10.307927  0.033038227  0.061048409            1 
   27000    1.2366314   -4.9225569    11.034484  0.034057048  0.061333228            2 
   28000    1.2657858   -4.8578907    11.719297  0.034878858  0.061292001            3 
   29000    1.2518444   -4.9029163    12.288175  0.035310847  0.061116082            2 
   30000    1.2543918    -4.917407    13.136245  0.036489569  0.061035456            1 
   31000    1.2103256   -4.8882385    13.857589  0.037251583  0.061055004            1 
   32000    1.2582635   -4.8619884    14.640818   0.03812713  0.061029079            4 
   33000    1.2785121   -4.8564948    15.477073  0.039083518   0.06106073            2 
   34000    1.2575739   -4.8690626    16.254347  0.039839086  0.061174191            2 
   35000    1.2548955    -4.912481    16.868967  0.040164207  0.061230319            2 
   36000     1.247957   -4.9066465    17.683266  0.040933487  0.061319497            1 
   37000    1.2486874   -4.8863054    18.466795   0.04159188  0.061384567            1 
   38000    1.2575693   -4.8890673    19.196846  0.042098345  0.061458438            2 
   39000    1.2342154   -4.8911823    19.984777  0.042702514  0.061502225            3 
   40000    1.2582064   -4.8885707    20.658462  0.043038462  0.061529765            3 
   41000    1.2285209   -4.8785852    21.323837  0.043341132  0.061537459            3 
   42000    1.2602768   -4.8728382    22.073839  0.043797299  0.061534216            3 
   43000    1.2524796   -4.9077502    22.811795  0.044208904   0.06155061            3 
   44000     1.219258   -4.9364849    23.637412  0.044767824  0.061563841            3 
   45000    1.2512089   -4.8738006    24.532563  0.045430673  0.061611883            3 
   46000    1.2372463   -4.9015443    25.314792  0.045860131  0.061687578            2 
   47000    1.2371444   -4.9094852    26.118216  0.046308893  0.061797396            2 
   48000    1.2121982   -4.8889572     27.03464  0.046935139  0.061953127            4 
   49000    1.2292964   -4.8917196    27.898489   0.04744641  0.062113232            5 
   50000     1.253906   -4.9412011    28.542349  0.047570581  0.062248542            2 
   51000    1.2431867   -4.8986162    29.485163   0.04817837  0.062390184            1 
   52000    1.2432252   -4.8634642    30.468911  0.048828383  0.062546569            2 
   53000    1.2755642   -4.8949864     31.17059  0.049010361  0.062739446            2 
   54000    1.2588743   -4.9118902    31.949412  0.049304647  0.062927766            2 
   55000    1.2680058   -4.9022128    32.965241  0.049947335  0.063123364            1 
   56000     1.234043   -4.9172939    33.722508  0.050182304   0.06330948            2 
   57000    1.2368322    -4.912523    34.534104  0.050488456  0.063473654            3 
   58000    1.2577157   -4.9045363    35.181384  0.050547965  0.063595866            2 
   59000    1.2486194   -4.8945049    35.785297  0.050544205  0.063674707            2 
   60000    1.2371409   -4.9093342    36.609232  0.050846155  0.063742281            3 
   61000    1.2543004   -4.9266174    37.396121  0.051087596  0.063811924            2 
   62000    1.2027961   -4.8883343    38.190089  0.051330765  0.063888927            4 
   63000    1.1997498   -4.8903862    39.069335  0.051679014  0.063984338            1 
   64000    1.2320208   -4.9297271    39.834663   0.05186805  0.064074217            3 
   65000    1.1987062   -4.8688886    40.668422  0.052139002  0.064147809            2 
   66000    1.2443999    -4.913688    41.286958  0.052129997  0.064183743            2 
   67000    1.2240252    -4.945646    41.905125  0.052120801  0.064204731            1 
   68000    1.2421702   -4.9276441     42.68826  0.052314044  0.064204023            3 
   69000    1.2537387   -4.9341716    43.559055  0.052607554   0.06423762            3 
   70000    1.2768154   -4.9329116     44.20119  0.052620464  0.064255137            2 
   71000    1.2592266   -4.8646605    45.279647  0.053145125  0.064291516            1 
   72000    1.2630222   -4.9027115    45.499802  0.052661808  0.064290943            2 
   73000    1.2577307   -4.9083898    46.294462  0.052847559  0.064267112            2 
   74000    1.2392461   -4.8694292    47.252993  0.053212829  0.064234937            2 
   75000    1.2543648   -4.8721151    47.744386  0.053049317  0.064212043            2 
   76000    1.2410989   -4.8973698    48.336746  0.053000818  0.064175059            6 
   77000    1.2466764   -4.8914716    49.291983  0.053346301  0.064145125            2 
   78000    1.2207087   -4.9000882    50.112229  0.053538706  0.064111504            2 
   79000     1.236933   -4.8796648    51.035008  0.053834396  0.064109061            2 
   80000    1.2212619    -4.949468     51.49192  0.053637417  0.064105785            4 
   81000     1.231887   -4.9367467    52.300378  0.053806973  0.064093266            2 
   82000    1.2054635   -4.8853267    53.180576    0.0540453  0.064070717            3 
   83000    1.2519287   -4.8815397    54.331671   0.05454987  0.064065524            2 
   84000    1.2164933   -4.8591728     54.94259  0.054506537  0.064061182            2 
   85000    1.2687369   -4.8859113    55.770315  0.054676779  0.064078953            2 
   86000     1.250959   -4.8990972    56.535463  0.054782425  0.064085651            2 
   87000     1.230843   -4.8918941    57.167438  0.054758082  0.064087872            2 
   88000    1.2301852   -4.8823887    57.942767  0.054870044  0.064074752            3 
   89000    1.2173264   -4.9018885    58.537572  0.054810461  0.064060566            3 
   90000    1.2241493   -4.9359821    58.924143  0.054559391  0.064034885            2 
   91000    1.2457747   -4.9164913    60.007931  0.054952317  0.063999233            3 
   92000    1.2223495   -4.9245938    60.144539  0.054478749  0.063943443            4 
   93000    1.2374169   -4.9158458    60.963967   0.05462721  0.063895551            2 
   94000    1.2573223   -4.9023074    61.803848  0.054790645  0.063839871            1 
   95000    1.2151639   -4.9424476    62.211109  0.054571148  0.063790985            3 
   96000    1.2256729   -4.8962089    62.969772   0.05466126  0.063733346            2 
   97000    1.2360283   -4.8946696    63.632996  0.054667522  0.063661513            3 
   98000     1.231586   -4.8776148    64.194734  0.054587358  0.063585328            2 
   99000    1.2271562   -4.8979554    65.129711  0.054822989  0.063508157            1 
  100000    1.2615727   -4.8736894    65.946818  0.054955681  0.063449637            2 
  101000    1.2049894   -4.9220132    66.450396  0.054827059  0.063384804            3 
  102000    1.2407684   -4.8999783    67.218042    0.0549167  0.063325724            1 
  103000    1.2469272   -4.8643068    67.903643  0.054938223  0.063253295            2 
  104000    1.2427829    -4.924036    67.989459  0.054478733  0.063174882            3 
  105000    1.2178325    -4.898134    68.760206  0.054571591  0.063085658            1 
  106000    1.2198189   -4.9201366    69.498442  0.054637139  0.063000378            3 
  107000    1.2417225   -4.9250786    70.106308  0.054599928  0.062907907            2 
  108000    1.2514104   -4.9309915    70.747308  0.054588972  0.062822332            3 
  109000    1.2109625   -4.8852618    71.721573  0.054833007  0.062740546            4 
  110000    1.2299991    -4.910874    71.911727  0.054478581  0.062663653            3 
  111000    1.2494262   -4.9342204    72.930761  0.054752823  0.062591781            5 
  112000    1.2392985   -4.9304125    73.584939  0.054750699  0.062518723            2 
  113000    1.2182548   -4.9113115     74.28609  0.054783252  0.062452017            3 
  114000    1.2407816    -4.916332    74.825099   0.05469671  0.062383325            2 
  115000    1.2427226   -4.8875089     76.32506  0.055308014  0.062324894            2 
  116000    1.2241372   -4.8928986    76.914411  0.055254605  0.062272167            2 
  117000    1.2484382   -4.9330019     77.15217  0.054951688  0.062224335            3 
  118000    1.2244113   -4.8582889    78.533591  0.055461575  0.062174473            3 
  119000    1.2399502   -4.8934829    79.411366    0.0556102  0.062142263            2 
  120000    1.2474239   -4.9224008     80.03999  0.055583326  0.062110285            1 
  121000    1.2368334   -4.8922778    81.089773  0.055846951  0.062085043            3 
  122000    1.2531939    -4.906983    81.832927  0.055896808  0.062070799            2 
  123000    1.2417653   -4.9455698    82.242073  0.055719562  0.062057936            1 
  124000    1.2554863   -4.9141692     83.72959  0.056269886  0.062054236            1 
  125000    1.2428048   -4.9164305    84.973392  0.056648928  0.062059491            4 
  126000    1.2402129   -4.8950932    86.206122  0.057014631  0.062082327            4 
  127000     1.240845   -4.8902296     86.63461  0.056846857   0.06211257            2 
  128000    1.2535504   -4.9129866    87.488021  0.056958347  0.062145485            2 
  129000    1.2325988   -4.9189161    88.160482  0.056951215  0.062177118            3 
  130000    1.2532647   -4.9384788    88.634958  0.056817281  0.062201292            3 
  131000    1.2539432   -4.9037874    89.440891  0.056896241   0.06222045            1 
  132000    1.2266091   -4.9101679    90.101454  0.056882231  0.062231296            4 
  133000    1.2368705   -4.8975296    91.297666  0.057204051  0.062246634            1 
  134000    1.2274114    -4.904311    91.939219  0.057176131   0.06226603            3 
  135000      1.22893   -4.9306153    92.875616  0.057330627  0.062290603            3 
  136000    1.2403236   -4.8913944    93.641082  0.057378114  0.062320099            3 
  137000    1.2238464    -4.956591     94.15354  0.057271009  0.062348312            1 
  138000    1.2302094   -4.9013778      95.1929  0.057483635  0.062379856            2 
  139000    1.2473803   -4.9438358    95.725875  0.057389613  0.062402278            2 
  140000    1.2433995    -4.926024    96.760826   0.05759573  0.062427111            1 
  141000    1.2253312   -4.8785576    97.529207  0.057641375  0.062451081            2 
  142000    1.2061198   -4.8680166    97.985601  0.057503287  0.062464837            2 
  143000    1.2181852   -4.8911482    98.801105  0.057576401  0.062472575            3 
  144000    1.2089703   -4.9445654    99.276468   0.05745166  0.062479993            1 
  145000    1.2142845   -4.9457756    99.103535  0.056956054  0.062474738            2 
  146000    1.2017546   -4.9525291    99.874064  0.057005744   0.06246283            1 
  147000    1.2323765   -4.9188652    100.92331   0.05721276  0.062453968            1 
  148000    1.2284124   -4.9361944    101.54934  0.057178682  0.062445807            1 
  149000    1.2470386    -4.909061    102.75493  0.057469198  0.062443477            2 
  150000    1.2312395   -4.9681373    102.87423  0.057152351  0.062438336            3 
  151000    1.2310075   -4.9187663    104.40825  0.057620448  0.062439196            1 
  152000     1.219162   -4.9148226     104.8806   0.05750033  0.062442781            5 
  153000    1.2133394   -4.9029564    105.67393  0.057556608   0.06244006            3 
  154000    1.2384922   -4.9176511    106.17118  0.057451939  0.062438685            2 
  155000     1.208609   -4.9486571     106.9514  0.057500753  0.062432097            1 
  156000    1.2123323   -4.9211326    108.03585  0.057711458  0.062423771            3 
  157000    1.2328984   -4.9235792    108.90822   0.05780691  0.062424368            2 
  158000     1.239986   -4.9186235    109.21616  0.057603458  0.062423682            1 
  159000    1.2208537   -4.9535367    110.30258  0.057810578  0.062427472            5 
  160000    1.2374158    -4.915513    110.35058  0.057474261  0.062421034            2 
  161000    1.2345389   -4.9193673    111.86511  0.057901196  0.062412201            2 
  162000    1.2341071   -4.9244543    112.22575  0.057729293  0.062401785            1 
  163000    1.2356471   -4.9331591    112.92197  0.057731069   0.06239176            3 
  164000    1.2460986   -4.9178468    113.17135  0.057505765   0.06238023            1 
  165000     1.203102   -4.9166258    114.37585  0.057765579    0.0623714            1 
  166000    1.2329457   -4.9109223       115.07  0.057766064  0.062365182            4 
  167000    1.2022333   -4.9079968    116.00001  0.057884237   0.06235793            2 
  168000    1.2042597   -4.9542552    116.90513  0.057988658  0.062353227            2 
  169000    1.2334544   -4.9336973     117.1349  0.057758828  0.062346866            3 
  170000    1.2143281   -4.9375497    117.69969  0.057695926  0.062342104            2 
  171000    1.2062359     -4.88876    119.21153  0.058095287  0.062333981            2 
  172000    1.1933307   -4.9620944    119.12974  0.057717898  0.062321442            2 
  173000    1.1834799   -4.9583654    120.06129  0.057832991  0.062310798            1 
  174000    1.2167354   -4.9677025    120.37833  0.057652455  0.062301855            2 
  175000    1.2444613   -4.9238729    121.84072  0.058019389  0.062294492            4 
  176000    1.2229162   -4.9323315    122.63154  0.058064174  0.062284452            1 
  177000    1.2199497   -4.8953537    123.35559  0.058077022  0.062277445            2 
  178000    1.2234474   -4.9153182    124.22454  0.058157558  0.062277116            3 
  179000    1.2302011   -4.9714069    125.23424   0.05830272  0.062282274            3 
  180000    1.2279133    -4.953144    126.04186  0.058352712  0.062284054            4 
  181000    1.2299847   -4.9347828    126.13839  0.058074767  0.062283805            2 
  182000    1.2167032   -4.9504842    127.55647  0.058404978  0.062283686            3 
  183000    1.2235905   -4.9519039    127.57387  0.058093746  0.062286415            2 
  184000    1.2203221   -4.9537344    128.59248  0.058239348  0.062286526            4 
  185000    1.2017931   -4.9456632    129.68293  0.058415735  0.062291035            3 
  186000    1.2468351   -4.8923027    131.41167  0.058876195  0.062298698            1 
  187000    1.1998658   -4.9759524    131.53051  0.058614307  0.062311458            2 
  188000    1.2009302   -4.9513472    132.03204  0.058524839  0.062316632            1 
  189000    1.2339993   -4.9327008     132.6716  0.058497178  0.062320646            3 
  190000    1.2105773   -4.9041828    133.78899  0.058679382  0.062330114            2 
  191000    1.2397267   -4.9573786    133.71306  0.058339032  0.062334295            2 
  192000    1.2350136   -4.9369209    135.27001  0.058710942  0.062336953            3 
  193000    1.2229131    -4.956397    135.65872  0.058574575   0.06233737            2 
  194000    1.2076411   -4.9351398    136.17194  0.058493099  0.062337666            2 
  195000    1.2341021   -4.9477358    137.51094  0.058765357  0.062340993            2 
  196000    1.2313656   -4.9276916    138.89154  0.059052527  0.062346008            3 
  197000    1.2350106   -4.9543623    138.42151  0.058553938  0.062349109            2 
  198000    1.2326634   -4.8779652    139.78532  0.058832207  0.062352254            4 
  199000    1.2150246   -4.9059878    140.45612   0.05881747  0.062352059            1 
  200000    1.2088297    -4.954819    140.05173  0.058354886  0.062346314            1 
  201000    1.2026215   -4.9116943    141.55211  0.058686611   0.06234294            3 
  202000    1.2270476   -4.9501187     142.0155  0.058587253  0.062338181            2 
  203000    1.2361297   -4.9379875    141.69949   0.05816892  0.062325737            1 
  204000       1.2131   -4.9309372    142.80229  0.058334268  0.062309098            3 
  205000    1.2438943   -4.9505986    143.55715  0.058356566  0.062294211            3 
  206000    1.2085856    -4.930571    144.65628   0.05851791  0.062278859            4 
  207000    1.2356813   -4.9462756    144.42872  0.058143607   0.06225689            1 
  208000    1.2059104   -4.9793095    144.98197  0.058085723  0.062231285            4 
  209000     1.199674   -4.9804038    144.72804  0.057706554  0.062206461            1 
  210000    1.2135969   -4.9239538    146.26882  0.058043183  0.062180508            2 
  211000    1.2259245   -4.9574923    146.42146  0.057828379  0.062155415            2 
  212000    1.2143616   -4.9442404    147.23868   0.05787684  0.062132459            2 
  213000    1.2286226   -4.9721749    147.99699  0.057901796  0.062104418            2 
  214000    1.2441892   -4.9443734    148.52401  0.057836453  0.062079615            3 
  215000    1.2393854   -4.9330611    149.19758   0.05782852  0.062056154            2 
  216000    1.2295279   -4.9717498    149.87404  0.057821775  0.062032441            2 
  217000     1.210406    -4.935705    151.10675  0.058028705   0.06200644            4 
  218000    1.2196512    -4.950466    151.45158  0.057894333  0.061977013            6 
  219000    1.2170574   -4.9168223    152.10226  0.057877572  0.061950993            3 
  220000    1.2108383    -4.966686    152.84329  0.057895186  0.061927159            2 
  221000    1.2264272   -4.9677648    153.36716  0.057830755  0.061898192            6 
  222000    1.2220787   -4.9659634    153.75098   0.05771433  0.061869635            3 
  223000    1.2194581    -4.953559    153.79255  0.057471057  0.061842337            2 
  224000    1.2599107   -4.9298869    155.99262   0.05803297  0.061813911            2 
  225000    1.2319969   -4.9599924    156.27257  0.057878731  0.061791505            2 
  226000    1.2237614   -4.9652884    156.69598  0.057778754  0.061769788            1 
  227000    1.1616952   -4.9563669    157.42314  0.057791168  0.061744319            2 
  228000    1.2022263   -4.9412383     158.7653  0.058028253  0.061722247            6 
  229000    1.2353543   -4.9188053    159.61057  0.058082451  0.061700577            2 
  230000    1.2107762   -4.9569558    160.42419  0.058124706  0.061678354            2 
  231000    1.2363986   -4.9340528     160.6897  0.057968868   0.06165868            2 
  232000    1.2263356   -4.8975663    161.64348  0.058061596  0.061635141            3 
  233000    1.2136795   -4.9409218    161.95166  0.057922624  0.061607419            2 
  234000    1.2241385   -4.9373905    161.26397  0.057430188  0.061577856            2 
  235000    1.1756052   -4.9487664    162.46527  0.057611797  0.061550167            3 
  236000    1.1982527   -4.9592472    163.43451  0.057709925   0.06152098            1 
  237000    1.1833174   -4.9304424    164.31978  0.057777699  0.061493486            2 
  238000    1.2302202   -4.9353975     164.4855  0.057592962  0.061465656            3 
  239000    1.2049848   -4.9836245    165.01331  0.057536021  0.061439441            3 
  240000    1.1952297   -4.9640143    166.59912  0.057846918  0.061412049            1 
  241000    1.2037971   -4.9039224    166.83582  0.057688733  0.061383999            2 
  242000    1.1723851   -4.9528233    167.62888  0.057723442  0.061356167            2 
  243000     1.230017   -4.9863422    167.97479  0.057604522  0.061330963            1 
  244000    1.2171277   -4.9431527    169.41382  0.057859911  0.061307544            1 
  245000     1.214116   -4.9480659    170.41359  0.057963805  0.061282806            3 
  246000    1.2229881   -4.9472274    170.72395  0.057833315  0.061256181            5 
  247000    1.1982086   -4.9487333    170.85062   0.05764191  0.061229217            2 
  248000    1.2216326   -4.9301698    171.86683  0.057750952  0.061203768            3 
  249000    1.2147934   -4.9413471    172.33734  0.057676487  0.061178653            4 
  250000    1.2385534    -4.961159    173.25422  0.057751405   0.06115461            3 
  251000    1.2234718   -4.9370066    173.66145  0.057656523  0.061129183            1 
  252000    1.2098006   -4.9037099    174.52015  0.057711689  0.061104784            2 
  253000    1.2297042   -4.9174857    175.57606  0.057831376  0.061079326            1 
  254000     1.214724   -4.9888509    174.61171  0.057287308  0.061053182            4 
  255000    1.2149502   -4.9828371     175.4645  0.057341339  0.061024879            1 
  256000    1.1958558   -4.9491588     176.3659  0.057410774  0.060996853            3 
  257000    1.2200406   -4.9268893    177.33104  0.057500336  0.060968597            2 
  258000    1.2002313   -4.9865406    178.24722  0.057573391  0.060940513            4 
  259000    1.2456543   -4.9657639    178.50208  0.057433101  0.060911079            1 
  260000    1.2219566   -4.9759536    178.15496  0.057100948  0.060880913            3 
  261000    1.1949301   -4.9626218     178.9166  0.057125352  0.060850699            1 
  262000    1.2134862   -4.9286121    180.45731  0.057397363  0.060820967            2 
  263000    1.1994406   -4.9477806    181.48054  0.057503341  0.060792302            1 
  264000    1.2120797   -4.9596329    181.26547  0.057217635  0.060763467            1 
  265000    1.2136847   -4.9247671    181.42216  0.057050993  0.060733011            2 
  266000    1.2216951   -4.9812308    182.87135  0.057290522  0.060704832            2 
  267000    1.2241331   -4.9323279    184.26398  0.057510605  0.060678181            3 
  268000    1.2283863   -5.0026844    184.50249  0.057370176  0.060653813            1 
  269000    1.2049738   -4.9513002    185.75368  0.057544511  0.060627155            5 
  270000    1.2143204   -4.9576028     185.6475  0.057298612  0.060604416            3 
  271000    1.1986345   -4.9461025    186.97956   0.05749679  0.060578895            4 
  272000    1.2181282   -4.9293287    187.87579  0.057559984  0.060553136            1 
  273000    1.1895047   -4.9593015    188.30273  0.057479465  0.060529387            2 
  274000    1.2295878   -4.9772386    189.10852  0.057514757  0.060508017            3 
  275000    1.2158524   -4.9481469    189.29777   0.05736296  0.060485316            1 
  276000    1.1989578   -4.9522811    190.54126  0.057530575  0.060464706            1 
  277000    1.1934324   -4.9509293    190.45034  0.057295531  0.060442226            5 
  278000    1.1914293   -4.9752531    191.40426  0.057375376  0.060420966            2 
  279000    1.2184632   -4.9478842    192.54728  0.057511134  0.060399305            2 
  280000    1.1838501   -4.9360276    193.16387  0.057489248  0.060377863            1 
  281000     1.200879   -5.0006947    193.67575  0.057436462  0.060357922            2 
  282000    1.1973986   -4.9875339    193.27556  0.057114528  0.060333736            2 
  283000    1.2187776   -4.9356508    194.78075  0.057355934   0.06031044            5 
  284000     1.186596   -4.9646807    195.15639  0.057264198  0.060286228            2 
  285000    1.2275426   -4.9860556    196.33354  0.057407467  0.060262629            1 
  286000    1.1931595   -5.0130838    196.49812  0.057254696  0.060240178            5 
  287000    1.2165793   -4.9568787    197.94073  0.057474079   0.06021929            1 
  288000    1.1866515   -4.9853419    198.10767  0.057322821  0.060198683            3 
  289000    1.2040049    -4.949402    199.20212  0.057440058  0.060178885            2 
  290000    1.2035223   -4.9739286    199.72431  0.057392044  0.060161293            3 
  291000    1.2090841   -4.9394175    200.36486  0.057378252  0.060142205            1 
  292000    1.1810521   -4.9855605    199.96708  0.057068232  0.060120013            2 
  293000     1.198753   -4.9548593    201.67314  0.057358685   0.06009771            3 
  294000    1.2171438   -4.9584106    202.29454  0.057339723  0.060075633            2 
  295000     1.210576   -4.9569327     202.9398  0.057327626  0.060055342            2 
  296000    1.1988301   -4.9704251    204.02317  0.057438955  0.060036553            3 
  297000    1.1970109   -4.9695692    204.74097   0.05744696  0.060017401            1 
  298000    1.2202743   -5.0046416    204.22147  0.057108913  0.059995931            4 
  299000    1.2186108   -4.9494083    204.91276   0.05711058  0.059973366            2 
  300000    1.2036419   -4.9506194    205.81364  0.057170454  0.059949517            4 
  301000    1.2135191   -4.9472886    206.51049  0.057173446  0.059924688            2 
  302000    1.2053431   -4.9775091    206.56023  0.056997855  0.059899097            2 
  303000    1.1939319   -4.9519231    206.94377  0.056915228  0.059871775            2 
  304000    1.1885937   -4.9954241    207.48168  0.056875461   0.05984709            2 
  305000    1.2135542   -4.9692806    209.42765   0.05722067  0.059822185            4 
  306000    1.2002409   -4.9486122     210.4563  0.057313806   0.05979885            2 
  307000    1.1775057   -4.9547414    210.81867  0.057225481  0.059775979            4 
  308000     1.204092   -4.9447995    211.57176   0.05724344  0.059754549            1 
  309000    1.1878267   -4.9810646    212.44309  0.057293175  0.059733208            5 
  310000    1.1939177   -4.9669827     212.5835  0.057146102  0.059712708            1 
  311000    1.1945541   -5.0243425    213.09768  0.057100129  0.059690397            2 
  312000    1.2176606   -4.9269519    214.71645  0.057349478  0.059672331            2 
  313000    1.2164567   -4.9998236    214.45421  0.057096435   0.05965556            3 
  314000    1.2340384    -4.970762    216.85715  0.057552322   0.05964225            3 
  315000     1.187728   -4.9513979    216.69701  0.057327252  0.059628772            3 
  316000    1.1867118   -4.9657328    217.27624  0.057298587  0.059614415            2 
  317000    1.1946243   -4.9646219    218.59513  0.057464546  0.059600712            4 
  318000    1.1814565   -4.9855935    218.15319  0.057168025  0.059587586            2 
  319000    1.1837972   -4.9870566    219.14432  0.057247732  0.059572417            3 
  320000    1.1996927    -4.970857     219.9392  0.057275833  0.059557698            2 
  321000    1.2013345   -4.9836202    221.88983  0.057603799  0.059544336            2 
  322000    1.1991639   -4.9528662    221.04075  0.057205164  0.059530398            5 
  323000    1.2014764   -4.9568241    222.77819  0.057476314  0.059515834            2 
  324000    1.2000241   -4.9688673    222.63042  0.057260909  0.059501627            2 
  325000    1.1820417   -4.9770254    222.11581  0.056952771  0.059485252            4 
  326000    1.1827196   -4.9641543     223.8647  0.057225127  0.059467359            4 
  327000    1.2014695   -4.9325316    225.01616  0.057343569  0.059449245            2 
  328000     1.168033   -4.9773057    224.49039  0.057035159  0.059433015            2 
  329000    1.1878317   -4.9939397    225.78557   0.05718986  0.059415397            3 
  330000    1.1627557   -5.0107962    225.94469  0.057056739  0.059396415            2 
  331000    1.1904854   -4.9722973    225.49177  0.056770334  0.059377366            3 
  332000    1.2065016   -4.9615922     226.8994  0.056952661   0.05935758            3 
  333000     1.187065   -4.9628362    227.96481  0.057048251  0.059336534            2 
  334000    1.2001946   -5.0280553    227.52285  0.056767179  0.059317284            3 
  335000    1.1838605   -4.9774581    228.45751  0.056830226  0.059298877            2 
  336000    1.1962915   -4.9917798    230.02412  0.057049633  0.059278087            1 
  337000    1.2007975   -4.9812524    230.53039  0.057005536  0.059259964            4 
  338000    1.1943355   -4.9351601    231.13981  0.056987133  0.059241102            3 
  339000    1.2218441   -4.9991627    231.23817  0.056843209  0.059223751            3 
  340000    1.1842834   -4.9649119       232.86   0.05707353  0.059205807            5 
  341000    1.2136955   -5.0076088    232.68651  0.056863762  0.059188211            2 
  342000    1.1968875   -4.9844616    233.97135  0.057010562  0.059172415            3 
  343000    1.2115656   -4.9877518    235.41841   0.05719592  0.059156603            1 
  344000    1.2015835   -4.9440978    236.04689  0.057181901   0.05914066            1 
  345000    1.1762602   -4.9703888    235.93666  0.056989532  0.059123416            3 
  346000    1.1724141   -4.9855227    236.68766  0.057005699  0.059105708            2 
  347000    1.1872362   -4.9310501    237.08633  0.056937158  0.059089369            3 
  348000    1.1583274   -4.9657532    237.86555  0.056960141  0.059070764            3 
  349000    1.1637209   -4.9841743    238.46643  0.056940408  0.059054375            4 
  350000    1.1723586   -4.9989479    239.22472  0.056958266  0.059038982            2 
  351000    1.2017735   -5.0323214    239.90028  0.056956383  0.059021236            2 
  352000    1.2025688    -5.007459    240.11239  0.056844789  0.059004357            1 
  353000    1.1848418   -4.9895623    241.73947  0.057067863  0.058989335            2 
  354000    1.2209051   -4.9840244    241.61579  0.056877539  0.058975082            1 
  355000    1.1892333   -5.0010324    242.10168   0.05683138  0.058960794            8 
  356000    1.2069461   -5.0195915    243.88563  0.057089333  0.058949179            2 
  357000    1.1927142   -4.9984526    245.74047  0.057362388  0.058936234            2 
  358000    1.2106072   -4.9585209    246.70367  0.057426366  0.058924022            4 
  359000    1.1767177   -4.9912165    245.85768  0.057070027  0.058914029            3 
  360000    1.1681753    -4.959124    247.06331   0.05719058  0.058902058            3 
  361000    1.1944226   -4.9934268    248.00177  0.057248792  0.058890867            5 
  362000    1.1904154    -4.983961    248.28159  0.057155063  0.058880422            5 
  363000    1.2072795   -5.0061563    247.51333  0.056821241   0.05886792            2 
  364000     1.203389   -4.9855756    249.62924  0.057149552  0.058855035            3 
  365000    1.1675032   -4.9391753    250.66379  0.057229176  0.058844598            2 
  366000    1.2093195   -4.9680614    251.52245  0.057268318  0.058834231            3 
  367000    1.2167739     -4.99799    252.02422  0.057226208  0.058822492            2 
  368000    1.1762505   -5.0125573    252.32971   0.05713988  0.058812056            2 
  369000    1.1965764   -5.0056056    252.22451  0.056961271  0.058799276            3 
  370000    1.1642502   -4.9993907     253.4995  0.057094483  0.058787778            1 
  371000    1.1784191   -4.9858025    254.31616  0.057124025  0.058777061            2 
  372000    1.2126728   -4.9766808    254.69326  0.057054942  0.058767365            2 
  373000    1.2247981   -5.0383094    255.42272  0.057064952  0.058757676            2 
  374000    1.1908507   -4.9896478    255.45107  0.056918688   0.05874541            1 
  375000      1.18909   -4.9686388    257.72038  0.057271195  0.058733234            2 
  376000    1.2031352   -5.0182416    256.41833  0.056830304  0.058721382            2 
  377000    1.1988535   -4.9985231     258.1169  0.057055017  0.058709404            3 
  378000    1.1940925   -4.9966614    258.34213  0.056953731  0.058696412            2 
  379000    1.2066583   -4.9651532    260.16011   0.05720319  0.058685968            2 
  380000    1.1721869   -5.0067947    260.96775  0.057229769   0.05867589            1 
  381000    1.1846888   -4.9870655    261.13888  0.057116989  0.058664573            3 
  382000    1.1986605   -5.0133966    261.85426  0.057123529  0.058654373            4 
  383000    1.2009306   -4.9687864     262.9806  0.057219451  0.058644931            1 
  384000    1.1910272   -5.0172233    263.27782  0.057134944  0.058635388            2 
  385000    1.2003027   -5.0076651    264.78032  0.057311757  0.058627021            3 
  386000    1.1771885   -4.9854969    265.15842  0.057244909  0.058619069            3 
  387000    1.1888831   -5.0263292    265.87744  0.057251818  0.058611612            2 
  388000    1.2250736   -4.9952023    265.78419  0.057084234  0.058603436            3 
  389000    1.2087998   -5.0201778    265.61019  0.056900212  0.058593712            5 
  390000    1.1736861   -5.0019914    267.08896   0.05707029  0.058583781            2 
  391000    1.1583158   -5.0183433    269.13862  0.057361173  0.058574866            3 
  392000    1.1825545   -5.0011181    268.41883  0.057061827  0.058565426            3 
  393000    1.1879908   -5.0096648    267.23784  0.056666208  0.058554209            3 
  394000    1.1819937   -4.9881702    269.61814  0.057025834  0.058544277            5 
  395000    1.1830921   -5.0069659    269.42408  0.056840523  0.058533414            3 
  396000    1.1736406   -4.9791803    271.49603  0.057133004  0.058521955            3 
  397000    1.1964532   -4.9998898    270.80773  0.056844611   0.05851068            4 
  398000    1.2301301    -5.022023    271.29424  0.056803652  0.058499454            3 
  399000    1.1826288   -5.0093773    272.04457  0.056817997  0.058487835            2 
  400000    1.1796161   -4.9779002    273.98638  0.057080496  0.058476839            1 
  401000    1.2155544   -4.9739975    273.74813  0.056888638  0.058465613            3 
  402000    1.1860599   -5.0297459    274.31866  0.056865394  0.058453917            7 
  403000    1.1916257   -5.0133233    275.39223  0.056946284  0.058442554            2 
  404000    1.1766113   -4.9808077    275.35979  0.056798636  0.058429448            2 
  405000    1.1633105   -4.9929437    276.22285  0.056835976  0.058416971            3 
  406000    1.1758706    -4.966219    276.92081  0.056839246  0.058404832            2 
  407000    1.2065583   -5.0239977    276.70797  0.056656013  0.058391548            3 
  408000    1.1962402   -4.9813938    278.08406  0.056798214  0.058378449            3 
  409000    1.1931575   -4.9841639    280.15021  0.057080321  0.058364829            3 
  410000     1.175143   -5.0138552    279.30193  0.056768685  0.058351504            3 
  411000    1.1875698   -4.9611954    280.45243  0.056863835   0.05833915            3 
  412000    1.1870894   -4.9901393    280.21665  0.056678126  0.058325634            2 
  413000     1.180784   -5.0023047     280.9705  0.056692999  0.058312275            1 
  414000    1.1833686    -5.023324     280.6801  0.056497604  0.058299937            2 
  415000    1.1867909   -4.9643324    282.09835  0.056646254  0.058286566            3 
  416000    1.1728537   -5.0548816    281.56192  0.056402628  0.058271399            2 
  417000    1.1415727    -4.956547    284.15643  0.056785858  0.058257329            2 
  418000    1.2065774   -5.0002233    284.04008   0.05662681  0.058244117            3 
  419000    1.1859951   -5.0016127    284.18133  0.056519755  0.058229606            3 
  420000    1.1667551   -5.0240804     284.1119  0.056371409  0.058214452            3 
  421000    1.1467764   -4.9955798    285.38984  0.056490467  0.058200365            2 
  422000    1.1825408   -5.0255584    285.39492  0.056357607  0.058185277            2 
  423000    1.1669499   -5.0136767    285.64972   0.05627457  0.058169727            3 
  424000    1.2051368   -5.0135338    287.54004  0.056513372  0.058154478            2 
  425000    1.1925344   -5.0025137    288.78739  0.056624979  0.058138604            2 
  426000    1.1632093   -5.0023701    289.25488  0.056583506  0.058124604            4 
  427000    1.1845366   -5.0037792    289.07354    0.0564156  0.058108988            2 
  428000     1.153589   -4.9792749    291.15887  0.056689811  0.058096259            2 
  429000    1.1728567   -5.0346677    289.68219  0.056270822  0.058082057            2 
  430000    1.1797798   -5.0231608    291.30096  0.056453675  0.058068243            2 
  431000     1.165261   -5.0388925    291.92296  0.056442953  0.058054722            2 
  432000    1.1859814   -4.9846466    293.34313  0.056586252  0.058042947            6 
  433000    1.1791802   -5.0069891    294.21267  0.056622915  0.058031208            2 
  434000    1.1863452    -5.042707    293.97857  0.056447499  0.058019015            3 
  435000    1.1749468   -5.0022005    295.69078  0.056645744  0.058007561            1 
  436000    1.2169165   -4.9944769    294.47896  0.056284205   0.05799391            4 
  437000    1.1948778   -5.0405036    294.76322  0.056209615  0.057978521            3 
  438000    1.1841082   -4.9931891     296.9992  0.056506697  0.057962491            2 
  439000    1.1575173   -4.9988739    296.71148  0.056323364  0.057947495            1 
  440000    1.1708375   -5.0321411    295.99879  0.056060376   0.05793185            3 
  441000    1.1908823   -4.9951562    298.66527  0.056437126  0.057917756            3 
  442000    1.1634534   -5.0196307      298.325  0.056245287  0.057904529            2 
  443000    1.1607447   -5.0259091    300.16399  0.056464256  0.057891087            4 
  444000    1.2068943   -5.0124611    301.06384  0.056505976   0.05787902            6 
  445000    1.1888426   -5.0454752    301.96781  0.056548278  0.057867423            6 
  446000    1.1784812   -5.0119622    301.91898  0.056412365  0.057855289            1 
  447000    1.1720549   -5.0076614    303.08787  0.056504077   0.05784253            3 
  448000    1.1810589   -4.9723679    304.71561  0.056680731  0.057830821            2 
  449000    1.1786195   -5.0229445    304.00135  0.056421928  0.057818047            2 
  450000    1.1878194     -5.01959    305.49085  0.056572379  0.057805651            3 
  451000     1.198603    -5.026534    306.70048   0.05667045  0.057794055            3 
  452000    1.1640631     -5.04446    306.12221   0.05643846  0.057783093            3 
  453000    1.1604396   -5.0071183    306.36665  0.056358839  0.057772329            3 
  454000    1.1809715   -4.9910449     308.7464  0.056671512  0.057761852            2 
  455000    1.1869239   -5.0310744    309.08544  0.056609054  0.057751463            2 
  456000    1.1863002   -5.0263817    308.89771  0.056450604  0.057740326            1 
  457000    1.1660725    -5.015525    309.18505  0.056379477  0.057729132            3 
  458000     1.164509   -5.0273483    311.09549  0.056603983  0.057719389            2 
  459000    1.1708372   -5.0367673    310.86612   0.05643902   0.05770869            3 
  460000    1.1493068   -5.0322756    313.28715  0.056754919  0.057699608            1 
  461000    1.1648287   -4.9989075    314.03167  0.056766391   0.05769171            3 
  462000    1.1752498   -5.0234712    313.74301  0.056591451  0.057684397            3 
  463000    1.1391443   -5.0072299    314.19504  0.056550584  0.057676241            2 
  464000    1.1758669     -5.05283    314.20872  0.056431165  0.057668242            2 
  465000    1.1940056   -4.9799011    316.49849   0.05672016  0.057660045            4 
  466000    1.1807242   -4.9881435    317.00149  0.056688393  0.057652028            2 
  467000    1.1869377   -5.0178778    317.42431  0.056642454  0.057643742            2 
  468000    1.1759772   -4.9753216    319.62073  0.056912522  0.057636536            3 
  469000    1.1563696   -5.0158751    318.85514  0.056655142  0.057630189            3 
  470000    1.1797434    -5.020823    320.05016  0.056746483  0.057623027            4 
  471000    1.1689608    -5.041596    318.92948  0.056427721  0.057615151            1 
  472000    1.1734656   -5.0526007    320.21681  0.056535453  0.057607685            3 
  473000    1.1755436   -5.0081821    321.38849  0.056622355  0.057601531            1 
  474000     1.161555   -5.0304206    321.33611   0.05649369   0.05759427            2 
  475000    1.1836565   -5.0303776    323.45865  0.056747132  0.057587331            3 
  476000     1.193334   -5.0723269    321.79181  0.056336101  0.057580131            3 
  477000    1.1787141   -5.0460935    322.98257  0.056426025  0.057573479            1 
  478000    1.1908956   -5.0412415    324.62785  0.056594814  0.057566308            2 
  479000    1.1777053   -4.9880953    325.62678  0.056650448  0.057561745            1 
  480000     1.155633   -5.0165616    325.75019  0.056553852   0.05755494            2 
  481000    1.1675423   -4.9866589    327.74929  0.056782622  0.057548631            2 
  482000    1.1980889   -5.0192444    327.43434  0.056610362  0.057542975            2 
  483000      1.16923   -5.0048993    327.35087  0.056478755   0.05753632            3 
  484000    1.1891157   -5.0434371    328.27479  0.056521141  0.057529001            2 
  485000     1.194577   -5.0629837    328.85993  0.056505143  0.057521542            1 
  486000    1.1729309   -5.0087147    329.86246  0.056560778  0.057514049            9 
  487000    1.1819196   -5.0534947    330.44768  0.056544778    0.0575067            5 
  488000    1.1856852   -5.0489128    330.78659  0.056486781  0.057499282            4 
  489000    1.1681577   -5.0213865     332.6875  0.056695212  0.057492184            2 
  490000     1.182147   -5.0682546     331.9213    0.0564492  0.057484807            3 
  491000    1.1525302   -5.0337739     332.9865  0.056515021  0.057476042            1 
  492000    1.1750711   -5.0480082     332.3288  0.056288753  0.057468173            4 
  493000     1.181727   -5.0102037    333.09639  0.056304326  0.057459516            3 
  494000    1.1688781   -4.9790627    335.81254  0.056648539  0.057450169            2 
  495000    1.1484065   -5.0755358    333.94366  0.056219472  0.057440473            2 
  496000    1.1738061   -5.0034118    335.63699  0.056390623  0.057430268            1 
  497000     1.161992   -5.0066025    335.49127  0.056252729   0.05741908            2 
  498000    1.1711616   -5.0170439     336.8886  0.056373594  0.057409848            2 
  499000    1.1734537   -5.0261611    336.73717  0.056235332  0.057399495            3 
  500000    1.1775622   -5.0298203    337.17524  0.056195873   0.05739057            2 
  501000    1.1951221   -5.0453417      337.966  0.056215236  0.057379964            3 
  502000    1.1656581   -5.0269605    337.82086   0.05607916  0.057369726            2 
  503000    1.1355781   -5.0191293    339.84931  0.056303729  0.057359158            1 
  504000    1.1691621   -5.0420673    339.80238  0.056184256  0.057350102            2 
  505000    1.1779618   -5.0262737    339.63331  0.056045101  0.057338864            3 
  506000    1.1678703   -5.0497978    341.09196  0.056174566  0.057328414            3 
  507000    1.1611913   -5.0289977    342.36233  0.056272573  0.057317498            6 
  508000    1.2108068   -5.0184625      342.547  0.056192093  0.057307389            2 
  509000    1.1522109   -5.0260715    342.15154  0.056016952   0.05729737            3 
  510000    1.2034322    -5.022997    344.43814  0.056280742  0.057287485            2 
  511000    1.1668271   -5.0729282    343.94742  0.056090577  0.057278572            2 
  512000    1.1708286   -5.0354369    344.02423  0.055993528  0.057267235            5 
  513000    1.1808073   -4.9871224    346.85548  0.056344295  0.057257218            4 
  514000    1.1544716    -5.011499    346.27295  0.056140231  0.057247579            2 
  515000    1.1867803   -5.0404925    346.77789  0.056112927  0.057236768            2 
  516000    1.1707833   -5.0161075    347.01782   0.05604293  0.057225314            2 
  517000     1.162061   -5.0286099    347.00559  0.055932558  0.057214326            2 
  518000    1.1661688   -4.9975654    349.59286  0.056240807  0.057202736            3 
  519000     1.162401   -5.0152588    347.55178  0.055804717  0.057190843            4 
  520000    1.1683007   -5.0012211    348.48555  0.055847043  0.057178079            4 
  521000    1.1656512   -5.0390272    350.55793  0.056071326  0.057166613            1 
  522000    1.1647031   -5.0629922    350.42798  0.055943164  0.057154455            3 
  523000    1.1583482   -5.0157895    351.15673  0.055952315  0.057143525            2 
  524000    1.1685409    -5.045482    350.83115  0.055793757   0.05713249            4 
  525000    1.1507968   -5.0336802    351.79316  0.055840184  0.057120436            2 
  526000    1.1557629   -5.0714248    351.80876  0.055736496  0.057107816            4 
  527000    1.1440475   -5.0445659    354.29435  0.056023774  0.057095285            5 
  528000    1.1365251   -5.0111921    355.66197  0.056133517  0.057083872            2 
  529000    1.1733827   -5.0342383    355.29298  0.055969278  0.057072819            3 
  530000    1.1566023   -5.0657449    354.47322  0.055734783  0.057061526            3 
  531000    1.1670401   -5.0410432    357.68699  0.056134179  0.057051449            3 
  532000    1.1699886   -5.0264765    359.26658  0.056276094  0.057041037            3 
  533000    1.1727074   -5.0195886    359.05431  0.056137321  0.057030906            1 
  534000    1.1546492   -5.0530508    359.59103  0.056115953  0.057020874            2 
  535000    1.1812864   -5.0232322    358.73806  0.055878203  0.057010948            2 
  536000    1.1526482    -5.037322    360.27647  0.056013132  0.057000336            3 
  537000    1.1736793   -5.0345216     359.7357  0.055824907  0.056988302            3 
  538000    1.1664073   -5.0997536    359.15674  0.055631466  0.056975778            2 
  539000    1.1731394   -5.0578139     359.7472  0.055619543   0.05696306            2 
  540000    1.1408352   -5.0658389    360.72202  0.055666978  0.056949833            1 
  541000    1.1767057   -5.0453873    361.73679  0.055720393  0.056937012            2 
  542000    1.1645991   -5.0556239    362.24547  0.055695798  0.056923622            3 
  543000    1.1518107   -4.9760226    362.86907  0.055688931  0.056910813            2 
  544000    1.1462119   -5.0399267    361.98619  0.055451315  0.056898946            2 
  545000    1.1601874   -5.0773529    363.66733  0.055606625  0.056886109            4 
  546000    1.1708556   -5.0052925    365.02368  0.055711794  0.056873303            2 
  547000    1.1286606   -5.0121835    366.26655  0.055799292  0.056861677            3 
  548000    1.1744641   -5.0327086    365.58374  0.055593634  0.056849206            1 
  549000    1.1723749   -5.0232736    368.28409  0.055902261  0.056837134            2 
  550000    1.1881367   -5.0092891    367.32074  0.055654657  0.056824704            2 
  551000    1.1378975   -5.0846587    366.73203  0.055464615  0.056812168            2 
  552000    1.1757485   -5.0578215    366.53411  0.055334256  0.056798265            1 
  553000     1.173615   -5.0474404    367.08365  0.055317006  0.056783845            5 
  554000    1.1722384   -5.0441846    368.22537  0.055388894  0.056768884            3 
  555000    1.1740966   -5.0849585    368.70962  0.055361805   0.05675523            1 
  556000    1.1547596   -5.0198264    370.37656  0.055512074  0.056741519            2 
  557000    1.1790619   -5.0485464    370.26231  0.055395319  0.056728776            2 
  558000    1.1800036     -5.04172    370.79727  0.055375937  0.056716469            2 
  559000    1.1916786   -5.0201037      372.188  0.055484197  0.056702608            3 
  560000    1.2114629   -5.0565149    371.21056  0.055239667  0.056688325            4 
  561000    1.1548797   -5.0588865    373.79606  0.055525261   0.05667542            1 
  562000    1.1828309   -5.0850289    373.83682  0.055432506  0.056663266            2 
  563000    1.1691503   -5.0612971    373.76922   0.05532404  0.056651586            3 
  564000    1.1594264   -5.0667203     376.5323  0.055634205  0.056639319            3 
  565000    1.1371996   -5.0353696    376.77025  0.055570833   0.05662819            2 
  566000    1.1544138   -5.0430725    377.03524  0.055511666   0.05661586            2 
  567000    1.1669452   -5.0270703    376.31985  0.055308619  0.056603753            2 
  568000    1.1591308   -5.0432153    376.83231   0.05528643  0.056590871            4 
  569000    1.1889458   -5.0581735    379.58529  0.055592457  0.056578039            2 
  570000    1.1640965   -5.0211831    379.29367  0.055452291  0.056564928            4 
  571000     1.170381   -5.0271615    381.20333  0.055633878  0.056552398            2 
  572000    1.1298484   -5.0583585    380.60655  0.055449673  0.056539611            2 
  573000    1.1802423   -5.0657995     380.3571  0.055316623  0.056526422            3 
  574000    1.1859934   -5.0837923    379.82454  0.055142936  0.056512693            3 
  575000    1.1688939   -5.0802449     381.2177  0.055248942  0.056498276            6 
  576000     1.151518   -5.0283301    382.46613  0.055333642  0.056484847            2 
  577000    1.1919068   -5.0721523    382.96323  0.055309536   0.05647127            2 
  578000    1.1516945   -5.0449761    382.95834   0.05521314  0.056457071            4 
  579000    1.1771062    -5.100667    382.66787  0.055075975  0.056442917            3 
  580000    1.1692739   -5.0690701    384.92572   0.05530542  0.056429731            3 
  581000    1.1465129   -5.0691055    385.06563  0.055230297  0.056416685            3 
  582000    1.1444936   -5.0780492    385.89558  0.055254236  0.056403073            2 
  583000    1.1269204   -5.0965934    385.35222  0.055081792  0.056389918            2 
  584000    1.1477111   -5.0544663    386.03896  0.055085468   0.05637664            8 
  585000    1.1503536    -5.037599    388.05258  0.055278145   0.05636387            2 
  586000    1.1602469   -5.0436547    389.92265  0.055449751  0.056351339            1 
  587000    1.1642516   -5.0273002    390.33136   0.05541331  0.056338274            1 
  588000    1.1625683   -5.0572475    390.19513  0.055299763  0.056325415            1 
  589000    1.1571604   -5.0125901    390.68515  0.055275205  0.056313366            1 
  590000      1.18371   -5.0083094    393.46081   0.05557356    0.0563016            5 
  591000     1.170987   -5.0633055    391.07011  0.055142429  0.056288129            2 
  592000    1.1624068    -5.086001    390.18278  0.054924378  0.056274312            3 
  593000      1.17307   -5.0069854    392.19438  0.055114443  0.056260912            2 
  594000    1.1508132   -5.0592906    391.73111  0.054956665  0.056247767            1 
  595000    1.1718649   -5.0750451    391.81096  0.054875485  0.056233447            7 
  596000    1.1578275   -5.0567223    392.49982  0.054879728  0.056219364            1 
  597000    1.1461225   -5.0253907    396.06619  0.055285621  0.056205604            2 
  598000    1.1674336   -5.0552525     394.4999  0.054974903  0.056192796            4 
  599000    1.1718397   -5.0346836    395.88748  0.055076166  0.056179539            1 
  600000    1.1402444   -5.0102342     396.3015  0.055041875  0.056166646            3 
  601000     1.172939   -5.0851887     395.1723  0.054793718  0.056154261            4 
  602000     1.166623   -5.0615184    397.07387  0.054965929  0.056141059            7 
  603000    1.1237076   -5.1060111    396.44788  0.054788265  0.056128136            4 
  604000    1.1563739   -5.0832362    398.75872  0.055016379  0.056114766            3 
  605000    1.1732576   -5.0546985    399.18584  0.054984276  0.056101328            3 
  606000     1.149679   -5.0454479    399.20719  0.054896479  0.056088311            1 
  607000    1.1567785    -5.075548    400.25331  0.054949658  0.056075399            4 
  608000    1.1354568   -5.0748746     400.6589  0.054914872  0.056062229            5 
  609000    1.1678315   -5.0876711    401.29109  0.054911206   0.05604947            3 
  610000    1.1246821    -5.075094    401.99421  0.054917242  0.056036442            4 
  611000    1.1296598     -5.07269    403.10221  0.054978479  0.056024097            3 
  612000    1.1472164    -5.052652     404.2828  0.055049401  0.056011196            3 
  613000    1.1745289     -5.09953    403.46241   0.05484807  0.055998128            2 
  614000    1.1353258    -5.042674    406.36304  0.055152422  0.055985468            2 
  615000    1.1638919    -5.083505      406.365  0.055063008  0.055973486            1 
  616000    1.1661106   -5.0605233    406.85833  0.055040358  0.055961127            2 
  617000    1.1826151   -5.0585529    407.70024  0.055064863  0.055949452            2 
  618000    1.1590909   -5.0389573    408.41655   0.05507235  0.055936712            3 
  619000    1.1568237   -5.0433005    408.00651  0.054928178   0.05592456            4 
  620000     1.145139    -5.053813    409.60477  0.055054404  0.055912326            1 
  621000    1.1310892   -5.0801805    409.33756  0.054929893  0.055899672            4 
  622000    1.1748598   -5.0578996    408.89829  0.054782729  0.055886854            4 
  623000    1.1657556   -5.0254572    411.24546  0.055008756  0.055873933            3 
  624000     1.132578   -5.1123332    408.02428  0.054490422  0.055860521            3 
  625000    1.1506526   -5.0597709    411.15846  0.054821127  0.055847335            2 
  626000    1.1604378   -5.0469954    412.25265  0.054879213  0.055834804            2 
  627000    1.1533582    -5.084783    410.52998   0.05456273   0.05582206            4 
  628000    1.1694242   -5.0452606    412.06064  0.054678959  0.055809041            3 
  629000    1.1407641   -5.0756099    412.50412  0.054650784  0.055796872            3 
  630000    1.1231798   -5.0674563    415.07628   0.05490427  0.055784451            1 
  631000    1.1403654   -5.0751451    415.88352  0.054923867  0.055772387            6 
  632000    1.1559849   -5.0796439    415.26898  0.054755931  0.055761878            2 
  633000    1.1479126   -5.0789592    416.04272  0.054771291  0.055749296            2 
  634000    1.1710791   -5.0826021    417.08103  0.054821377  0.055738287            4 
  635000    1.1716514   -5.0655888    417.53708  0.054794893  0.055725931            1 
  636000    1.1648038   -5.0514533    418.08474  0.054780495  0.055714926            3 
  637000    1.1442627   -5.1032572    418.47768  0.054745903  0.055703592            3 
  638000    1.1343475   -5.0326028    420.21763   0.05488736  0.055692894            2 
  639000    1.1680635   -5.0733374    419.78021  0.054744419  0.055681498            3 
  640000    1.1292589   -5.0724117    421.72119  0.054911614  0.055669829            2 
  641000    1.1803711   -5.0621824    422.51316  0.054928907  0.055658562            2 
  642000    1.1556309    -5.070044    421.10408  0.054660446  0.055647718            3 
  643000    1.1356097   -5.0880201    422.00245  0.054691868    0.0556363            4 
  644000    1.1257503     -5.05877    424.69127  0.054954875  0.055625147            2 
  645000    1.1655427     -5.06518    424.03335  0.054784671  0.055614185            2 
  646000    1.1639754   -5.0677814    424.84715  0.054804844  0.055602025            2 
  647000    1.1596936   -5.0955901    423.58826  0.054557993  0.055589972            2 
  648000     1.150001   -5.0534715    424.56081  0.054598869  0.055577701            2 
  649000    1.1403074    -5.112216    424.07921  0.054452903  0.055564566            2 
  650000    1.1658482   -5.1223875    424.81548  0.054463524  0.055552215            2 
  651000     1.129889   -5.0663793    426.42165  0.054585465  0.055540149            4 
  652000    1.1351905   -5.0897488    426.24489  0.054479153  0.055528704            3 
  653000    1.1622634   -5.0481959    426.12043   0.05437984   0.05551697            2 
  654000    1.1674488   -5.0539043    428.51253  0.054601495  0.055505147            2 
  655000    1.1591932   -5.0621189    429.36489  0.054626576  0.055492785            1 
  656000    1.1539034   -5.0492152    430.02242  0.054626831   0.05548056            2 
  657000    1.1356758   -5.0954049    428.51235   0.05435215  0.055467911            4 
  658000    1.1456492   -5.0663049    430.50008  0.054521286  0.055455533            3 
  659000    1.1299604   -5.1183351    431.68783  0.054588749  0.055443433            2 
  660000    1.1541256   -5.1075521    429.24412   0.05419749  0.055430883            4 
  661000    1.1396118   -5.0767152    431.75502   0.05443205  0.055418124            4 
  662000    1.1547629     -5.06283    433.02282  0.054509418  0.055406054            5 
  663000    1.1629725   -5.0756578    433.93272  0.054541568  0.055394261            6 
  664000    1.1489595   -5.0868005     434.4097  0.054519289  0.055382249            2 
  665000    1.1362326   -5.1010661    434.25876  0.054418391  0.055369658            4 
  666000    1.1389713   -5.0476219    436.75417   0.05464892  0.055357661            4 
  667000     1.183966   -5.0997589    434.02349  0.054225823  0.055345291            1 
  668000    1.1561755   -5.0705005    435.33501   0.05430826  0.055333003            1 
  669000    1.1578136    -5.095028    434.94452  0.054178441  0.055320188            4 
  670000    1.1361944   -5.0456231    436.69989  0.054315907   0.05530666            3 
  671000    1.1507786    -5.098371    436.65985  0.054229986  0.055293568            4 
  672000    1.1231386   -5.1014016    439.90501  0.054551712  0.055280864            5 
  673000    1.1537326   -5.0487424    439.02338  0.054361488  0.055268892            3 
  674000    1.1522139   -5.0784213    439.54574  0.054345418   0.05525696            2 
  675000    1.1586119   -5.0708888    441.03132  0.054448311   0.05524543            4 
  676000     1.177787   -5.0800935    440.57143  0.054311073   0.05523397            3 
  677000    1.1351486   -5.0697448    440.68618  0.054244975  0.055222797            2 
  678000    1.1426055   -5.1276268    441.61404  0.054279012  0.055211336            4 
  679000    1.1278116   -5.1034986    440.44118  0.054055127  0.055199253            3 
  680000    1.1506006   -5.1052495    442.02706  0.054169982  0.055187044            2 
  681000    1.1494261   -5.0900082    442.12858  0.054102861  0.055174963            3 
  682000    1.1311231   -5.0536015    446.99562  0.054618233  0.055163568            1 
  683000    1.1366495   -5.0694315    444.79227  0.054269432  0.055151375            2 
  684000    1.1498792   -5.0884216    443.81234  0.054070704  0.055138821            3 
  685000    1.1657301   -5.1057123    444.94062  0.054129029  0.055125797            2 
  686000    1.1429504   -5.0417456    447.44564  0.054354426  0.055113765            4 
  687000    1.1561107   -5.0846332    447.63055  0.054297738  0.055101147            2 
  688000    1.1476028   -5.1163813    446.16519  0.054041326  0.055087979            5 
  689000    1.1586829   -5.0969213    446.17482  0.053964057  0.055075369            2 
  690000    1.1660825   -5.0992021    449.29754  0.054262988  0.055062505            4 
  691000    1.1496608   -5.0951468    448.04839  0.054033814  0.055049808            2 
  692000    1.1443429    -5.064434    449.89722  0.054178374  0.055037562            2 
  693000    1.1306119   -5.0778376    451.26906  0.054265159   0.05502526            3 
  694000    1.1588861    -5.077969    450.04078  0.054039479  0.055012356            4 
  695000     1.118209   -5.0647832     450.7801  0.054050371  0.054999495            3 
  696000    1.1692299   -5.0901624    453.29903   0.05427431    0.0549869            1 
  697000    1.1526538   -5.0700682    452.11951  0.054055417  0.054973512            4 
  698000    1.1475399   -5.0841426    452.60043  0.054035391  0.054960196            2 
  699000    1.1569039   -5.1237569    450.58207  0.053717462  0.054946179            8 
  700000    1.1346836   -5.0860091    452.36056  0.053852447  0.054932315            7 
  701000    1.1184103   -5.1141081    452.99742  0.053851334  0.054919466            3 
  702000    1.1202557    -5.098121    453.89403  0.053881058  0.054905944            1 
  703000     1.153582    -5.106558    454.15831  0.053835741  0.054892789            1 
  704000    1.1473115   -5.0866029    456.08694  0.053987563  0.054879256            1 
  705000    1.1425183   -5.0921742    457.29146  0.054053364  0.054866873            3 
  706000    1.1272597   -5.0977837    457.42336   0.05399237  0.054853858            3 
  707000    1.1191712   -5.1109747    456.07474  0.053757041  0.054841521            7 
  708000    1.1542985   -5.1006646    457.56772  0.053856841  0.054828584            3 
  709000    1.1279991   -5.1196264    458.15379  0.053849763  0.054814588            3 
  710000    1.1430298   -5.0977123    457.52676  0.053700324  0.054800599            3 
  711000    1.1224644   -5.0681641    457.57273  0.053630184   0.05478588            2 
  712000    1.1233031   -5.0559381    460.17006  0.053858856  0.054772114            1 
  713000    1.1400675   -5.1003934    457.41309  0.053461091  0.054757205            3 
  714000    1.1510651   -5.0924952    458.89418  0.053559078  0.054742538            2 
  715000    1.1285094   -5.0790144    460.76071  0.053701714  0.054727424            4 
  716000    1.1424936   -5.1221841    460.13918  0.053554374  0.054712173            3 
  717000    1.1461263   -5.1567308    459.79806  0.053440035  0.054697535            4 
  718000    1.1297676   -5.1094716    460.49559  0.053446564  0.054682716            5 
  719000    1.1509334   -5.1063446    462.32916  0.053584743  0.054668241            2 
  720000    1.1435606    -5.149322    460.60682  0.053310974  0.054653845            1 
  721000     1.102972   -5.1041472    462.88052  0.053499829  0.054639442            3 
  722000    1.1257409   -5.0686603    464.68994  0.053634573  0.054624631            1 
  723000    1.1391483   -5.0869708    464.68223    0.0535595  0.054610647            2 
  724000    1.1464484   -5.1200501    464.89036  0.053509479  0.054596654            3 
  725000    1.1365924   -5.1130326     465.0695  0.053456264  0.054581738            3 
  726000    1.1124004   -5.1084686    465.47244  0.053428884  0.054567119            2 
  727000    1.1582245    -5.128166    466.64237  0.053489496    0.0545531            6 
  728000    1.1337223   -5.1418204    465.79797  0.053319365  0.054538882            2 
  729000    1.1487537   -5.0768908    469.11229   0.05362509  0.054525166            2 
  730000    1.1393522   -5.0948334    467.21468  0.053335009   0.05451186            2 
  731000    1.1480341   -5.1038741    470.17503  0.053599525  0.054498152            2 
  732000    1.1236979   -5.0994473    469.42589  0.053441017  0.054484143            2 
  733000    1.1165139   -5.0834252    470.42935  0.053482191  0.054470567            2 
  734000    1.1412382   -5.1204609    468.98484  0.053245327   0.05445512            3 
  735000    1.1361941   -5.1115757    470.04817  0.053293443  0.054440369            1 
  736000    1.1126735   -5.0854887    469.20201  0.053125228  0.054425717            3 
  737000     1.143893   -5.0794087    471.07554  0.053264986  0.054410162            8 
  738000    1.1465371   -5.0935867    470.29319  0.053104471  0.054394679            2 
  739000    1.1291209   -5.0757005    473.07024  0.053345764  0.054379602            3 
  740000    1.1319192   -5.0986717    470.14805    0.0529446  0.054363536            7 
  741000    1.1279062   -5.0902736    473.41145  0.053240154  0.054347588            2 
  742000    1.1274694   -5.0539497    473.35872   0.05316248  0.054332052            3 
  743000    1.1192989   -5.0949072    472.47991  0.052992363  0.054315533            4 
  744000    1.1487135   -5.0879968    472.64799  0.052939963  0.054299409            3 
  745000    1.1132404   -5.1092093     472.4504    0.0528468  0.054282959            2 
  746000     1.148443   -5.1012391    473.29831  0.052870678  0.054266563            2 
  747000    1.1423924    -5.067134     475.1627  0.053007887  0.054250174            1 
  748000     1.137902   -5.1070303     474.0481  0.052812846  0.054233545            5 
  749000    1.1276877   -5.1187732    473.90322  0.052726215  0.054217518            1 
  750000    1.1124308   -5.1138136     475.8078  0.052867533   0.05420111            3 
  751000     1.130041   -5.0813077    478.31247  0.053075063  0.054184536            8 
  752000    1.1571043   -5.0652472    477.24336   0.05288601  0.054168178            2 
  753000    1.1248853   -5.1073626    475.73943  0.052649339  0.054151286            3 
  754000    1.1133512   -5.1160577    477.44777  0.052768321   0.05413379            3 
  755000    1.1206067   -5.0994015    476.70555  0.052616507  0.054116352            4 
  756000    1.1288512   -5.0879778     478.9769  0.052797278  0.054098465            2 
  757000    1.1233888   -5.1088198    477.47951  0.052562694  0.054080368            3 
  758000    1.1238754   -5.1273142    479.98197  0.052768466  0.054062609            2 
  759000    1.1178605    -5.152485    477.94412    0.0524752   0.05404435            4 
  760000    1.1468269   -5.1250933    477.57466  0.052365642  0.054025787            2 
  761000    1.1106755   -5.1259824    478.18556  0.052363727  0.054007206            1 
  762000    1.1423019   -5.0994375    481.69317  0.052678606  0.053989358            1 
  763000    1.1708944   -5.0831354    482.27858  0.052673501  0.053972003            2 
  764000    1.1346468   -5.1253824    480.44041  0.052404059  0.053953983            1 
  765000    1.1496888   -5.0861993    482.11527  0.052518003  0.053935411            2 
  766000    1.1260951   -5.1049378     480.2632  0.052247955  0.053916996            4 
  767000     1.116455   -5.1333591    482.38643   0.05241052  0.053897657            3 
  768000    1.1225274   -5.1145733    483.06694  0.052416118  0.053878548            2 
  769000    1.1201269   -5.1229896    484.66278  0.052520891  0.053859519            4 
  770000    1.1638962   -5.0926793    482.48601  0.052217101  0.053840399            2 
  771000    1.1281344   -5.0840397    483.06698  0.052212168  0.053821235            1 
  772000    1.1349469   -5.1361408    482.16924  0.052047629  0.053802066            3 
  773000    1.1260023   -5.1224045    483.32545  0.052104942  0.053782595            3 
  774000    1.1210675   -5.1156994     486.8039  0.052412134  0.053763385            2 
  775000    1.1418166   -5.1206666    483.52225   0.05199164  0.053743604            2 
  776000    1.1430182   -5.1604711    482.88764   0.05185649  0.053724553            3 
  777000    1.1335019   -5.0920052    485.96376  0.052119665  0.053704743            4 
  778000    1.1184666   -5.0998054    486.80738  0.052143035  0.053685036            3 
  779000    1.1197865   -5.1320269    485.57551  0.051944321  0.053665683            8 
  780000    1.1370058   -5.0933485    488.46036  0.052185936  0.053645664            3 
  781000    1.1142329   -5.0794393    489.54302  0.052234638  0.053626078            4 
  782000    1.1353817   -5.1245217    487.57161  0.051957758  0.053607341            2 
  783000    1.1103903   -5.1180739    488.08899  0.051946466  0.053588177            3 
  784000    1.1284179   -5.1496017    487.87699  0.051857673  0.053568753            2 
  785000    1.1288766   -5.0796204    491.82807  0.052211047  0.053549298            6 
  786000    1.1326559    -5.149285     488.9465  0.051839111  0.053529742            2 
  787000    1.1486132   -5.1124389    490.38813  0.051925893  0.053510923            4 
  788000    1.0959387   -5.1138967     489.6519  0.051782138  0.053491411            4 
  789000    1.1194918   -5.1153182     492.8897  0.052058481   0.05347222            2 
  790000    1.1160814   -5.1072982    494.23084  0.052134054  0.053453882            2 
  791000    1.1301859   -5.0882989    495.56859   0.05220908  0.053435335            3 
  792000    1.1137675   -5.1200052      495.201  0.052104483  0.053416933            2 
  793000    1.1041777   -5.1089359    495.58504  0.052079134   0.05339824            4 
  794000    1.1220601   -5.1059801    495.28476  0.051982028  0.053380175            5 
  795000    1.1399348   -5.0829237    498.00287  0.052201559   0.05336157            1 
  796000    1.1238825   -5.1323309    494.72449  0.051792765  0.053343149            2 
  797000    1.1336485   -5.1157639    495.74885  0.051834886  0.053324795            5 
  798000    1.1202727   -5.1500628    494.80232  0.051671086   0.05330565            6 
  799000    1.1101187   -5.1422142    494.10792  0.051533993  0.053285794            3 
  800000    1.1267197   -5.1319481    495.39155  0.051603287  0.053266039            1 
  801000    1.1179856   -5.1231424    496.29735  0.051633099  0.053246146            2 
  802000    1.1104866   -5.1473966    499.26555  0.051877136  0.053226432            4 
  803000    1.1293386   -5.1101345    499.51051  0.051837953  0.053206724            5 
  804000    1.1014551   -5.1606034     495.5995  0.051368107  0.053186854            2 
  805000    1.1178349   -5.1208573    498.77984  0.051633524  0.053167025            3 
  806000    1.1547968   -5.1435404    500.04061  0.051699815  0.053147414            2 
  807000    1.1266459   -5.1142772    501.30684  0.051766506  0.053128193            3 
  808000    1.1292118   -5.1125237    500.31394  0.051600035  0.053109679            4 
[...]
 4800000   0.47804942   -6.6164472    1191.3383  0.020682956   0.01891126          659 
 4801000    0.4740482   -6.5870634    1190.4908  0.020663938  0.018905547          572 
 4802000   0.47356317   -6.6088272    1190.4721   0.02065931  0.018899841          631 
 4803000   0.49300132   -6.6056503    1190.9631  0.020663528  0.018894131          682 
 4804000   0.49421571   -6.6079768    1191.1527  0.020662516  0.018888424          758 
 4805000   0.48168653   -6.6038292    1191.2953  0.020660689   0.01888272          804 
 4806000   0.49688704   -6.5813824    1192.5431  0.020678025   0.01887702          702 
 4807000   0.49394432    -6.605006    1191.1112  0.020648901  0.018871315          631 
 4808000   0.48063205   -6.5894618    1192.7035  0.020672204  0.018865603          759 
 4809000   0.48296423    -6.601383    1191.2613  0.020642913  0.018859895          810 
 4810000   0.47675424   -6.6067347    1190.2626  0.020621321  0.018854196          864 
 4811000   0.48463677   -6.5918943    1191.4849  0.020638206  0.018848491          837 
 4812000   0.47896588   -6.6072194    1189.0137  0.020591121  0.018842793          855 
 4813000   0.47812717   -6.6174746    1189.3756  0.020593109  0.018837096          895 
 4814000   0.48322228   -6.5939006    1189.7905  0.020596014  0.018831397          776 
 4815000   0.48141583   -6.6054965    1190.1683  0.020598274  0.018825702          828 
 4816000   0.48075386    -6.591366    1190.4215  0.020598378   0.01882001          913 
 4817000   0.49010967   -6.6118109    1191.0628  0.020605196  0.018814316          860 
 4818000   0.47888462   -6.6239974    1189.5035  0.020573949  0.018808619          966 
 4819000   0.47432049   -6.5983325     1193.175   0.02063317  0.018802933          923 
 4820000   0.48562399   -6.6021797    1188.9018   0.02055501  0.018797236          821 
 4821000   0.48073364   -6.6144452    1191.6778  0.020598731  0.018791544          816 
 4822000   0.48040912   -6.6269527    1188.2573  0.020535346  0.018785856          833 
 4823000   0.47458356   -6.6018407    1187.6236  0.020520139  0.018780168          886 
 4824000   0.47134577   -6.6039586    1188.0079  0.020522524  0.018774479          787 
 4825000   0.48408008   -6.6013173    1190.0752  0.020553976  0.018768803          819 
 4826000   0.48202542   -6.6170497    1189.6263  0.020541965  0.018763119          910 
 4827000   0.48213138    -6.619206    1188.3157  0.020515084   0.01875744          926 
 4828000   0.47602811   -6.6298797    1187.7959  0.020501862   0.01875176          858 
 4829000   0.47739438   -6.6052018    1190.6533  0.020546927  0.018746089          850 
 4830000   0.47426772   -6.6089403     1188.833  0.020511266   0.01874041          863 
 4831000   0.47582452   -6.6168028    1187.7079  0.020487613  0.018734739          900 
 4832000    0.4788695   -6.6117422    1188.3313  0.020494124  0.018729067          917 
 4833000   0.46992197   -6.6144312     1189.827  0.020515674  0.018723403          886 
 4834000   0.47850254    -6.621969    1191.5614  0.020541329  0.018717737          819 
 4835000   0.48554298   -6.6050227    1190.2146  0.020513867  0.018712068          904 
 4836000   0.47646109   -6.6383336    1188.4643  0.020479464  0.018706395          996 
 4837000   0.48270121   -6.6321362       1189.8  0.020498243  0.018700722          951 
 4838000   0.47214474    -6.600387     1190.288  0.020502412  0.018695053          929 
 4839000   0.47705609    -6.616597    1190.1393  0.020495614  0.018689382         1013 
 4840000   0.47783163   -6.6200063    1186.9281   0.02043609  0.018683715         1059 
 4841000    0.4808422   -6.6114196    1188.4681  0.020458378  0.018678053          950 
 4842000   0.47736836   -6.6236147    1189.0979  0.020464992  0.018672393          910 
 4843000   0.48206133   -6.6274916    1188.7149  0.020454176   0.01866673          927 
 4844000   0.48843258   -6.6268714    1188.8129  0.020451639  0.018661076          985 
 4845000   0.47332451   -6.6233215    1189.7459  0.020463466   0.01865543          953 
 4846000   0.47591089    -6.638192    1186.5669  0.020404576  0.018649777          981 
 4847000   0.47538199   -6.6210436    1189.3053  0.020447448  0.018644132          919 
 4848000   0.47119407   -6.6192067    1186.3593  0.020392589  0.018638481          903 
 4849000   0.47215591   -6.6395099    1189.9883  0.020450751  0.018632829          956 
 4850000   0.47779873   -6.6135757    1188.7724  0.020425643  0.018627183          914 
 4851000     0.472055   -6.6323947    1186.8467  0.020388351  0.018621537          848 
 4852000   0.46989871   -6.6262779    1189.6245  0.020431858  0.018615896          961 
 4853000   0.46742432   -6.6063124    1189.6785  0.020428576  0.018610258          947 
 4854000   0.48248297   -6.6263329     1189.753  0.020425646   0.01860462          939 
 4855000    0.4761717   -6.6237116    1188.3945  0.020398121  0.018598975          916 
 4856000   0.46516298   -6.6178988    1189.0393  0.020404985  0.018593331          963 
 4857000    0.4806756   -6.6195659    1188.8122  0.020396888  0.018587687          960 
 4858000   0.46297021   -6.6393425    1186.7236  0.020356862  0.018582046          955 
 4859000   0.47444183   -6.6264865    1189.6629  0.020403082  0.018576411          988 
 4860000   0.47031453    -6.628001    1190.0878   0.02040617  0.018570777          968 
 4861000   0.47480922   -6.6273502     1187.185  0.020352208  0.018565138         1048 
 4862000    0.4714571   -6.6280662    1186.3937   0.02033446  0.018559497         1030 
 4863000   0.47491115    -6.627727    1185.8748  0.020321386  0.018553853         1051 
 4864000   0.47579358   -6.6422788    1187.8528  0.020351096  0.018548218         1049 
 4865000   0.47326136   -6.6313337    1188.5051  0.020358087  0.018542597         1131 
 4866000   0.48867277   -6.6257032    1187.3977  0.020334939  0.018536976         1030 
 4867000   0.48036775   -6.6382801     1188.541  0.020350335  0.018531351         1011 
 4868000   0.48059246    -6.624258    1189.9108  0.020369603  0.018525729         1131 
 4869000   0.47225094   -6.6378247    1188.2234  0.020336541  0.018520109         1027 
 4870000   0.46845457   -6.6430741     1188.281  0.020333351  0.018514493         1043 
 4871000   0.47476262   -6.6496955    1188.7144  0.020336591  0.018508872         1090 
 4872000    0.4704609    -6.634431    1187.7407  0.020315762  0.018503263         1034 
 4873000   0.48094181   -6.6325078    1188.3256  0.020321595  0.018497646         1110 
 4874000   0.48612017   -6.6326419    1187.5992  0.020305005  0.018492032          997 
 4875000   0.47077164   -6.6415177    1185.6055   0.02026676  0.018486418         1020 
 4876000   0.48281263   -6.6388429    1186.3397  0.020275152  0.018480792         1014 
 4877000   0.47438161   -6.6338327    1187.2435  0.020286438  0.018475175         1026 
 4878000   0.47757624   -6.6444905    1185.9774   0.02026065  0.018469558         1022 
 4879000   0.47745969   -6.6441815    1187.1175   0.02027597  0.018463952          978 
 4880000   0.47028356   -6.6248951    1186.9622  0.020269163  0.018458347          982 
 4881000   0.46955553   -6.6363228    1186.5767  0.020258429  0.018452746         1059 
 4882000   0.47949388   -6.6460949    1185.4578  0.020235181  0.018447151         1066 
 4883000   0.47815704   -6.6495776    1187.9433  0.020273453  0.018441551          998 
 4884000   0.48019659   -6.6559178    1187.9816  0.020269957  0.018435958          979 
 4885000   0.46770138   -6.6439693    1187.7382  0.020261654  0.018430362         1054 
 4886000   0.46683204   -6.6458389    1186.9166  0.020243495  0.018424769         1009 
 4887000   0.46768541   -6.6445874    1189.2314  0.020278825  0.018419171          917 
 4888000   0.46660066   -6.6263051    1188.3212  0.020259159  0.018413583         1028 
 4889000   0.46482687   -6.6404816    1189.4932  0.020274992  0.018407991         1060 
 4890000   0.46936503    -6.645203    1187.5179  0.020237184  0.018402398          988 
 4891000   0.46655282   -6.6471146    1188.8345  0.020255479  0.018396813          965 
 4892000   0.46883309    -6.634302    1188.8149  0.020251004  0.018391223          937 
 4893000    0.4686772    -6.644588    1187.6496  0.020227019  0.018385642          918 
 4894000   0.47267697   -6.6479336    1187.0057   0.02021192   0.01838006         1024 
 4895000    0.4720535   -6.6407052     1187.073  0.020208938  0.018374474         1013 
 4896000   0.46418203   -6.6414866    1185.5433  0.020178774  0.018368895         1111 
 4897000   0.46701067     -6.65045    1186.0594  0.020183435  0.018363324         1033 
 4898000     0.485112   -6.6554195    1186.1816  0.020181393  0.018357748         1112 
 4899000   0.45656533   -6.6477719     1187.734   0.02020368  0.018352178         1097 
 4900000    0.4754952   -6.6533242    1187.5482  0.020196399  0.018346606         1123 
 4901000   0.47220171   -6.6343479    1188.2318    0.0202039  0.018341042         1094 
 4902000   0.46198723   -6.6410307    1188.5175  0.020204636  0.018335475         1104 
 4903000   0.46860003   -6.6508708    1186.3312  0.020163356   0.01832991         1057 
 4904000   0.47612171   -6.6513122    1184.4649  0.020127531  0.018324342         1086 
 4905000   0.46825114   -6.6559652    1187.1934  0.020169783  0.018318774         1078 
 4906000   0.46371209   -6.6622927    1185.5835  0.020138325  0.018313209         1193 
 4907000   0.46629445   -6.6403724    1185.9446  0.020140355  0.018307646         1075 
 4908000    0.4723839   -6.6588029    1187.0053   0.02015426   0.01830209         1125 
 4909000   0.47239087   -6.6574441    1186.5419  0.020142288   0.01829653         1126 
 4910000   0.46272596   -6.6407192    1186.0029  0.020129038  0.018290976         1065 
 4911000    0.4727783   -6.6621568    1184.8274  0.020104992  0.018285423         1143 
 4912000   0.46125635   -6.6514259    1184.4215  0.020094014   0.01827986         1114 
 4913000   0.46164152   -6.6439521    1185.4983  0.020108187  0.018274309         1020 
 4914000   0.44584322   -6.6481763    1186.2501  0.020116845  0.018268749         1063 
 4915000   0.46867852    -6.667252    1186.6797  0.020120035  0.018263194         1111 
 4916000   0.46563261   -6.6572021    1185.6519   0.02009852  0.018257638         1122 
 4917000   0.46565899   -6.6648834    1185.5908  0.020093396  0.018252092         1073 
 4918000   0.46778264   -6.6759424    1186.4186  0.020103339  0.018246548         1100 
 4919000   0.45554285   -6.6428173    1185.3991  0.020081979  0.018241002         1106 
 4920000   0.46613864   -6.6659075    1187.5184  0.020113794  0.018235461         1015 
 4921000   0.46209972   -6.6724609    1185.4042  0.020073905  0.018229921         1095 
 4922000   0.45702401   -6.6536976    1187.2519  0.020101109  0.018224386         1036 
 4923000   0.47694699   -6.6524438    1187.6977  0.020104573   0.01821885         1035 
 4924000   0.46091865   -6.6691986    1185.3233  0.020060304  0.018213318         1013 
 4925000    0.4622606   -6.6592076    1184.4541  0.020041525  0.018207786         1006 
 4926000   0.45830819   -6.6772568    1185.9334  0.020062482  0.018202256         1052 
 4927000   0.46054747   -6.6711411    1184.9614  0.020041969  0.018196722         1059 
 4928000   0.46497216   -6.6545797    1184.5964   0.02003173  0.018191193         1026 
 4929000   0.46441836   -6.6517511     1186.467  0.020059292  0.018185668         1036 
 4930000   0.47357948    -6.666359    1183.5234  0.020005466  0.018180143         1110 
 4931000   0.48232719    -6.669261    1185.3522  0.020032315  0.018174622         1147 
 4932000   0.46920398   -6.6569754    1186.3519  0.020045145  0.018169105         1052 
 4933000   0.45097489   -6.6632678    1185.5634  0.020027761  0.018163584         1079 
 4934000   0.45121923   -6.6615797    1184.4653  0.020005156  0.018158067         1070 
 4935000   0.45543134   -6.6625861    1184.3924  0.019999871  0.018152548         1137 
 4936000   0.47823873   -6.6796747    1186.1027  0.020024695  0.018147034         1085 
 4937000   0.45383302   -6.6665757    1186.2235  0.020022677   0.01814152         1114 
 4938000   0.45989226   -6.6638873    1186.1252  0.020016963  0.018136016         1023 
 4939000   0.46059964    -6.666225    1185.6649  0.020005145  0.018130507         1111 
 4940000   0.46132134   -6.6598303    1185.3256  0.019995371  0.018124995         1133 
 4941000   0.46316076   -6.6687065    1183.6571  0.019963184  0.018119492         1131 
 4942000   0.46383312   -6.6607972    1184.6652  0.019976142  0.018113989         1066 
 4943000   0.46302211   -6.6581022    1187.4139  0.020018442   0.01810849         1080 
 4944000   0.46165499    -6.646889    1187.2218  0.020011155  0.018102987         1107 
 4945000   0.45948149   -6.6634631    1184.2678  0.019957327  0.018097488         1089 
 4946000    0.4581232   -6.6525758    1185.1012  0.019967334  0.018091987         1161 
 4947000   0.45167396   -6.6511937    1184.7348  0.019957126   0.01808649         1110 
 4948000    0.4664125   -6.6710316    1183.5938  0.019933876  0.018080989         1114 
 4949000   0.44489412   -6.6667016    1185.0858  0.019954971  0.018075494         1141 
 4950000   0.46144357   -6.6518946    1184.6566  0.019943713  0.018070007         1177 
 4951000   0.45771357   -6.6732999    1184.3817  0.019935059  0.018064522         1078 
 4952000   0.45694051   -6.6814114    1185.6726  0.019952757  0.018059035         1109 
 4953000   0.45712245   -6.6628089    1186.1683  0.019957068  0.018053541         1124 
 4954000   0.45965615   -6.6581634    1184.9958  0.019933317  0.018048053         1047 
 4955000   0.46020572   -6.6675646    1185.6687  0.019940611  0.018042563         1082 
 4956000   0.45043349   -6.6810221    1186.6629  0.019953305  0.018037079         1175 
 4957000   0.45838229   -6.6719723     1183.569  0.019897266    0.0180316         1195 
 4958000   0.46853213   -6.6452899    1186.5481  0.019943326  0.018026122         1133 
 4959000   0.45380758   -6.6713337    1183.3809  0.019886081  0.018020644         1140 
 4960000   0.45497092   -6.6651051    1184.8116   0.01990611   0.01801516         1050 
 4961000   0.45482873   -6.6661443    1184.8072  0.019902022  0.018009687         1059 
 4962000   0.45996249   -6.6757406    1183.6817   0.01987911  0.018004219         1036 
 4963000   0.46711235   -6.6799889    1185.8748  0.019911928   0.01799875         1091 
 4964000    0.4523179   -6.6752392    1185.0704  0.019894412  0.017993284         1088 
 4965000   0.45618863    -6.673607    1184.9357  0.019888146  0.017987819         1022 
 4966000   0.45254143   -6.6743555    1183.5996   0.01986172  0.017982352         1146 
 4967000   0.45360385   -6.6785009     1184.125  0.019866536   0.01797689         1057 
 4968000   0.45261463   -6.6761365    1184.7113  0.019872372  0.017971428         1106 
 4969000   0.45252215   -6.6588903    1187.1604  0.019909445  0.017965969         1062 
 4970000    0.4507799   -6.6790867    1183.6842  0.019847153  0.017960515         1139 
 4971000   0.45749168   -6.6794796    1186.5791  0.019891689  0.017955052         1120 
 4972000   0.44176254   -6.6601103    1182.8309  0.019824868   0.01794959         1107 
 4973000   0.45591851   -6.6780871    1184.2852  0.019845252  0.017944137         1161 
 4974000   0.46733116   -6.6741845    1183.1088  0.019821552  0.017938684         1162 
 4975000   0.45532131   -6.6802941    1184.2489  0.019836665  0.017933233         1085 
 4976000   0.45825261   -6.6846193    1186.1434  0.019864406  0.017927788         1143 
 4977000   0.45369161   -6.6788214    1185.0039  0.019841335  0.017922344         1134 
 4978000   0.45955864    -6.682614    1186.0305  0.019854535  0.017916896         1177 
 4979000   0.45784116   -6.6722633    1184.9931  0.019833184  0.017911449         1091 
 4980000   0.44462367   -6.6660118    1184.7426   0.01982501  0.017906007         1218 
 4981000   0.44709361   -6.6727433    1185.5663  0.019834811  0.017900568         1079 
 4982000   0.45174161   -6.6769901    1184.6633  0.019815725  0.017895133         1147 
 4983000   0.45759812   -6.6829508    1185.1994  0.019820714  0.017889696         1046 
 4984000   0.44876569   -6.6758431    1184.1064  0.019798462  0.017884259         1110 
 4985000   0.45302674   -6.6885487    1183.2909  0.019780857  0.017878822         1032 
 4986000   0.45103574    -6.674481     1183.988  0.019788541  0.017873389         1115 
 4987000   0.45291049    -6.673515    1186.2049  0.019821617  0.017867958         1154 
 4988000   0.45293661   -6.6739222    1186.1758  0.019817157  0.017862529         1081 
 4989000   0.46147054   -6.6630205    1184.0003  0.019776847    0.0178571         1089 
 4990000   0.45874997   -6.6926098    1184.2834  0.019777613  0.017851677         1131 
 4991000   0.45132254   -6.6738306    1184.2405  0.019772933  0.017846248         1073 
 4992000   0.45770357   -6.6840211    1185.5981  0.019791636  0.017840832         1145 
 4993000   0.46444947   -6.6855838    1185.3309  0.019783211  0.017835408         1068 
 4994000   0.44455593   -6.6827633    1184.1159  0.019758975  0.017829996         1075 
 4995000   0.46000231   -6.6910755    1183.5836  0.019746139  0.017824577         1139 
 4996000   0.45516653   -6.6855231    1185.1681  0.019768617  0.017819161         1108 
 4997000   0.45809357   -6.6713245    1185.8036  0.019775258  0.017813752         1119 
 4998000   0.45672524    -6.692902    1180.2636  0.019678931  0.017808344         1110 
 4999000    0.4472513   -6.6669763    1184.9651  0.019753369  0.017802934         1110 
 5000000   0.44524103   -6.6885261    1184.1584  0.019735974  0.017797531         1034 
 5001000   0.44373702   -6.6728645    1182.4295  0.019703218  0.017792134         1061 
 5002000   0.45771791   -6.6825216    1183.2039   0.01971218  0.017786733         1124 
 5003000   0.44793888    -6.677662    1183.8939  0.019719733  0.017781332         1042 
 5004000    0.4492089   -6.6823588    1182.9809  0.019700589  0.017775934         1046 
 5005000   0.44681895   -6.6812732    1183.7467  0.019709402  0.017770545         1097 
 5006000   0.45509407   -6.7060747    1182.9244  0.019691777   0.01776515         1214 
 5007000   0.44762091    -6.683592     1184.591  0.019715582   0.01775976         1033 
 5008000   0.45865321   -6.6925074    1184.6926  0.019713335  0.017754371         1062 
 5009000   0.44140924   -6.6875742    1185.0625  0.019715554  0.017748982         1073 
 5010000   0.45665045   -6.6721936    1184.6577  0.019704885  0.017743597         1069 
 5011000   0.45873179   -6.6663832     1184.233   0.01969389  0.017738219         1036 
 5012000    0.4516106   -6.6826411    1184.0235  0.019686478  0.017732846         1074 
Loop time of 12827.3 on 48 procs for 5000000 steps with 4000 atoms

Performance: 67356.166 tau/day, 389.793 timesteps/s
99.4% CPU use with 48 MPI tasks x no OpenMP threads

MPI task timing breakdown:
Section |  min time  |  avg time  |  max time  |%varavg| %total
---------------------------------------------------------------
Pair    | 921.5      | 1009.9     | 1094.3     | 138.0 |  7.87
Neigh   | 88.222     | 91.121     | 94.357     |  17.0 |  0.71
Comm    | 835.8      | 902.55     | 990.86     | 138.9 |  7.04
Output  | 14.914     | 14.918     | 14.999     |   0.3 |  0.12
Modify  | 10650      | 10693      | 10717      |  14.9 | 83.36
Other   |            | 116        |            |       |  0.90

Nlocal:        83.3333 ave          89 max          78 min
Histogram: 6 6 4 5 4 5 4 6 2 6
Nghost:        2386.21 ave        2400 max        2369 min
Histogram: 3 3 3 5 4 7 11 4 1 7
Neighs:        16489.9 ave       19114 max       14452 min
Histogram: 4 8 5 4 4 9 7 3 3 1
FullNghs:      32979.2 ave       35439 max       31023 min
Histogram: 6 7 3 7 3 6 6 3 1 6

Total # of neighbors = 1583000
Ave neighs/atom = 395.75000
Neighbor list builds = 268287
Dangerous builds = 1

#clear
#
#next RN
#
#jump SELF
Total wall time: 3:33:50
