
units lj                  # Use reduced LJ style units
atom_style atomic         # Uncharged point particles
atom_modify map hash      # Needed for indexing of clusters etc
                          # Used to be able to find where atoms are in relation to each other.

lattice fcc 1.0 spacing 1 1 1
Lattice spacing in x,y,z = 1.5874011 1.5874011 1.5874011
region box block 0 10 0 10 0 10 units lattice
create_box 2 box
Created orthogonal box = (0.0000000 0.0000000 0.0000000) to (15.874011 15.874011 15.874011)
  3 by 4 by 4 MPI processor grid
create_atoms 1 box
Created 4000 atoms
  using lattice units in orthogonal box = (0.0000000 0.0000000 0.0000000) to (15.874011 15.874011 15.874011)
  create_atoms CPU = 0.002 seconds
set type 1 type/fraction 2 0.8 78393
Setting atom values ...
  3188 settings made for type/fraction
mass 1 1.0
mass 2 1.0
pair_style lj/cut  3.5
pair_modify tail  yes
pair_coeff 1  1  1.0  1.0   # Intearaction between 1 and 1 set with epsilon = 1 and sigma = 1
pair_coeff 1  2  1.5  0.8
pair_coeff 2  2  0.5  0.88

write_data data.0
System init for write_data ...
Neighbor list info ...
  update every 1 steps, delay 10 steps, check yes
  max neighbors/atom: 2000, page size: 100000
  master list distance cutoff = 3.8
  ghost atom cutoff = 3.8
  binsize = 1.9, bins = 9 9 9
  1 neighbor lists, perpetual/occasional/extra = 1 0 0
  (1) pair lj/cut, perpetual
      attributes: half, newton on
      pair build: half/bin/atomonly/newton
      stencil: half/bin/3d
      bin: standard
WARNING: Not all mixed pair coeffs generated from mixing. Use write_data with 'pair ij' option to store all pair coeffs. (../write_data.cpp:312)


#############################
#   M E L T   S Y S T E M   #
#############################

velocity all create 2.4 6583654 mom yes dist gaussian # Assign velocities
                                                    # Temperature 2.4, random number seed, zero linear momentum
                                                                                # Gaussian distribution

timestep 0.002   # simulation timestep
thermo 1000       # output thermodynamic data every 1000 steps bf 100

# Define a fix  in this case with index 1 applied to all
# particles in the simulation. This fix is for simulations
# in the anisotropic NPT ensemble. Note that we use the MTK
# correction.
fix 1 all npt temp 2.4 2.4 0.1 iso 5.68 5.68 0.5 mtk yes tchain 5 pchain 5 # Use NPT ensemble
                                                                         # Set temperature and pressure and damping
                                                                         # Numbers of thermostats in chain and in barostat
run 10000          # run for 10000 steps
Per MPI rank memory allocation (min/avg/max) = 3.642 | 3.644 | 3.648 Mbytes
Step Temp E_pair E_mol TotEng Press Volume 
       0          2.4   -3.6981828            0 -0.099082777   -3.2752093         4000 
    1000    2.4010611   -3.0459829            0   0.55470836    5.6225674    3812.4922 
    2000    2.3882312   -3.0877994            0   0.49365182    5.7059502    3772.4872 
    3000    2.4798947   -3.0243529            0   0.69455923    5.8803228    3801.3602 
    4000    2.3858261   -3.0391134            0   0.53873108    5.6603197     3813.521 
    5000    2.3911628   -3.0430523            0   0.54279521    5.5366744    3810.1185 
    6000    2.3727533   -3.0057027            0   0.55253737    5.7427403    3818.8189 
    7000    2.3906791   -3.0656493            0   0.51947281    5.5950305    3794.5409 
    8000    2.3716308   -3.0385202            0   0.51803656    5.6820158    3792.2953 
    9000    2.4412864   -3.0775415            0   0.58347265    5.5291779    3796.7523 
   10000    2.4285006   -3.0251619            0   0.61667827    5.7758869    3811.0676 
Loop time of 2.57587 on 48 procs for 10000 steps with 4000 atoms

Performance: 670842.046 tau/day, 3882.188 timesteps/s
99.6% CPU use with 48 MPI tasks x no OpenMP threads

MPI task timing breakdown:
Section |  min time  |  avg time  |  max time  |%varavg| %total
---------------------------------------------------------------
Pair    | 1.1153     | 1.2101     | 1.2877     |   3.1 | 46.98
Neigh   | 0.20949    | 0.21852    | 0.226      |   0.7 |  8.48
Comm    | 0.77574    | 0.87505    | 0.96733    |   3.7 | 33.97
Output  | 0.00024758 | 0.00025512 | 0.00032829 |   0.0 |  0.01
Modify  | 0.21902    | 0.25664    | 0.29769    |   4.5 |  9.96
Other   |            | 0.01532    |            |       |  0.59

Nlocal:        83.3333 ave          94 max          70 min
Histogram: 1 0 2 3 7 18 9 5 2 1
Nghost:        1694.98 ave        1725 max        1665 min
Histogram: 3 3 4 3 9 9 10 3 1 3
Neighs:        10019.9 ave       11344 max        7929 min
Histogram: 1 0 0 4 7 7 17 7 3 2

Total # of neighbors = 480954
Ave neighs/atom = 120.23850
Neighbor list builds = 903
Dangerous builds = 198

# Equilibrate just above the melting temperature to avoid step fn in T

fix 1 all npt temp 1.25 1.25 0.1 iso 5.68 5.68 0.5 mtk yes tchain 5 pchain 5
run 2000
Per MPI rank memory allocation (min/avg/max) = 3.644 | 3.646 | 3.649 Mbytes
Step Temp E_pair E_mol TotEng Press Volume 
   10000    2.4285006   -3.0251619            0   0.61667827    5.7758869    3811.0676 
   11000    1.2417213   -4.5354896            0   -2.6733733    5.5411171    2911.0024 
   12000    1.2580939   -4.5044016            0   -2.6177326    5.8267426    2906.7109 
Loop time of 0.635218 on 48 procs for 2000 steps with 4000 atoms

Performance: 544065.396 tau/day, 3148.527 timesteps/s
99.6% CPU use with 48 MPI tasks x no OpenMP threads

MPI task timing breakdown:
Section |  min time  |  avg time  |  max time  |%varavg| %total
---------------------------------------------------------------
Pair    | 0.2774     | 0.30941    | 0.35135    |   2.5 | 48.71
Neigh   | 0.039385   | 0.042903   | 0.047002   |   0.7 |  6.75
Comm    | 0.18691    | 0.23351    | 0.26717    |   3.1 | 36.76
Output  | 5.0954e-05 | 5.2136e-05 | 6.7018e-05 |   0.0 |  0.01
Modify  | 0.039318   | 0.044559   | 0.049163   |   1.3 |  7.01
Other   |            | 0.004784   |            |       |  0.75

Nlocal:        83.3333 ave          93 max          72 min
Histogram: 3 1 3 2 10 7 10 9 2 1
Nghost:        2039.10 ave        2060 max        2022 min
Histogram: 2 4 6 12 6 4 4 9 0 1
Neighs:        13154.6 ave       14837 max       10809 min
Histogram: 2 1 1 4 10 8 8 6 2 6

Total # of neighbors = 631419
Ave neighs/atom = 157.85475
Neighbor list builds = 144
Dangerous builds = 20

#############################
# L I N E A R  Q U E N C H  #
#############################

# Define solid atoms. This closely follows ten Wolde  Ruiz-Montero and Frenkel  Faraday Discuss  1996  104  93-110
# Compute components of the per-atom q6 vector
compute q6 all orientorder/atom degrees 1 6 components 6 nnn NULL cutoff 1.3 # compute the Q6 parameter.
                                                                             # Use all neighbours within 1.3 unit cell.

# get number of connections
compute coord_number all coord/atom orientorder q6 0.5

# An atom is solid if it has 8 or more connections (of a possible 14)
variable is_solid atom c_coord_number>=8
group solid dynamic all var is_solid    # Must be dynamic to update
dynamic group solid defined

# do clustering
compute cluster solid cluster/atom 1.3 # Create a cluster where all atoms within are solid and max 1.3 units from another member

# define chunks one chunk per cluster
compute clus_chunks solid chunk/atom c_cluster nchunk every compress yes  # Says which atoms are in which chunk

# count the size of each chunk
compute size_chunks solid property/chunk clus_chunks count


# Find the maximum entry in the vector of chunk sizes
variable max_n equal max(c_size_chunks)


# Thermo style which includes this variable
# thermo_style custom step temp pe vol v_max_n

thermo ${N}  # Print the thermo information every 100 steps
thermo 1000  

# Reset the npt fix at a lower temperature (below freezing)
fix 1  all npt temp  ${temp} ${temp}  0.1  iso  5.68  5.68  0.5  mtk yes tchain  5  pchain  5
fix 1  all npt temp  0.45 ${temp}  0.1  iso  5.68  5.68  0.5  mtk yes tchain  5  pchain  5
fix 1  all npt temp  0.45 0.45  0.1  iso  5.68  5.68  0.5  mtk yes tchain  5  pchain  5

dump dmp2 all dcd ${N} traj.dcd
dump dmp2 all dcd 1000 traj.dcd


compute msd all msd com yes
variable twopoint equal c_msd[4]/6/(step*dt+1.0e-6)
fix 9 all vector 10 c_msd[4]
variable fit equal slope(f_9)/6/(10*dt)
thermo_style custom step temp pe c_msd[4] v_twopoint v_fit v_max_n

fix 1 all npt temp 1.25 ${temp} 0.1 iso 5.68 5.68 0.5 mtk yes tchain 5 pchain 5
fix 1 all npt temp 1.25 0.45 0.1 iso 5.68 5.68 0.5 mtk yes tchain 5 pchain 5
run 500000 # 5000000  # Run for this many steps
Neighbor list info ...
  update every 1 steps, delay 10 steps, check yes
  max neighbors/atom: 2000, page size: 100000
  master list distance cutoff = 3.8
  ghost atom cutoff = 3.8
  binsize = 1.9, bins = 8 8 8
  4 neighbor lists, perpetual/occasional/extra = 1 3 0
  (1) pair lj/cut, perpetual
      attributes: half, newton on
      pair build: half/bin/atomonly/newton
      stencil: half/bin/3d
      bin: standard
  (2) compute orientorder/atom, occasional
      attributes: full, newton on
      pair build: full/bin/atomonly
      stencil: full/bin/3d
      bin: standard
  (3) compute coord/atom, occasional
      attributes: full, newton on
      pair build: full/bin/atomonly
      stencil: full/bin/3d
      bin: standard
  (4) compute cluster/atom, occasional
      attributes: full, newton on
      pair build: full/bin/atomonly
      stencil: full/bin/3d
      bin: standard
Per MPI rank memory allocation (min/avg/max) = 9.835 | 9.841 | 9.845 Mbytes
Step Temp PotEng c_msd[4] v_twopoint v_fit v_max_n 
   12000    1.2580939   -4.5044016 1.8565841e-30 1.2892945e-32 8.3333333e+20            1 
   13000    1.2436005   -4.5745436   0.79118851  0.005071721  0.066388486            3 
   14000    1.2321007   -4.5442687    1.5831965 0.0094237881  0.066052017            2 
   15000    1.2542858   -4.5145446    2.4576593  0.013653662  0.067278172            3 
   16000    1.2453982   -4.5455869    3.2750083  0.017057334  0.068827643            3 
   17000    1.2345699   -4.5338618    4.0549693    0.0198773  0.068582711            1 
   18000    1.2324898   -4.5680331    4.7918505  0.022184492  0.067679307            2 
   19000    1.2362547    -4.566805    5.5233825  0.024225361   0.06676278            2 
   20000    1.2806494   -4.5202519    6.3861717  0.026609048  0.066632639            3 
   21000      1.21732   -4.5514268      7.28097  0.028892738  0.066759495            4 
   22000    1.2317774   -4.5583611     8.181382  0.030990083  0.067244737            2 
   23000     1.213848   -4.5669221    8.8852657  0.032192991  0.067485082            4 
   24000    1.2380252   -4.5583855    9.7047883  0.033697181  0.067431848            2 
   25000    1.2209075   -4.5444981    10.461268  0.034870894  0.067424961            1 
   26000    1.2504838   -4.5694543    11.354741    0.0363934  0.067393743            1 
   27000    1.2222486   -4.5554854    12.260439  0.037840862  0.067481691            1 
   28000    1.2574744   -4.5454101    13.055859  0.038856723  0.067584037            1 
   29000    1.2274031   -4.5910974    13.882991  0.039893651  0.067676774            4 
   30000    1.2364708   -4.5900636    14.675105   0.04076418  0.067844007            3 
   31000     1.227489   -4.5968274     15.42328   0.04146043  0.067860286            3 
   32000    1.2125005   -4.6017142    16.189424  0.042159957  0.067779989            3 
   33000    1.2183273   -4.5897046    16.914924  0.042714454  0.067738475            2 
   34000     1.220347   -4.6273985    17.731472   0.04345949  0.067702014            6 
   35000    1.2169453   -4.5266903     18.57326  0.044222048   0.06764382            2 
   36000    1.2174846   -4.5798339    19.357913  0.044809983  0.067593471            3 
   37000    1.1960241   -4.6221201    20.158052  0.045401017  0.067495887            2 
   38000    1.2110111   -4.6290447    20.644604  0.045273254  0.067308456            2 
   39000    1.2175065   -4.5989518    21.469978   0.04587602  0.067087894            1 
   40000    1.2009087   -4.5865953    22.418532  0.046705275   0.06692455            1 
   41000     1.214397   -4.6009817    23.150709  0.047054286  0.066817471            4 
   42000    1.2229792   -4.6197675    23.781241  0.047185002  0.066706901            1 
   43000    1.2051645   -4.6122207    24.450558  0.047384801  0.066578191            1 
   44000    1.1936049   -4.6462925    25.335676  0.047984235  0.066417673            1 
   45000    1.2008048   -4.6012184    26.213076  0.048542733  0.066345199            2 
   46000    1.1874022   -4.6303636    26.986518  0.048888619  0.066276868            6 
   47000    1.1964638    -4.629937    27.812461  0.049312873  0.066196983            2 
   48000    1.2097529   -4.6501547    28.723767   0.04986765  0.066137019            3 
   49000    1.1924619   -4.6242518    29.326305  0.049874668  0.066098688            2 
   50000    1.1747687   -4.6212696    29.936658  0.049894429  0.065999653            3 
   51000    1.2052919   -4.6799009    30.656892   0.05009296  0.065899933            3 
   52000    1.1725078   -4.5919777    31.559663  0.050576383  0.065800451            2 
   53000    1.1548976   -4.6925842    31.850524  0.050079439   0.06568002            2 
   54000    1.1882648   -4.6172172    32.808709  0.050630724  0.065548611            3 
   55000    1.1874438   -4.6365477    33.613682   0.05092982  0.065427589            5 
   56000    1.1572089   -4.6266536    34.644353  0.051554096  0.065344983            4 
   57000    1.1720442   -4.7008821    35.137974  0.051371307  0.065296978            3 
   58000    1.1504883   -4.6626398    36.228278  0.052052123   0.06525192            2 
   59000    1.1742803   -4.6908736    36.860598  0.052062992   0.06523866            2 
   60000    1.1675943   -4.6706225    37.590464  0.052208978  0.065194172            3 
   61000    1.1689612   -4.6152124     38.52174  0.052625327   0.06513473            2 
   62000    1.1977501   -4.6596944    39.157567  0.052631139  0.065073921            4 
   63000    1.1902991   -4.6672669    39.862976  0.052728804  0.065013508            1 
   64000    1.1484514   -4.6760235     40.53971   0.05278608  0.064946616            4 
   65000    1.1847829   -4.6576614    41.140595  0.052744352  0.064857156            2 
   66000    1.1847887   -4.6903716    41.968124  0.052990055  0.064787924            3 
   67000    1.1670557   -4.7031711    42.587409  0.052969413  0.064703298            5 
   68000    1.1733564   -4.6965055    43.370754  0.053150434  0.064613025            4 
   69000    1.1637657   -4.6738587    43.752511  0.052841196  0.064489653            2 
   70000    1.1481142   -4.7197897    44.290286   0.05272653  0.064352989            4 
   71000    1.1589898   -4.6640754     44.94158  0.052748333  0.064217847            2 
   72000    1.1598243    -4.725509     45.51854  0.052683494  0.064059891            6 
   73000     1.159878   -4.7355182    46.021586  0.052536057  0.063887793            2 
   74000     1.152894   -4.6899363    46.625925  0.052506672  0.063725578            3 
   75000    1.1714275   -4.7064815    47.208346  0.052453717  0.063545768            2 
   76000    1.1742004   -4.7289383    47.486399   0.05206842  0.063339483            1 
   77000    1.1292364   -4.7727385    48.168092  0.052129969  0.063123556            3 
   78000     1.149998   -4.7242453    49.177043  0.052539576  0.062922007            3 
   79000    1.1250106   -4.7085611    49.811478  0.052543752   0.06274587            1 
   80000    1.1391913   -4.7063507    50.581312  0.052688866   0.06258357            1 
   81000    1.1427449   -4.7273456    51.204323  0.052679344  0.062426567            3 
   82000    1.1087199   -4.7163195    51.824361  0.052667034  0.062270946            1 
   83000    1.1204243   -4.7508324    52.577708  0.052788863   0.06212969            2 
   84000    1.1332387   -4.7206646    53.541612  0.053116678  0.061992484            4 
   85000    1.1212973   -4.7823949     53.73831  0.052684617   0.06186384            3 
   86000    1.1167324   -4.7758287    54.215283  0.052534188  0.061720123            3 
   87000    1.1372717   -4.7370808    55.071921  0.052750882  0.061570964            3 
   88000    1.1482197   -4.7628689    55.534163   0.05258917  0.061429832            3 
   89000    1.1549398   -4.7084321    56.405077  0.052813743    0.0612915            5 
   90000    1.1356082   -4.7665437    57.171625  0.052936689   0.06116535            4 
   91000    1.1190472   -4.7539537    57.672654  0.052813785   0.06104872            2 
   92000    1.1615828   -4.7290062     58.76113  0.053225661  0.060943561            2 
   93000     1.124789   -4.7716857    58.902303  0.052779841  0.060830695            9 
   94000     1.126587   -4.7254247    59.886195  0.053090598  0.060719822            2 
   95000    1.1054179   -4.7498177    60.597873  0.053156029  0.060621479            3 
   96000    1.1095829   -4.7947966    60.999268  0.052950753  0.060523867            2 
   97000    1.1016242   -4.7752806    61.548363    0.0528766  0.060427388            2 
   98000    1.1145533   -4.7739158    62.440868  0.053095976  0.060329643            4 
   99000    1.1331848   -4.7641067    62.981135  0.053014423  0.060228125            3 
  100000    1.1036868   -4.7396897    63.934816  0.053279013  0.060128028            2 
  101000    1.1365488   -4.7657085    64.115441  0.052900528   0.06003522            4 
  102000    1.1171148   -4.7481902    65.135103  0.053214953  0.059933449            2 
  103000    1.1002657   -4.7880395    65.455871  0.052957824  0.059828135            3 
  104000     1.095899   -4.7543606    65.670285   0.05262042  0.059718681            2 
  105000    1.0945003   -4.7579792    66.447974  0.052736487  0.059593662            4 
  106000     1.098553    -4.774211     66.97615  0.052654206  0.059471841            4 
  107000    1.0859776    -4.793755    67.618954  0.052662736   0.05934975            2 
  108000    1.1291124   -4.7953497    68.063886   0.05251843  0.059231895            4 
  109000    1.0848562   -4.8349135    68.540784  0.052401211  0.059108415            7 
  110000    1.1105324   -4.8188813    69.394915  0.052571905   0.05899629            4 
  111000    1.0629862   -4.8283928    69.576531  0.052234632  0.058881942            1 
  112000    1.0729356   -4.8130349    70.163053  0.052204652  0.058753194            3 
  113000    1.0711124   -4.8380949    70.703419  0.052141164  0.058624915            2 
  114000    1.0854905   -4.8280781    71.330096  0.052141883  0.058502271            4 
  115000    1.0763024   -4.8071824    72.248261  0.052353812  0.058387289            3 
  116000    1.0915425   -4.8062327    72.845668  0.052331658   0.05827622            4 
  117000    1.0786292   -4.8929623    72.905444  0.051926954  0.058160046            4 
  118000    1.0674371   -4.8525598    73.718571  0.052061137  0.058038927            4 
  119000    1.0524573   -4.8059882    74.515503  0.052181725  0.057925146            3 
  120000    1.0657585   -4.8356935    74.781011  0.051931258  0.057817263            3 
  121000    1.0549728   -4.8324698    74.969833  0.051632116  0.057693722            5 
  122000    1.0734966   -4.8509217    75.847226  0.051808214  0.057566253            3 
  123000    1.0675535   -4.8595994    75.806774  0.051359603  0.057441282            1 
  124000    1.0685865    -4.834201    76.930049  0.051700302  0.057317166            3 
  125000    1.0745282   -4.7899838    77.751428  0.051834285  0.057198538            2 
  126000    1.0794871   -4.8616732     77.87663  0.051505708  0.057083302            7 
  127000      1.05387    -4.893264    78.456082  0.051480368   0.05696827            2 
  128000    1.0751801   -4.8462745    79.305484  0.051631174  0.056856723            4 
  129000    1.0734413   -4.8746867    79.141674  0.051125112   0.05674326            3 
  130000    1.0683424   -4.8672974    80.202889  0.051412108  0.056625797            2 
  131000    1.0756219   -4.8699534    80.628671  0.051290503  0.056510121            2 
  132000    1.0786362   -4.8777249    81.037794  0.051160223   0.05638845            5 
  133000    1.0624358   -4.8661158    81.552297   0.05109793  0.056267502            4 
  134000    1.0505678   -4.8601898      82.1859  0.051110634  0.056155175            3 
  135000    1.0359744   -4.8594857    82.770288   0.05109277  0.056044975            7 
  136000    1.0437425   -4.9042719    83.425582  0.051118616  0.055932594            3 
  137000    1.0542546   -4.8802525    83.934764  0.051055209  0.055825197            3 
  138000     1.058301   -4.9078994    84.201747  0.050846466  0.055713435            3 
  139000    1.0623235   -4.8705847     84.56257  0.050696984  0.055600324            5 
  140000    1.0321268   -4.8991704     84.66987  0.050398732  0.055481962            3 
  141000    1.0436805   -4.9076366    85.329615  0.050431214   0.05535917            3 
  142000     1.038739   -4.9147843    85.817987  0.050362668  0.055234577            3 
  143000    1.0308725    -4.915071    86.142864  0.050199804  0.055107058            3 
  144000    1.0459402   -4.9259415    86.442419  0.050024548  0.054982909            1 
  145000    1.0255915   -4.9468138    86.947124  0.049969611  0.054854105            4 
  146000    1.0410485    -4.917635    87.380655  0.049874803   0.05472247            3 
  147000    1.0286726   -4.9180423    87.847853   0.04980037  0.054593028            2 
  148000    1.0271004   -4.9048992      88.5079  0.049835529  0.054463456            2 
  149000    1.0303147   -4.9484549    89.056074  0.049807647  0.054335195            5 
  150000    1.0285019   -4.9530411    89.173148  0.049540637   0.05420698            3 
  151000     1.014396   -4.9053326    89.762813  0.049537976  0.054078071            5 
  152000    1.0274538   -4.9522674    90.261118  0.049485262  0.053950619            3 
  153000    1.0212571   -4.9613388    90.552405  0.049320482   0.05382831            2 
  154000    1.0499792   -4.9614501    91.142139  0.049319339  0.053705252            3 
  155000   0.98870285    -4.929389    91.561234   0.04922647  0.053580538            3 
  156000    1.0205074   -4.9622354    92.218384  0.049261957  0.053460123            1 
  157000     1.014422   -4.9317452    92.621885  0.049162359  0.053341238            2 
  158000    1.0348145   -4.9649015    93.147468  0.049128411  0.053219883            2 
  159000    1.0005167   -4.9863981    93.454903  0.048980557  0.053100507            7 
  160000    1.0163944   -4.9626644    93.859352  0.048885079    0.0529818            2 
  161000    1.0315936   -4.9843801    94.222728  0.048769528  0.052862663            3 
  162000    1.0155584   -5.0007929    94.784117  0.048757262  0.052745657            3 
  163000    1.0047895   -4.9848947    95.555305  0.048852405  0.052628692            4 
  164000    1.0321388   -4.9970368    95.762907  0.048660013  0.052511703            3 
  165000    1.0116926   -4.9438766    96.720171  0.048848571  0.052399586            2 
  166000    1.0097005    -4.986345    96.872053  0.048630549  0.052290391            5 
  167000   0.97257801   -4.9840481    97.557945  0.048681609  0.052183986            4 
  168000    1.0125165   -4.9749916    98.373992  0.048796623  0.052078698            3 
  169000    1.0024559   -4.9764773    98.219272  0.048431594  0.051975331            5 
  170000    1.0130044   -5.0068747    99.142358  0.048599195   0.05187134            3 
  171000   0.99480813   -4.9987967    99.036179  0.048263245  0.051766609            4 
  172000    1.0128602   -5.0005211    99.486702  0.048200921  0.051658276            3 
  173000    1.0141924   -4.9801441       99.783  0.048065029  0.051550002            1 
  174000   0.99411788   -5.0051672    100.22608  0.048000996  0.051443689            3 
  175000   0.97064479   -5.0301256    100.96324  0.048077732  0.051338383            2 
  176000   0.98982419   -4.9952886    101.25049  0.047940572  0.051229632            2 
  177000   0.97479598   -5.0296173     101.3973  0.047738842  0.051120318            6 
  178000   0.97780269   -5.0230113    101.89643  0.047704323  0.051009627            4 
  179000    0.9819198   -5.0375952    102.41898  0.047681089  0.050900078            4 
  180000   0.97345791   -5.0489869    102.27804  0.047350944  0.050790585            7 
  181000    1.0023665   -5.0401672    102.92904   0.04738906  0.050676118            4 
  182000   0.98003186   -5.0323739    103.69351  0.047478714  0.050562638           10 
  183000   0.96610631   -5.0492845    103.27483  0.047028611    0.0504504            4 
  184000     0.985413   -5.0364428    103.54486  0.046895317  0.050335507            5 
  185000    0.9726121   -5.0298233    104.28082  0.046973343  0.050218911            3 
  186000   0.97601135    -5.061502    104.64063  0.046882002  0.050106684            5 
  187000   0.95428256   -5.0470879     105.4928  0.047011052  0.049996522            3 
  188000   0.97839493   -5.0616505    105.91546  0.046948343  0.049890199            3 
  189000   0.95388011    -5.045942    106.28812  0.046864249  0.049783503            2 
  190000   0.96472702   -5.0874426    106.25532   0.04660321  0.049676118            3 
  191000   0.94619318   -5.0368911    106.85002  0.046618681  0.049568539            6 
  192000   0.93891408   -5.0789968    106.92451  0.046408209  0.049462607            2 
  193000    0.9607339   -5.0669086    107.59584  0.046457615  0.049358109            3 
  194000   0.95537534   -5.0195435    108.22009  0.046486292  0.049252598            5 
  195000   0.95392088   -5.0468554    109.00656     0.046584  0.049144879            9 
  196000   0.95753777    -5.088237    109.28897  0.046466398  0.049042358            2 
  197000   0.92904754   -5.0880648     109.3977  0.046276525  0.048938152            3 
  198000   0.94939986   -5.0965956     109.1105  0.045921926  0.048833767            6 
  199000   0.95865192   -5.1055288    109.55309  0.045876501  0.048726376            6 
  200000   0.94379849   -5.1223155    109.83401   0.04576417  0.048616543            6 
  201000   0.94129313   -5.1312856    109.85036  0.045543268  0.048507753            7 
  202000    0.9311079   -5.0933304    110.14105  0.045437726    0.0483959            3 
  203000   0.94733636    -5.096591    110.73334  0.045457037  0.048282314            5 
  204000   0.94190979   -5.0893202    111.11577   0.04539043  0.048167036            3 
  205000   0.94649603   -5.1325398    111.18983  0.045199116  0.048052599            4 
  206000   0.94893992    -5.115442    111.58774  0.045140673  0.047940385            4 
  207000   0.93986208   -5.0812163    111.71958  0.044975678  0.047827491            5 
  208000   0.94046982   -5.0992445    112.21553  0.044958144  0.047713886            3 
  209000   0.93848606   -5.1485003    112.57438  0.044886115  0.047598616            5 
  210000   0.94313112   -5.1014222    112.88105  0.044794066  0.047482431            2 
  211000   0.92209676   -5.0965917    113.04019  0.044644626  0.047366469            9 
  212000     0.927537    -5.120277    112.64543  0.044278863  0.047249275            6 
  213000    0.9325088   -5.1051682    113.77358  0.044512356  0.047131147            4 
  214000   0.91987043   -5.1069761    114.00728  0.044395359  0.047013589            5 
  215000   0.92867689   -5.1600868    113.90036  0.044147426  0.046897864            4 
  216000   0.91895598   -5.1113171     114.7573  0.044273649  0.046781744           13 
  217000   0.93512441   -5.1597508    115.07284  0.044190799  0.046669346            3 
  218000   0.93160717   -5.1595884    115.29119  0.044071556  0.046555732           15 
  219000   0.92387152   -5.1678356    114.79233   0.04368049  0.046439485            7 
  220000    0.8898766   -5.1514171    115.48915  0.043745891  0.046321304            2 
  221000   0.91348026    -5.165083    115.49405  0.043549792  0.046201257            4 
  222000   0.92763308   -5.1340978    116.05925  0.043565785  0.046083777            4 
  223000    0.9367586   -5.1467791    116.42002  0.043505239  0.045965652            3 
  224000   0.93050238   -5.1974506     116.2451  0.043245943   0.04584979            6 
  225000   0.91274685   -5.1974244    116.24145  0.043052389  0.045733246            2 
  226000   0.89781044   -5.1539399    117.05117  0.043160463  0.045617347            2 
  227000    0.8928492   -5.1356706    117.61385  0.043176889  0.045504871            3 
  228000   0.89502464   -5.1796672    117.30556  0.042874839  0.045390423            3 
  229000   0.90402583   -5.1914606    117.84204  0.042882837   0.04527249            4 
  230000    0.8990903   -5.1952804     117.8159   0.04268692  0.045159054            3 
  231000   0.88676544   -5.1919204    118.26449  0.042663959  0.045044121            7 
  232000   0.89672502    -5.191279    118.49811  0.042563975  0.044930539            4 
  233000   0.89946966   -5.2060944    118.54662  0.042398648  0.044816364            3 
  234000   0.89623777   -5.2292808    119.11524  0.042419959  0.044701821            6 
  235000   0.88287418   -5.1756575    119.16318  0.042256445  0.044586037            2 
  236000   0.90217399   -5.1977314    119.20881  0.042093506  0.044469679            5 
  237000   0.88917939   -5.2013191    119.71006  0.042092145  0.044353755            4 
  238000   0.88533687   -5.2167553    120.09206   0.04204904  0.044239195            6 
  239000   0.88794408   -5.2333799    119.70959  0.041739747  0.044125384            4 
  240000    0.8975167   -5.2243251    120.45187  0.041823566  0.044010908            4 
  241000   0.90452482   -5.2145627    120.87407  0.041796014  0.043898696           12 
  242000   0.90029641    -5.241635    121.05779  0.041686566  0.043787139            8 
  243000    0.8764405   -5.2264068    121.50897  0.041669744  0.043676385            5 
  244000   0.87552609   -5.2058467    121.46028  0.041482336  0.043564294            5 
  245000   0.87866456   -5.2433895    122.00114  0.041496987  0.043452355            4 
  246000   0.88243312    -5.260047    122.26114  0.041416375  0.043339508            7 
  247000   0.87133935   -5.2303643    121.86041  0.041113498   0.04322663            4 
  248000   0.86633252   -5.2300115    122.66453   0.04121792  0.043114494            4 
  249000   0.86541863   -5.2619674     122.7718  0.041088286  0.043002516            5 
  250000   0.86091418   -5.2714207    122.62527  0.040875092  0.042890995            4 
  251000   0.86281391   -5.2544168    123.04749  0.040852419  0.042780707            4 
  252000   0.85785623   -5.2473085    123.72292  0.040913664  0.042672681            4 
  253000   0.86030084   -5.2804839    123.85794  0.040796424  0.042565324            5 
  254000   0.86093747   -5.2625295     123.7474  0.040599541  0.042457111            8 
  255000   0.87359808   -5.2705699    124.19168  0.040585517  0.042349004            6 
  256000   0.85635498   -5.3039537    124.34687  0.040477495  0.042241219            4 
  257000   0.85832278   -5.2694534    124.49312   0.04036742  0.042134644            3 
  258000   0.88086073   -5.3069194    124.97582  0.040366868  0.042029479            5 
  259000   0.87500648   -5.3044871    124.75661   0.04014048  0.041924251            4 
  260000   0.86478525   -5.2987993    125.72945  0.040297899  0.041817697            2 
  261000    0.8568978   -5.2708434    126.15965   0.04028086  0.041712656            3 
  262000   0.86030664   -5.3169257    126.18983  0.040136716  0.041608993            4 
  263000   0.84364627   -5.2572901     126.4892  0.040078961  0.041505894            5 
  264000   0.85806657   -5.3183344    126.79907   0.04002496   0.04140519            7 
  265000   0.85901264   -5.3176075    126.39795  0.039747782   0.04130234            3 
  266000   0.83863007    -5.311073    126.68846  0.039689368  0.041198319            5 
  267000   0.84190509    -5.319642    126.85459  0.039592567   0.04109421            4 
  268000   0.83328993   -5.3223693    126.94174  0.039471933  0.040988843            9 
  269000   0.83166713   -5.3255019     127.4201  0.039473389  0.040884355            5 
  270000   0.86847515   -5.3002674    127.87385  0.039467239   0.04078187            5 
  271000   0.83358163   -5.3137551     128.2136  0.039426077  0.040679253           10 
  272000   0.84306883   -5.3409755    127.86527  0.039174408  0.040576982            4 
  273000   0.82785908   -5.3352666    128.01907   0.03907786  0.040474458            4 
  274000   0.84593715   -5.3207574    128.40743  0.039053353    0.0403728            4 
  275000   0.82946729   -5.3576094     128.6072  0.038971879  0.040271209           10 
  276000   0.83109477   -5.3318047    129.12363  0.038986604  0.040170632            5 
  277000   0.82123651   -5.3431721    129.62675  0.038997218  0.040072788            4 
  278000   0.83168942    -5.364092     129.5064  0.038820864  0.039973799            3 
  279000   0.81102868    -5.347101    129.29864  0.038619667  0.039875707            4 
  280000   0.82429452   -5.3618896    130.01184  0.038694001  0.039776614           22 
  281000   0.80051956   -5.3486418    130.12425  0.038589636  0.039678168            3 
  282000   0.82397397   -5.3407454    130.24357  0.038488053  0.039581637            8 
  283000   0.80531952   -5.3512434    130.53106  0.038436707  0.039486578            5 
  284000   0.82524625   -5.3503566    130.69636  0.038349871  0.039390981            5 
  285000   0.81914219    -5.383955     130.2938  0.038097603  0.039293896            4 
  286000   0.81618429   -5.3490381    130.98044  0.038164465  0.039196779            4 
  287000   0.80176489   -5.3852399    131.13243  0.038075619  0.039100384            6 
  288000   0.81631479   -5.3626324    131.48358  0.038045016  0.039003841            4 
  289000   0.80141906   -5.3897535    131.48667  0.037914265   0.03890843           16 
  290000   0.80315651    -5.350419    132.26945  0.038008464  0.038813724            5 
  291000   0.79877254   -5.3857356    132.42104   0.03792126  0.038719658            7 
  292000   0.79690246   -5.3890714    132.13073  0.037708541  0.038625877            5 
  293000   0.80953023    -5.382742    132.71259  0.037745332  0.038531771            7 
  294000   0.82302512   -5.3679423    133.08289  0.037721909  0.038439358            7 
  295000   0.79861303   -5.4283551    132.89907  0.037542111  0.038345521            5 
  296000   0.78740597   -5.4156757    132.73849  0.037370072  0.038249217            8 
  297000   0.79385176   -5.4451521    132.32327  0.037127742  0.038152861            7 
  298000   0.79689697   -5.4283448    132.90352  0.037165413  0.038057534            3 
  299000   0.80455153   -5.4173159    133.04133  0.037079523   0.03796205            6 
  300000   0.76740572   -5.4026696    133.09341  0.036970391  0.037866364            5 
  301000   0.78914769   -5.4116892    133.45077  0.036946504  0.037770769            4 
  302000   0.79132253   -5.4220579    133.80625  0.036922253  0.037675709            5 
  303000    0.7989076   -5.4246267    133.38988  0.036685885  0.037580584            8 
  304000   0.78501403   -5.4265146    133.71454  0.036654204   0.03748441            4 
  305000    0.7806296   -5.4520206     133.8646  0.036575026   0.03738871            8 
  306000   0.77388795    -5.445293    134.47523  0.036621794  0.037293911            5 
  307000   0.80643943   -5.4349404    134.67271   0.03655611  0.037200473            9 
  308000    0.7804452   -5.4549118    134.86036  0.036488192   0.03710735            5 
  309000   0.76730482   -5.4486678    134.62123  0.036305617  0.037014631            7 
  310000   0.77513606   -5.4698447    134.91165  0.036266572  0.036922965            4 
  311000   0.78143773    -5.453797    134.98996  0.036170942  0.036830003            7 
  312000   0.77067556   -5.4656045    135.38328  0.036160064  0.036737248            5 
  313000   0.76723206   -5.4625118    135.16945  0.035987607   0.03664495            4 
  314000   0.75675116   -5.4967519    135.29431  0.035906133  0.036552196           12 
  315000   0.76335139   -5.5022377    135.40088   0.03582034  0.036459155            7 
  316000   0.73536811   -5.4817412    135.29811  0.035679881  0.036366248            6 
  317000   0.76917431   -5.5036887    135.26105  0.035557585  0.036273622            8 
  318000   0.74790873   -5.4881693    135.06323  0.035393928  0.036180035            6 
  319000   0.76814736   -5.5088059    135.56752  0.035414713  0.036087339            6 
  320000   0.77841559   -5.5138378    135.96054   0.03540639  0.035994227            4 
  321000    0.7626864   -5.4808741    136.07689  0.035326295  0.035901673            6 
  322000   0.73596327   -5.5055662    136.15774  0.035237511  0.035809109            7 
  323000   0.76054648   -5.5330761    135.72999  0.035018058  0.035715659            7 
  324000   0.76232282   -5.5111724    136.27657  0.035050557  0.035623481           10 
  325000     0.755177   -5.5015314    136.17837  0.034917531  0.035531226            9 
  326000   0.76375707   -5.5109762    136.78041  0.034964316  0.035439439            7 
  327000    0.7431978   -5.5235112    136.31397  0.034738524  0.035348259           12 
  328000    0.7638714    -5.537693    136.38118   0.03464969  0.035255887           14 
  329000   0.73979343    -5.526518    136.82946  0.034657917  0.035164143            5 
  330000   0.72455244   -5.5436603     136.4727  0.034462802  0.035071816            7 
  331000   0.74780318   -5.5253294    136.58548  0.034387081  0.034979537           10 
  332000   0.75309903    -5.551595     137.0655  0.034403991  0.034888188            9 
  333000    0.7328269   -5.5475058    137.31837  0.034363957   0.03479716            8 
  334000    0.7435124   -5.5616087     137.1061  0.034208108  0.034706162           12 
  335000   0.72056911   -5.5463436    137.06445  0.034095633  0.034614747            7 
  336000   0.71533832   -5.5437902     137.4698  0.034094693  0.034524033            6 
  337000   0.73122773   -5.5668104    137.43126  0.033983992  0.034433705            7 
  338000   0.71734161   -5.5683293    137.51539  0.033904189  0.034342583            8 
  339000   0.71857824   -5.5572044    137.47431  0.033794078  0.034252317            6 
  340000    0.7315947   -5.5763188    137.69183  0.033747996  0.034161721            5 
  341000   0.73299593   -5.5920581    137.71999   0.03365591  0.034071404            7 
  342000   0.72461616   -5.5737209    138.07089  0.033643004  0.033980995           10 
  343000   0.71646497   -5.6024825     138.1983  0.033575873  0.033891207            4 
  344000   0.72322261   -5.6036471    138.13092  0.033461948  0.033801602           10 
  345000   0.70079515   -5.5917148     138.5793  0.033473262  0.033712452            5 
  346000   0.72250125    -5.567746    138.78353  0.033425705  0.033623804            6 
  347000   0.72291483   -5.5614256    138.78678  0.033330157  0.033535771           11 
  348000   0.71423657   -5.6023722    138.62241  0.033195021  0.033447718            5 
  349000   0.69959846   -5.6244448    138.52432  0.033076484  0.033359801           10 
  350000   0.71056599   -5.6116711    138.85976  0.033061848  0.033270748            7 
  351000   0.71164259   -5.6113567    138.32617  0.032840971   0.03318201            9 
  352000   0.71946266    -5.610235    138.90919  0.032885699  0.033093614           10 
  353000   0.72879807   -5.6258909      138.913  0.032793438  0.033005824            4 
  354000   0.68124399   -5.6164275    139.22896  0.032775178  0.032917737            8 
  355000   0.70524784   -5.5865743    139.24181   0.03268587  0.032830034            6 
  356000   0.70297365   -5.5976993    139.05736   0.03255088   0.03274314           19 
  357000   0.71267465   -5.6195668    139.25841  0.032506632  0.032656485            8 
  358000   0.72331942    -5.625268    139.66995  0.032511627  0.032569939            9 
  359000   0.70404054   -5.6645737    139.29082   0.03233306  0.032483512           16 
  360000   0.67047248   -5.6269481    139.65268  0.032327009  0.032397268           14 
  361000   0.68907772   -5.6368165     139.6535  0.032237651   0.03231204           15 
  362000   0.68297058   -5.6557559    139.77325  0.032176162  0.032226975            9 
  363000   0.70158415   -5.6377323     140.0586  0.032153031   0.03214195           25 
  364000   0.68724237   -5.6431738    140.24924  0.032108342  0.032057645            6 
  365000   0.67809189   -5.6708638    139.81985  0.031922339  0.031972997           12 
  366000   0.69888237   -5.6580168    139.85702  0.031843584  0.031888044           12 
  367000   0.69010568     -5.65525    139.88375  0.031762886   0.03180285           14 
  368000    0.6788386   -5.6861234    140.04226  0.031712469  0.031717772           19 
  369000   0.68574401   -5.6879909    140.54626  0.031740347  0.031633627            9 
  370000   0.66642898   -5.6794962    140.24038  0.031585672  0.031549312           11 
  371000   0.68334446   -5.6887434    140.14506  0.031479124  0.031465672           10 
  372000   0.67398664   -5.6772106    140.19593  0.031405899  0.031381705           10 
  373000    0.6620699   -5.6927301    140.71394   0.03143743  0.031297764           19 
  374000   0.67995257   -5.7229688    140.16463  0.031230978  0.031214073           15 
  375000   0.66992613   -5.7113033    140.11364  0.031136364  0.031129999           11 
  376000   0.66880096   -5.7164722    140.47324  0.031133253  0.031045223           14 
  377000   0.67757364   -5.7160236    140.29794  0.031011922  0.030961244           12 
  378000   0.66004971   -5.7173907    140.32147  0.030935069  0.030876815            7 
  379000    0.6635363   -5.7095918    140.05729  0.030795358  0.030792441           11 
  380000   0.66694094   -5.6916995    140.63296  0.030840562  0.030708817           22 
  381000   0.66048476   -5.7212305     140.2324  0.030672003  0.030625301           10 
  382000   0.65161093   -5.7250764    140.65678   0.03068429  0.030541966           12 
  383000   0.67190546   -5.7268611     140.6583  0.030604504  0.030458883            5 
  384000   0.63547853   -5.7144225    140.67968  0.030529443  0.030375637            7 
  385000   0.65589081    -5.729833    140.34691  0.030378119  0.030291861           13 
  386000   0.67322455   -5.7569324    140.87132  0.030412635  0.030208457            7 
  387000   0.64989482   -5.7586317    140.64291  0.030284863  0.030125318           16 
  388000     0.631825   -5.7552256    140.94416  0.030271513  0.030042481            6 
  389000   0.63447093   -5.7811342    140.93575  0.030191892  0.029960301           12 
  390000   0.65605211   -5.7418664    141.02412  0.030133359  0.029877717           18 
  391000    0.6384609   -5.7637823    140.86184  0.030021705  0.029795432            7 
  392000   0.63452358   -5.7420502    140.84137  0.029940768  0.029713686            6 
  393000   0.62211827   -5.7914813     140.6332  0.029820442  0.029631415           16 
  394000   0.64840838   -5.7750665    140.72712  0.029764619  0.029549122           14 
  395000   0.65698587   -5.7822242    140.90348  0.029726473  0.029467281           11 
  396000   0.63468458   -5.7910761    141.12628  0.029698291  0.029385674           12 
  397000   0.63113252   -5.7744238    141.00489  0.029598004  0.029304734           29 
  398000   0.64164181   -5.8166903    140.79153  0.029478964  0.029223314           14 
  399000   0.62287766   -5.7689013    141.28129  0.029507371  0.029142974            9 
  400000   0.63529991   -5.7763687    141.32605  0.029442927  0.029063002           20 
  401000   0.63962377   -5.7948565    141.13909   0.02933065  0.028982959           15 
  402000   0.62156345   -5.7879492    141.39802  0.029311364   0.02890253           26 
  403000    0.6074646   -5.8003714    141.31945  0.029222384  0.028822706           37 
  404000   0.63100608   -5.8180004     141.1283  0.029110624  0.028742432           31 
  405000   0.62078623   -5.8165596    141.04532   0.02902167  0.028662222           14 
  406000   0.62336621   -5.8149556    141.24487  0.028991147  0.028582897           21 
  407000   0.60975746   -5.8044415    141.41037  0.028953802   0.02850377           18 
  408000   0.61270371   -5.8237586    141.19731   0.02883932  0.028424704           13 
  409000   0.61472948   -5.8107149    141.45294  0.028820893  0.028345781            8 
  410000   0.61964515   -5.8115598    141.28179  0.028715812  0.028267329           13 
  411000   0.62079035   -5.8265244     141.1883  0.028626987  0.028189144            9 
  412000   0.60472883   -5.8467846    141.34719  0.028589643  0.028110889            7 
  413000   0.61145049   -5.8416705    141.43576   0.02853829  0.028032666           16 
  414000   0.61140109   -5.8318405    141.74674  0.028531953  0.027954318            9 
  415000   0.60371804   -5.8530342    141.53795  0.028421274  0.027876253           17 
  416000   0.59856307   -5.8478127    141.70281  0.028385979  0.027798343           11 
  417000   0.60260733   -5.8571122    141.50494  0.028278365  0.027720518           11 
  418000      0.58918   -5.8545157    141.82664  0.028274849  0.027643147           13 
  419000   0.61572418   -5.8518338    141.32411   0.02810742   0.02756582           21 
  420000   0.60059777   -5.8620655     141.4523  0.028065933  0.027488536           20 
  421000   0.60473647   -5.8643883    141.32526  0.027974122  0.027411448           15 
  422000   0.59694432   -5.8652102    141.69168   0.02798019  0.027334429           30 
  423000   0.60131599   -5.9027905    141.59944   0.02789587  0.027257439           22 
  424000   0.58962826   -5.8833357    141.53716  0.027817838  0.027180981           31 
  425000   0.58636617   -5.8852065    141.44128  0.027733583  0.027104639           23 
  426000   0.58896915   -5.8992067    141.25457  0.027631959  0.027028147           32 
  427000   0.58977767   -5.8981333    141.26057  0.027568418  0.026951809           87 
  428000   0.57711174   -5.9033244    141.55763  0.027561844  0.026875976           26 
  429000   0.58659747   -5.9032208    141.47786  0.027482102  0.026800273           40 
  430000   0.58216877   -5.8778092    141.51779  0.027425929  0.026724641           15 
  431000    0.5774225   -5.9143606    141.34604  0.027329088  0.026648985           27 
  432000   0.56656788    -5.914438    141.22865   0.02724318  0.026573692           15 
  433000   0.57374728     -5.91751    141.33565  0.027200856  0.026498325           33 
  434000   0.58202953   -5.9065138    141.27935  0.027127372  0.026423586           19 
  435000    0.5783759   -5.8888596    142.02057  0.027207005  0.026349228           16 
  436000   0.57007255   -5.9265981    141.63932  0.027071735  0.026275216           26 
  437000   0.58463148    -5.920881    141.42173  0.026968293  0.026201033           23 
  438000   0.56572291   -5.9462461    141.45755  0.026913537  0.026126962           15 
  439000    0.5646461   -5.9330346    141.33563  0.026829087  0.026053232           17 
  440000   0.57198421   -5.9477606    141.20493  0.026743359  0.025979912           32 
  441000   0.56315836   -5.9343583    141.39633  0.026718883  0.025906452           26 
  442000   0.54927611   -5.9565296    141.55991  0.026689275  0.025833118           30 
  443000   0.55471194   -5.9380366    141.39499  0.026598004  0.025759618           24 
  444000   0.55957876    -5.993119     141.1095  0.026484515  0.025686126           18 
  445000   0.55609168   -5.9572396    141.46354  0.026491299  0.025612825           31 
  446000   0.55715684   -5.9785396    141.35375  0.026411388   0.02553965           18 
  447000   0.56556941   -5.9770436    141.36869  0.026355087  0.025466568           41 
  448000   0.56137124   -5.9922962    141.24103  0.026272512  0.025393582           22 
  449000   0.55819095   -5.9829824    141.22594  0.026211199  0.025320796           19 
  450000   0.55076837   -5.9926968    141.16268  0.026141237  0.025248454           39 
  451000   0.55253396    -5.988868    140.78834  0.026014106  0.025176117           30 
  452000   0.53306794   -5.9826042    140.92835  0.025982366  0.025104039           18 
  453000   0.53848055   -6.0088984    141.38139  0.026008351  0.025032168           44 
  454000    0.5441511   -5.9972401    141.47806  0.025968807  0.024960702           42 
  455000   0.53161398   -6.0068056    141.23437  0.025867101  0.024889414           34 
  456000   0.54801684   -6.0173393    141.06617  0.025779636  0.024818132           33 
  457000   0.54776178   -5.9968552    141.28666  0.025763431  0.024747128           39 
  458000   0.53953101   -5.9997768    141.09551  0.025672401  0.024676117           47 
  459000   0.52911872   -6.0313362    141.01587  0.025602009  0.024605102           95 
  460000   0.53299478   -6.0306395    141.43358  0.025622025  0.024534123           49 
  461000   0.53660979   -6.0300981    141.09774  0.025505738   0.02446322           51 
  462000   0.53213619   -6.0282203    141.25075   0.02547813  0.024392597           44 
  463000   0.52705999   -6.0187003    141.09381  0.025394854  0.024322281           45 
  464000   0.51734618   -6.0281852     141.1163  0.025344163  0.024252264           85 
  465000   0.53602784   -6.0290354    140.93212  0.025256653  0.024182214           72 
  466000   0.52676097   -6.0495766    140.87542  0.025192315  0.024112472           54 
  467000   0.52518588   -6.0599927    140.93579  0.025149142  0.024042958           53 
  468000   0.52151674   -6.0485881    140.82264  0.025075256  0.023973301           97 
  469000   0.51534186   -6.0538697    140.91259  0.025037774  0.023903986          161 
  470000   0.51652812   -6.0451667     141.0138  0.025002446  0.023834849          124 
  471000   0.49944502   -6.0711804    140.66356  0.024887395  0.023765943          130 
  472000   0.51426478   -6.0879216    140.90911  0.024878021  0.023697171          227 
  473000    0.4963313   -6.0832898    140.51052    0.0247552  0.023628404          208 
  474000   0.51281694   -6.0775007    140.93367  0.024777368  0.023559946          121 
  475000   0.51831465   -6.0818182     140.6671  0.024678439  0.023491622          209 
  476000   0.51067979   -6.0779997    140.42638   0.02458445  0.023423391          136 
  477000   0.50529387   -6.0971518    140.79471  0.024597259  0.023355543          205 
  478000   0.50574235   -6.0778825     140.4374  0.024483507  0.023288127           88 
  479000   0.50915806   -6.1043885    140.50222  0.024443671  0.023220671           68 
  480000   0.49862441   -6.1298431     140.6191  0.024413037   0.02315338          342 
  481000   0.50457994   -6.0960868    140.22871  0.024294648  0.023086196          101 
  482000   0.49285857   -6.1033445    140.54731  0.024299328  0.023019244          263 
  483000    0.4912865   -6.0972455    140.76779  0.024287059  0.022952473          106 
  484000   0.49593896    -6.098703    140.70364  0.024225834  0.022886119           95 
  485000   0.48423882   -6.1342546    140.55904  0.024151038  0.022819761          226 
  486000   0.49821128   -6.1314542    140.69559  0.024124758  0.022753572          207 
  487000   0.50224157   -6.1352367    140.47395  0.024037295  0.022687395          410 
  488000   0.48952309   -6.1189054    140.41483  0.023977942  0.022621306          298 
  489000   0.49799885   -6.1263963     140.3841  0.023923671  0.022555519          256 
  490000   0.48998877   -6.1177994    140.43462  0.023883439  0.022489951          148 
  491000   0.48319807   -6.1567657    140.29995  0.023811941  0.022424519          295 
  492000   0.48480799   -6.1307239    140.67334  0.023826785  0.022359322          286 
  493000   0.47592222   -6.1426515    140.47242  0.023744494  0.022294269          395 
  494000   0.48322302   -6.1342791    140.39253   0.02368295  0.022229367          302 
  495000   0.48698488   -6.1442311    140.31159  0.023621479  0.022164612          138 
  496000   0.47932151   -6.1473406    140.43641  0.023594827   0.02210015          415 
  497000   0.48750073   -6.1453254    140.08813  0.023488956  0.022035981          368 
  498000   0.48322558     -6.15755    140.20057  0.023460604    0.0219719          355 
  499000   0.47573928   -6.1701039    139.99789  0.023379741  0.021907924          283 
  500000   0.46028631   -6.1732567    139.97795  0.023329658  0.021843943          456 
  501000   0.46900126   -6.1595305     140.1962  0.023319395  0.021780159          245 
  502000   0.46600976   -6.1806062    139.80963   0.02320877  0.021716503          469 
  503000   0.45015711    -6.177041    140.16447  0.023221417  0.021653058          445 
  504000     0.455746   -6.1828499    139.95397  0.023140537   0.02158979          438 
  505000   0.45767868   -6.1997637    140.02452  0.023106356  0.021526807          350 
  506000   0.48049316   -6.1906104    139.94822  0.023048126  0.021464038          427 
  507000   0.46132924   -6.1817588    140.19795  0.023043713  0.021401441          429 
  508000   0.45272517   -6.1866113    140.07385  0.022977994  0.021339021          320 
  509000   0.45584467   -6.1997052    139.99354  0.022919702  0.021276761          451 
  510000   0.45165024   -6.2028389    139.76286  0.022837068  0.021214562          448 
  511000   0.45555417   -6.2100309    139.61123   0.02276765  0.021152574          549 
  512000   0.44756524   -6.2019279    139.51506   0.02270753  0.021090757          496 
Loop time of 1274.52 on 48 procs for 500000 steps with 4000 atoms

Performance: 67790.240 tau/day, 392.305 timesteps/s
99.4% CPU use with 48 MPI tasks x no OpenMP threads

MPI task timing breakdown:
Section |  min time  |  avg time  |  max time  |%varavg| %total
---------------------------------------------------------------
Pair    | 87.721     | 95.407     | 101.06     |  36.3 |  7.49
Neigh   | 8.7037     | 9.0083     | 9.6072     |   5.7 |  0.71
Comm    | 80.534     | 87.697     | 94.617     |  40.1 |  6.88
Output  | 0.92734    | 0.92897    | 0.99279    |   1.0 |  0.07
Modify  | 1065.8     | 1069.3     | 1073.7     |   5.8 | 83.90
Other   |            | 12.2       |            |       |  0.96

Nlocal:        83.3333 ave          92 max          77 min
Histogram: 2 2 9 10 8 7 5 1 3 1
Nghost:        2364.73 ave        2381 max        2343 min
Histogram: 1 0 4 6 4 10 10 7 3 3
Neighs:        16153.2 ave       17546 max       14658 min
Histogram: 5 2 4 4 9 5 3 7 3 6
FullNghs:      32305.4 ave       36084 max       29626 min
Histogram: 2 4 8 10 9 7 4 2 1 1

Total # of neighbors = 1550660
Ave neighs/atom = 387.66500
Neighbor list builds = 26859
Dangerous builds = 0

#clear
#
#next RN
#
#jump SELF
Total wall time: 0:21:18
