
units lj                  # Use reduced LJ style units
atom_style atomic         # Uncharged point particles
atom_modify map hash      # Needed for indexing of clusters etc
                          # Used to be able to find where atoms are in relation to each other.

# Define a lattice with which to populate the simulation cell. With units
# set to 'lj' the second argument to the lattice command is the reduced
# density rho* and the spacings are multiples of that required to acheive
# that density. Also define a simulation cell called 'box' in lattice units
# and fill it with atoms. Here we're creating a box which is ten lattice
# constants in each direction.
lattice fcc 1.0 spacing 1 1 1                 # All equal sizes - gives the right reduced density.
Lattice spacing in x,y,z = 1.5874011 1.5874011 1.5874011

region box block 0 10 0 10 0 10 units lattice # Defines a region, "box", in lattice units
create_box 1 box                              # Creates a simulation box as specified above,
Created orthogonal box = (0.0000000 0.0000000 0.0000000) to (15.874011 15.874011 15.874011)
  3 by 4 by 4 MPI processor grid
                                              # with one type of atom
create_atoms 1 box                            # Creates particles on lattice points
Created 4000 atoms
  using lattice units in orthogonal box = (0.0000000 0.0000000 0.0000000) to (15.874011 15.874011 15.874011)
  create_atoms CPU = 0.002 seconds


# Set the mass of the first (and only) atom type.
mass 1 1.0

# Lennard-Jones interactions between particles, 3.5 sigma cut-off. Apply
# long range tail corrections to energy and pressure and set all coefficients
# to unity since we work in reduced units here. Note that this doesn't shift
# the potential such that it goes to zero at the cutoff. That would require
# pair_modify('shift', 'yes').
pair_style lj/cut  3.5      # non-GPU version
pair_modify tail  yes
pair_coeff 1  1  1.0  1.0   # Intearaction between 1 and 1 set with epsilon = 1 and sigma = 1

write_data data.*
System init for write_data ...
Neighbor list info ...
  update every 1 steps, delay 10 steps, check yes
  max neighbors/atom: 2000, page size: 100000
  master list distance cutoff = 3.8
  ghost atom cutoff = 3.8
  binsize = 1.9, bins = 9 9 9
  1 neighbor lists, perpetual/occasional/extra = 1 0 0
  (1) pair lj/cut, perpetual
      attributes: half, newton on
      pair build: half/bin/atomonly/newton
      stencil: half/bin/3d
      bin: standard

#############################
#   M E L T   S Y S T E M   #
#############################

velocity all create 2.4 2750902 mom yes dist gaussian # Assign velocities
                                                    # Temperature 2.4, random number seed, zero linear momentum
						                                                        # Gaussian distribution

timestep 0.002   # simulation timestep
thermo 1000       # output thermodynamic data every 1000 steps

# Define a fix  in this case with index 1 applied to all
# particles in the simulation. This fix is for simulations
# in the anisotropic NPT ensemble. Note that we use the MTK
# correction.
fix 1 all npt temp 2.4 2.4 0.1 iso 5.68 5.68 0.5 mtk yes tchain 5 pchain 5 # Use NPT ensemble
                                                                         # Set temperature and pressure and damping
                                                                         # Numbers of thermostats in chain and in barostat
run 1000         # run for 10000 steps
Per MPI rank memory allocation (min/avg/max) = 3.642 | 3.644 | 3.648 Mbytes
Step Temp E_pair E_mol TotEng Press Volume 
       0          2.4   -8.3859253            0   -4.7868253   -2.2405722         4000 
    1000    2.3434012   -4.4238704            0  -0.90964738    5.8682558    5151.8188 
Loop time of 0.218415 on 48 procs for 1000 steps with 4000 atoms

Performance: 791153.633 tau/day, 4578.435 timesteps/s
99.3% CPU use with 48 MPI tasks x no OpenMP threads

MPI task timing breakdown:
Section |  min time  |  avg time  |  max time  |%varavg| %total
---------------------------------------------------------------
Pair    | 0.087473   | 0.1001     | 0.11601    |   1.5 | 45.83
Neigh   | 0.017338   | 0.018782   | 0.020355   |   0.5 |  8.60
Comm    | 0.058978   | 0.075224   | 0.091409   |   2.1 | 34.44
Output  | 2.5188e-05 | 2.5801e-05 | 3.2795e-05 |   0.0 |  0.01
Modify  | 0.019554   | 0.022748   | 0.027243   |   1.6 | 10.42
Other   |            | 0.001533   |            |       |  0.70

Nlocal:        83.3333 ave          95 max          78 min
Histogram: 8 10 8 7 5 5 2 1 1 1
Nghost:        1391.50 ave        1422 max        1362 min
Histogram: 4 2 3 6 11 8 4 3 2 5
Neighs:        7406.25 ave        8468 max        6555 min
Histogram: 2 6 8 5 10 4 6 2 1 4

Total # of neighbors = 355500
Ave neighs/atom = 88.875000
Neighbor list builds = 87
Dangerous builds = 20

# Equilibrate just above the melting temperature to avoid step fn in T

fix 1 all npt temp 1.25 1.25 0.1 iso 5.68 5.68 0.5 mtk yes tchain 5 pchain 5
run 1000
Per MPI rank memory allocation (min/avg/max) = 3.642 | 3.644 | 3.648 Mbytes
Step Temp E_pair E_mol TotEng Press Volume 
    1000    2.3434012   -4.4238704            0  -0.90964738    5.8682558    5151.8188 
    2000    1.2429145   -5.8542389            0   -3.9903333    5.7194736    4334.1532 
Loop time of 0.211413 on 48 procs for 1000 steps with 4000 atoms

Performance: 817356.571 tau/day, 4730.073 timesteps/s
99.6% CPU use with 48 MPI tasks x no OpenMP threads

MPI task timing breakdown:
Section |  min time  |  avg time  |  max time  |%varavg| %total
---------------------------------------------------------------
Pair    | 0.094005   | 0.099756   | 0.10904    |   1.0 | 47.19
Neigh   | 0.015665   | 0.016266   | 0.017635   |   0.3 |  7.69
Comm    | 0.062057   | 0.071846   | 0.078636   |   1.3 | 33.98
Output  | 2.2997e-05 | 2.4059e-05 | 3.0648e-05 |   0.0 |  0.01
Modify  | 0.019639   | 0.021604   | 0.02396    |   0.9 | 10.22
Other   |            | 0.001918   |            |       |  0.91

Nlocal:        83.3333 ave          91 max          76 min
Histogram: 2 0 6 7 12 2 13 2 2 2
Nghost:        1559.08 ave        1579 max        1541 min
Histogram: 2 2 8 11 4 8 3 5 3 2
Neighs:        8794.40 ave        9967 max        8047 min
Histogram: 4 3 11 7 11 7 2 2 0 1

Total # of neighbors = 422131
Ave neighs/atom = 105.53275
Neighbor list builds = 75
Dangerous builds = 8


# Small amount of linear quench

fix 1 all npt temp 1.25 ${temp} 0.1 iso 5.68 5.68 0.5 mtk yes tchain 5 pchain 5
fix 1 all npt temp 1.25 2 0.1 iso 5.68 5.68 0.5 mtk yes tchain 5 pchain 5
run 2000
Per MPI rank memory allocation (min/avg/max) = 3.643 | 3.645 | 3.648 Mbytes
Step Temp E_pair E_mol TotEng Press Volume 
    2000    1.2429145   -5.8542389            0   -3.9903333    5.7194736    4334.1532 
    3000    1.5704072   -5.3620379            0   -3.0070161    5.7678254    4574.9252 
    4000    1.9930693   -4.8687251            0   -1.8798685    5.7842852    4868.8619 
Loop time of 0.430668 on 48 procs for 2000 steps with 4000 atoms

Performance: 802475.190 tau/day, 4643.954 timesteps/s
99.6% CPU use with 48 MPI tasks x no OpenMP threads

MPI task timing breakdown:
Section |  min time  |  avg time  |  max time  |%varavg| %total
---------------------------------------------------------------
Pair    | 0.18239    | 0.19925    | 0.23385    |   1.7 | 46.27
Neigh   | 0.031538   | 0.032779   | 0.039159   |   0.6 |  7.61
Comm    | 0.11497    | 0.14884    | 0.16513    |   2.5 | 34.56
Output  | 4.764e-05  | 4.8814e-05 | 6.2682e-05 |   0.0 |  0.01
Modify  | 0.036414   | 0.045815   | 0.056746   |   3.0 | 10.64
Other   |            | 0.00393    |            |       |  0.91

Nlocal:        83.3333 ave          89 max          75 min
Histogram: 3 2 2 1 4 12 3 11 4 6
Nghost:        1438.23 ave        1463 max        1414 min
Histogram: 2 7 2 5 7 7 11 3 1 3
Neighs:        7814.96 ave        8603 max        6763 min
Histogram: 3 1 0 6 3 10 12 8 4 1

Total # of neighbors = 375118
Ave neighs/atom = 93.779500
Neighbor list builds = 149
Dangerous builds = 2

#############################
# F R E E Z E  S Y S T E M  #
#############################

# Define solid atoms. This closely follows ten Wolde  Ruiz-Montero and Frenkel  Faraday Discuss  1996  104  93-110
# Compute components of the per-atom q6 vector
compute q6 all orientorder/atom degrees 1 6 components 6 nnn NULL cutoff 1.3 # compute the Q6 parameter.
                                                                             # Use all neighbours within 1.3 unit cell.

# get number of connections
compute coord_number all coord/atom orientorder q6 0.5

# An atom is solid if it has 8 or more connections (of a possible 14)
variable is_solid atom c_coord_number>=8
group solid dynamic all var is_solid    # Must be dynamic to update
dynamic group solid defined

# do clustering
compute cluster solid cluster/atom 1.3 # Create a cluster where all atoms within are solid and max 1.3 units from another member

# define chunks one chunk per cluster
compute clus_chunks solid chunk/atom c_cluster nchunk every compress yes  # Says which atoms are in which chunk

# count the size of each chunk
compute size_chunks solid property/chunk clus_chunks count


# Find the maximum entry in the vector of chunk sizes
variable max_n equal max(c_size_chunks)


# Thermo style which includes this variable
thermo_style custom step temp pe vol v_max_n

thermo ${N}  # Print the thermo information every 100 steps
thermo 1000  

# Reset the npt fix at a lower temperature (below freezing)
fix 1  all npt temp  ${temp} ${temp}  0.1  iso  5.68  5.68  0.5  mtk yes tchain  5  pchain  5
fix 1  all npt temp  2 ${temp}  0.1  iso  5.68  5.68  0.5  mtk yes tchain  5  pchain  5
fix 1  all npt temp  2 2  0.1  iso  5.68  5.68  0.5  mtk yes tchain  5  pchain  5

dump dmp2 all dcd ${N} traj_${rand}.dcd
dump dmp2 all dcd 1000 traj_${rand}.dcd
dump dmp2 all dcd 1000 traj_462431.dcd


# fix rnuntil all halt ${N} v_max_n >= 3980 error soft message no   # Stop when solidified


run 1000000 # 5000000  # Run for this many steps
Neighbor list info ...
  update every 1 steps, delay 10 steps, check yes
  max neighbors/atom: 2000, page size: 100000
  master list distance cutoff = 3.8
  ghost atom cutoff = 3.8
  binsize = 1.9, bins = 9 9 9
  4 neighbor lists, perpetual/occasional/extra = 1 3 0
  (1) pair lj/cut, perpetual
      attributes: half, newton on
      pair build: half/bin/atomonly/newton
      stencil: half/bin/3d
      bin: standard
  (2) compute orientorder/atom, occasional
      attributes: full, newton on
      pair build: full/bin/atomonly
      stencil: full/bin/3d
      bin: standard
  (3) compute coord/atom, occasional
      attributes: full, newton on
      pair build: full/bin/atomonly
      stencil: full/bin/3d
      bin: standard
  (4) compute cluster/atom, occasional
      attributes: full, newton on
      pair build: full/bin/atomonly
      stencil: full/bin/3d
      bin: standard
Per MPI rank memory allocation (min/avg/max) = 9.323 | 9.329 | 9.336 Mbytes
Step Temp PotEng Volume v_max_n 
    4000    1.9930693   -4.8687251    4868.8619            1 
    5000    2.0017332   -4.7583949    4935.0861            1 
    6000    2.0286171    -4.761098    4922.3078            2 
    7000    2.0198815   -4.8166458    4949.8159            1 
    8000    1.9923453   -4.7768692    4913.1654            2 
    9000    1.9792286   -4.8309144    4934.2984            2 
   10000    2.0188635   -4.8002851    4919.4282            1 
   11000    1.9948933   -4.7882743    4942.2414            1 
   12000     1.992776    -4.811095    4924.3322       -1e+20 
   13000    1.9985447   -4.7762238    4943.4812            1 
   14000    2.0204593   -4.8975129    4897.3732            1 
   15000    1.9887368   -4.8037885    4919.3906            1 
   16000    1.9941599   -4.7810327    4907.3008            1 
   17000    2.0084779   -4.8684648    4924.6706            1 
   18000    2.0004779   -4.7754121    4925.5067            1 
   19000    1.9616466   -4.8099138    4930.7062            1 
   20000    1.9949549   -4.8153673    4946.6464            1 
   21000    2.0197541   -4.8114851    4939.2931            2 
   22000    2.0223382   -4.8076134    4930.0598            2 
   23000    1.9671953   -4.8075167     4879.767            1 
   24000     1.972995   -4.8217649    4925.2418            1 
   25000    1.9895608   -4.8340605    4932.4098            2 
   26000    2.0080971   -4.8030717    4937.9756            1 
   27000    1.9601387   -4.8426784    4904.5044            1 
   28000     2.005912   -4.7981902    4928.2589            2 
   29000    1.9554422   -4.8189292    4913.7177            1 
   30000    1.9801861   -4.7930443    4907.0615       -1e+20 
   31000    1.9965668   -4.7887476    4932.6425            1 
   32000    2.0231312   -4.8495708    4924.4889            1 
   33000    1.9869908   -4.7700617    4958.3308       -1e+20 
   34000    2.0027926   -4.8059678    4917.5058            1 
   35000      1.99851   -4.8617621    4913.9187            1 
   36000    1.9435756   -4.7902086    4947.9585       -1e+20 
   37000    1.9581702   -4.8550225    4916.6331       -1e+20 
   38000    2.0146431   -4.7541049    4919.2716            1 
   39000    2.0061952   -4.8076206    4941.5715            1 
   40000    2.0104973   -4.8572705    4906.5513            1 
   41000    2.0228765   -4.7733501    4910.1778            1 
   42000    2.0044166   -4.8147408    4936.1863            1 
   43000    2.0193955   -4.7892266    4910.9695            1 
   44000     1.983418   -4.8055375    4909.2762            1 
   45000    1.9943149   -4.7963949    4904.6701            1 
   46000    1.9713565   -4.7587764    4948.1481            1 
   47000    1.9734672    -4.789143    4891.8538            1 
   48000    2.0028873   -4.8244208    4890.1894            1 
   49000    1.9563615    -4.758426     4922.923            1 
   50000    2.0330574   -4.8104525    4911.9622            1 
   51000    1.9614231   -4.8421086    4911.7788            2 
   52000    2.0059851    -4.833952    4887.3338            2 
   53000    1.9651571   -4.7857132    4945.8829            2 
   54000    2.0009335   -4.7983018    4904.8474            1 
   55000    1.9726453   -4.7360076    4929.2602            1 
   56000    2.0017339   -4.8183982    4914.5102            2 
   57000    2.0409025   -4.7812037    4930.9094            1 
   58000    2.0217889   -4.7772201    4913.9941            1 
   59000    1.9949659    -4.796633    4917.5306            1 
   60000    2.0418015   -4.7852373     4935.526       -1e+20 
   61000    1.9775754   -4.8031667     4912.484            1 
   62000    1.9746621   -4.7709596    4952.3802       -1e+20 
   63000    1.9616253   -4.8242935    4913.2332            2 
   64000    2.0227126   -4.8020828    4906.4122            1 
   65000    2.0143974   -4.8021637    4944.8427            1 
   66000    2.0286063   -4.7984679    4933.0927            1 
   67000    2.0489936   -4.8396339    4894.5945            1 
   68000    2.0005021   -4.7743755    4925.5857            1 
   69000    2.0402954    -4.806355    4936.6415            1 
   70000    2.0351962   -4.7513505    4934.7568       -1e+20 
   71000    2.0033187   -4.8400742    4908.5192            3 
   72000    2.0157875   -4.7836418    4931.9802            1 
   73000    1.9650871    -4.792318    4928.5839            1 
   74000    2.0478791   -4.8465365    4896.3245            1 
   75000    1.9785476   -4.7860977    4954.6586       -1e+20 
   76000    2.0333307   -4.7960824    4935.3891            1 
   77000    2.0207755   -4.7979932    4921.7702            2 
   78000    1.9636696   -4.7911628    4941.3926            1 
   79000    2.0282515   -4.7470561    4939.4455            1 
   80000    2.0345658   -4.8212793     4877.955            2 
   81000      1.99508   -4.8090461    4919.2483            1 
   82000    2.0169791   -4.7923668    4935.3131       -1e+20 
   83000    1.9894696   -4.7416485    4940.0453            1 
   84000    1.9708884   -4.7792837    4914.4025            1 
   85000    2.0054231   -4.7447711    4959.7869            1 
   86000    1.9477113    -4.744125    4954.0392            1 
   87000    1.9986502   -4.8505959    4895.9678       -1e+20 
   88000    1.9984591   -4.7569944    4943.0194            1 
   89000     2.008017   -4.8301935     4935.287            1 
   90000    1.9902597   -4.7741447    4928.4779            1 
   91000    2.0000917   -4.7979327    4946.1312            1 
   92000     1.955598   -4.7816742    4929.9584            1 
   93000    2.0070452    -4.840244    4928.5392            1 
   94000    2.0269798   -4.7767202    4913.3436            1 
   95000    2.0015741   -4.7967103    4920.0907            1 
   96000    2.0125381   -4.7693883    4931.0872            1 
   97000    1.9944627   -4.7533054    4899.9262            1 
   98000    2.0066077   -4.7794328    4940.7523            1 
   99000    2.0381644   -4.8101956    4942.0122            1 
  100000    1.9908888   -4.7939334    4941.7682            1 
  101000    2.0035071   -4.8008308     4948.386            1 
  102000    2.0157599   -4.8122688    4933.3483       -1e+20 
  103000    2.0237357   -4.7574967    4937.2206            1 
  104000     2.012235   -4.8281856    4888.2354            1 
  105000    1.9785782   -4.7860562    4944.5114       -1e+20 
  106000    2.0007417   -4.8278027    4913.2104       -1e+20 
  107000    1.9549023   -4.8330229     4885.425            2 
  108000    1.9831865   -4.8200084    4933.3494       -1e+20 
  109000     1.987596   -4.7554316    4926.3386            1 
  110000    2.0187816   -4.8149811    4922.0335            1 
  111000    1.9910411   -4.7884384    4926.4532            2 
  112000    1.9814264   -4.7617462    4891.0631            1 
  113000    2.0079857   -4.8574775    4895.7887            2 
  114000    1.9607973   -4.7757846    4883.1013       -1e+20 
  115000    1.9412884   -4.8137846     4911.321            1 
  116000    1.9852439   -4.7709755    4932.8007            1 
  117000    1.9824522   -4.7784199     4945.422            1 
  118000    2.0235112   -4.7797466    4917.0424            1 
  119000    2.0016955   -4.7609853     4907.919            1 
  120000    2.0523761   -4.8456547    4890.4932            1 
  121000    1.9508324   -4.8331081    4922.2708            1 
  122000    1.9979491   -4.8009423    4932.4947            2 
  123000    1.9727626   -4.7782879    4917.0683            1 
  124000     2.045457    -4.847255    4879.6668            2 
  125000    1.9944462   -4.7898101    4894.3992            1 
  126000    2.0275698   -4.8652703    4914.5485            1 
  127000    2.0131255   -4.8182559    4921.1119            1 
  128000    1.9883639    -4.805414    4899.7285            1 
  129000    1.9965651   -4.7843423    4914.8818            1 
  130000    1.9625615   -4.8044911    4912.8089            2 
  131000    2.0079629   -4.8428381    4933.3461            1 
  132000    1.9767852   -4.8550671    4906.1017            1 
  133000    1.9811462   -4.7780864    4958.9387            1 
  134000    1.9810718    -4.767495    4929.4076            1 
  135000    1.9795709   -4.8234372    4920.3742            1 
  136000     1.995273   -4.7807025    4947.0607            2 
  137000    2.0105379   -4.7918048    4926.7326            3 
  138000    2.0070101   -4.8081706     4923.289            1 
  139000      1.96731   -4.8497463    4919.3359            1 
  140000    1.9780511   -4.8250196    4956.0033            1 
  141000    1.9990058   -4.8257435    4905.1253            1 
  142000    2.0042849   -4.7976615    4922.5052       -1e+20 
  143000     2.006849   -4.7714003     4911.987            1 
  144000    1.9706478   -4.7932904    4921.1215            3 
  145000    1.9623124   -4.7270596    4950.6015       -1e+20 
  146000    2.0021299   -4.7914651      4915.45            1 
  147000    1.9785622   -4.7861998    4941.9473            2 
  148000    2.0406077   -4.8275775    4898.9683            1 
  149000    2.0381282   -4.7850431    4911.5581            1 
  150000     1.973146   -4.7959942    4904.8502            1 
  151000    2.0122838    -4.766126    4947.1947            1 
  152000     2.010351   -4.7357696    4939.5823            1 
  153000      1.98685   -4.7441394    4907.7983            1 
  154000    1.9873428   -4.8256675    4944.1283            1 
  155000    2.0182733   -4.7637559     4936.688            1 
  156000    2.0434753   -4.8044674     4937.091            1 
  157000    2.0063825   -4.8315953    4927.7089            1 
  158000     2.002201   -4.8079655    4916.5007            1 
  159000    1.9811057   -4.8096241    4939.8905            2 
  160000    1.9686843   -4.8060922    4920.1401            1 
  161000    1.9495093   -4.8093559    4914.7999       -1e+20 
  162000    1.9753484   -4.7851695    4905.3486            2 
  163000    1.9990458   -4.7556029    4922.3368            1 
  164000    2.0206136   -4.8124499    4898.5226            1 
  165000    1.9599073   -4.8431681    4947.9852            1 
  166000    1.9945339   -4.8063467    4884.0129            1 
  167000    1.9690107   -4.8366796    4909.2428            1 
  168000    1.9695468   -4.8246157    4906.8565            1 
  169000    1.9722746   -4.7812028    4930.1532       -1e+20 
  170000    1.9883371   -4.7951639    4916.1111            1 
  171000    2.0120117   -4.8122566     4940.454            1 
  172000    2.0029155   -4.8290285    4922.1405            1 
  173000    2.0130808   -4.8165303      4922.52            3 
  174000    2.0312812   -4.7810449    4928.1589            1 
  175000    2.0085531   -4.7885896    4897.3507            1 
  176000    1.9646042   -4.7716463    4921.9164            1 
  177000    2.0054125   -4.8187147    4905.6298            2 
  178000    1.9954807    -4.813502    4908.9248            4 
  179000     1.963769   -4.7643014    4941.3881            1 
  180000    2.0289926   -4.8306436    4872.5153            1 
  181000    2.0046653   -4.7954951    4911.1284            1 
  182000    1.9832424   -4.7709214    4928.4741            1 
  183000     2.003232   -4.7567118    4915.6764            1 
  184000    1.9940009   -4.8170483    4884.7471            1 
  185000    2.0379758   -4.7774871    4960.3081            1 
  186000    1.9904266   -4.7843304    4898.7294            1 
  187000    1.9793642   -4.7884202    4938.4802            1 
  188000    2.0212605   -4.8494432    4924.8315            1 
  189000     2.047539   -4.8483994    4896.4988            2 
  190000    2.0185083   -4.8138916    4950.3862            2 
  191000    1.9732019   -4.7793076     4925.017            1 
  192000      1.98781    -4.795053    4958.5817            3 
  193000    2.0304823   -4.8376062    4926.1672            2 
  194000     1.968133   -4.7819913    4943.4073            1 
  195000    1.9573266   -4.8167257    4941.4866            1 
  196000    1.9795635   -4.7478688    4937.7126            1 
  197000    1.9889824   -4.7921959    4925.4885            1 
  198000    2.0091487   -4.7986916    4912.4294            1 
  199000    2.0037439   -4.7759196    4927.5854            1 
  200000    2.0058029   -4.8543055    4892.7496            1 
  201000    2.0396017   -4.7698556    4937.4703            3 
  202000    2.0088282   -4.7888037    4914.1737            1 
  203000    1.9948049   -4.8648332    4922.0515            1 
  204000    2.0293447   -4.8100201    4934.6621            2 
  205000    2.0373188    -4.777607    4934.5208            1 
  206000    2.0309925   -4.7518512    4938.2129            2 
  207000    2.0159016   -4.8055616    4930.8825            1 
  208000    2.0314791   -4.8365022    4931.6523       -1e+20 
  209000    1.9886141   -4.8378845    4917.4163            1 
  210000    1.9666164   -4.8017712     4945.797            1 
  211000    2.0052024   -4.8442931    4890.0916            1 
  212000    2.0123584   -4.7778386     4930.319            2 
  213000    1.9617709   -4.7424489    4931.9078            2 
  214000    2.0119221   -4.8125226    4939.5736       -1e+20 
  215000    1.9989988   -4.7499931    4945.4042            1 
  216000    1.9930734    -4.793732    4916.9803            1 
  217000    1.9710743   -4.7787572    4931.4766            1 
  218000    1.9816593   -4.8119176    4898.8668            2 
  219000    1.9948448   -4.8420997    4900.8297       -1e+20 
  220000    2.0156399   -4.7784182    4914.4794            1 
  221000    2.0094144   -4.7992873    4921.0536            1 
  222000    1.9932949   -4.7714172    4941.4309       -1e+20 
  223000     1.998117   -4.8016306    4945.5529            1 
  224000    1.9943104   -4.7980385    4941.3439            1 
  225000    1.9717201   -4.8353426    4923.0938            1 
  226000    2.0381252   -4.8247405    4928.8479            1 
  227000    2.0113456   -4.8199437    4871.1645            1 
  228000    1.9780198    -4.764692    4914.9133            3 
  229000    1.9960037   -4.8029221     4929.654       -1e+20 
  230000    2.0069473   -4.8291201    4933.9664            1 
  231000    2.0497714    -4.852309    4916.9211            1 
  232000    1.9742519   -4.8004873    4956.9314            1 
  233000    1.9877584   -4.7947639    4920.8999            1 
  234000    1.9582785   -4.7649394    4942.8979            1 
  235000    2.0199817   -4.7754618    4926.9306            1 
  236000    2.0368078   -4.8139594     4926.618            1 
  237000    2.0309282   -4.7905243    4956.6618            1 
  238000    1.9640451   -4.8674038    4921.6745            1 
  239000    2.0296676   -4.7986269    4936.2699            1 
  240000    1.9822146   -4.8629871    4910.1736            1 
  241000    1.9519967   -4.7815276    4907.2029            1 
  242000    1.9741535   -4.8049968    4937.4735            1 
  243000    2.0243284   -4.8098264    4917.4651       -1e+20 
  244000     2.021384   -4.7883563    4936.7652       -1e+20 
  245000    2.0318711   -4.8133239    4919.8556            1 
  246000    2.0028914   -4.7962537    4912.4307            1 
  247000    2.0214056   -4.7904754    4915.5865            1 
  248000    2.0010641   -4.7543775    4952.9159            2 
  249000    2.0345866   -4.8594926    4878.1861            2 
  250000    1.9996553   -4.7894626    4917.4259            2 
  251000    1.9944381   -4.7619076    4946.5042            2 
  252000    2.0129991   -4.8138673     4906.997            1 
  253000    1.9777219   -4.7613837    4926.8952            1 
  254000    2.0239116   -4.7882104    4952.1087            1 
  255000    2.0533627   -4.8218498    4929.8504            1 
  256000    1.9734361   -4.7504692    4950.4521            1 
  257000    1.9842499   -4.8553915    4917.7351            1 
  258000    1.9971965   -4.7984226    4920.6214            1 
  259000    2.0100242   -4.8256937    4888.6435            2 
  260000     1.956927   -4.8404014    4901.6229            1 
  261000    2.0161058    -4.776617    4934.1071            1 
  262000    1.9868859   -4.7881179    4916.6086            1 
  263000    1.9765984   -4.7849224    4916.1807            1 
  264000    1.9829648   -4.7886496    4907.0163            1 
  265000    1.9753469   -4.8096848    4950.9478            1 
  266000    2.0091827   -4.8006221    4928.7045            1 
  267000    2.0513867    -4.790163    4914.9344            1 
  268000    1.9986855   -4.8136766     4927.879            1 
  269000    2.0409147   -4.7897643    4919.8055            1 
  270000    1.9853058   -4.8224412     4908.611            1 
  271000    1.9840391   -4.7845592    4926.3273            1 
  272000    1.9922448   -4.8048439    4937.1646            2 
  273000    2.0267938   -4.7865635     4929.784            1 
  274000    1.9858987   -4.8363707    4914.3989            1 
  275000    1.9700398   -4.8333441    4906.1206       -1e+20 
  276000    1.9889933    -4.807553    4941.8209            1 
  277000    1.9885633   -4.7857754    4913.6713            1 
  278000     2.001567   -4.7899826    4915.0606            1 
  279000    2.0009126   -4.7695629    4917.7986            2 
  280000    1.9713268   -4.7934632     4900.692            1 
  281000    1.9979645   -4.8185792    4928.2621            1 
  282000    1.9526592   -4.7866382    4927.7597            1 
  283000    1.9866647   -4.8212198     4901.575            1 
  284000    2.0154936   -4.7688905    4928.4712       -1e+20 
  285000    2.0080762   -4.7360135     4947.333            1 
  286000    2.0347501    -4.873399    4917.8179            2 
  287000    1.9911114   -4.8032335    4940.9534            1 
  288000    2.0368952   -4.8588293    4913.9139            1 
  289000    2.0270014   -4.7521829    4949.7216            1 
  290000    2.0073285    -4.818584      4880.14            1 
  291000    1.9943135   -4.8289216    4903.3801       -1e+20 
  292000    2.0009597   -4.8153802    4920.0459       -1e+20 
  293000     2.002882   -4.8387108    4889.4946            2 
  294000    2.0089687   -4.8150701     4905.221            1 
  295000    1.9805708   -4.7908611     4902.066            1 
  296000    1.9858072   -4.8293668    4923.2032            3 
  297000    1.9428757   -4.7826344    4942.2793            1 
  298000      1.98714   -4.8251354    4909.0423            1 
  299000    1.9628304   -4.8230472    4924.6511            2 
  300000     2.028252   -4.7940372    4925.4241            1 
  301000    2.0251018   -4.7839462     4944.969            1 
  302000    2.0145609       -4.765    4943.0621            1 
  303000    1.9979725   -4.8133595    4910.4332            1 
  304000    2.0267922   -4.7799779    4940.5943       -1e+20 
  305000    1.9938802   -4.7843381    4919.2849            1 
  306000    2.0332682   -4.8196733    4905.5313       -1e+20 
  307000    1.9876281   -4.8427898     4913.796            1 
  308000    1.9965768   -4.8006258    4937.5613            1 
  309000    1.9529433   -4.8345038     4916.576            1 
  310000     2.004806   -4.8312063    4901.4097            1 
  311000    2.0012839    -4.807771    4901.7563            1 
  312000    1.9844257   -4.8409755    4952.0391            1 
  313000    2.0284552   -4.7812797    4925.1342            1 
  314000    2.0210527   -4.7917512    4950.3164            3 
  315000    1.9865761     -4.79673    4890.6051            1 
  316000    1.9984179   -4.7723968    4899.0045            1 
  317000    1.9845752   -4.7919183     4906.315       -1e+20 
  318000     2.024957   -4.8192787    4941.6523            1 
  319000    2.0006653   -4.8126437      4889.29            1 
  320000    2.0196616   -4.7705491    4913.3183            1 
  321000    2.0391483   -4.8257001    4941.4079       -1e+20 
  322000    2.0155909   -4.7584215    4927.4343            1 
  323000    2.0116116   -4.7905978    4929.0768            1 
  324000    2.0008651    -4.815157    4942.9672            1 
  325000    1.9799512   -4.8317812    4917.1744       -1e+20 
  326000    2.0392048   -4.7940354     4908.203       -1e+20 
  327000    1.9731264   -4.8131684    4938.9178            1 
  328000    1.9586345   -4.8203156    4909.2411            2 
  329000    1.9943709   -4.7985128    4943.3467            1 
  330000    2.0620215   -4.7490692    4934.7659            2 
  331000    2.0133962   -4.8387584    4922.5848            1 
  332000    2.0503101   -4.7696085    4927.9066            1 
  333000    2.0205234   -4.8258864    4938.6257            1 
  334000     1.989587   -4.8452373    4936.1997            1 
  335000    2.0278488   -4.7755317    4924.1321            1 
  336000    2.0035727   -4.7746839    4946.0064            1 
  337000    1.9862282   -4.7826065    4926.3881            1 
  338000    1.9989256   -4.7779751    4943.8054            1 
  339000     1.983569   -4.8651812    4878.6287            1 
  340000    2.0024993   -4.8265955     4912.105            2 
  341000    2.0140358   -4.8130327    4934.0348            2 
  342000    2.0012284   -4.8552474    4886.1855            1 
  343000    1.9875215   -4.8362603    4910.9097            3 
  344000    1.9649614   -4.7776429    4933.1238       -1e+20 
  345000    2.0200457   -4.8079023    4900.0101            2 
  346000    1.9886158   -4.8061126    4924.7582            1 
  347000    1.9847991   -4.8171993    4927.0731            1 
  348000    2.0179129   -4.7879989    4939.8459            1 
  349000    2.0160438   -4.8050737    4921.2053            2 
  350000    1.9988479   -4.7624719    4958.2299            2 
  351000    2.0072745   -4.8493962    4922.8262            4 
  352000    2.0092594    -4.774235    4905.2632            1 
  353000    2.0284109   -4.7682905    4939.9589            1 
  354000    1.9596876   -4.8297073    4918.9991            1 
  355000    2.0248946   -4.7487447    4921.3343            1 
  356000    2.0400279   -4.7441526     4924.274            1 
  357000    2.0300594   -4.7946629    4912.1904       -1e+20 
  358000    1.9919592   -4.8508901     4928.172            1 
  359000    2.0424766   -4.7959389    4936.5654            1 
  360000    1.9786542   -4.7609255    4907.0766            1 
  361000    2.0135817    -4.831252     4899.134            1 
  362000    1.9977516   -4.7718237    4923.1402            1 
  363000    1.9910603   -4.7801969    4915.9949            1 
  364000      2.01162   -4.8090389    4915.0555            1 
  365000    2.0085414   -4.7947583    4911.3251            1 
  366000    2.0031071   -4.7833768    4907.9468            1 
  367000    1.9531621   -4.8318686    4934.5563       -1e+20 
  368000    2.0444938   -4.8302684    4904.8239            1 
  369000    1.9720587   -4.8530537    4910.2986            2 
  370000    1.9511336    -4.771157    4914.1528            1 
  371000    2.0447248   -4.8033387     4946.352       -1e+20 
  372000    2.0040832   -4.8112127    4915.4564       -1e+20 
  373000    2.0385839   -4.7706199    4918.8573            1 
  374000    2.0076091   -4.7473654    4935.0493       -1e+20 
  375000     1.979285   -4.8448039    4870.9553            1 
  376000    2.0125793   -4.8057604    4931.9104       -1e+20 
  377000    2.0066275   -4.8258748    4920.1132       -1e+20 
  378000    2.0061138   -4.8183374    4941.8639            1 
  379000    2.0360153   -4.7671436     4926.175            1 
  380000    1.9828364   -4.7730509    4885.7677            1 
  381000    1.9775627   -4.8656912    4906.7058            1 
  382000     2.011178    -4.792942    4911.4154            1 
  383000    1.9804162   -4.8301774    4931.3526            1 
  384000    1.9559044    -4.725857    4917.4126            1 
  385000    2.0234494   -4.8245739    4910.1003            1 
  386000    2.0476812    -4.782171    4933.3093            1 
  387000    1.9561753   -4.7797784    4955.0386            1 
  388000    1.9927705   -4.8141449    4907.7837            1 
  389000    2.0334818   -4.7937143    4911.1105            1 
  390000    2.0108703   -4.8215656    4927.4622            1 
  391000    2.0006955   -4.7620408    4917.1074            1 
  392000    2.0203587   -4.8285628    4883.9163       -1e+20 
  393000    1.9428351   -4.8113384    4915.9471            1 
  394000    1.9848511   -4.8040336    4932.3525            1 
  395000    1.9632817   -4.8580944    4888.0314            1 
  396000    2.0143467   -4.7862549    4945.1201            1 
  397000    2.0255021   -4.8476346    4903.3091            2 
  398000    2.0231032    -4.749337    4933.1817            1 
  399000    2.0082467   -4.7826795    4929.4846            1 
  400000    1.9846839   -4.8114945    4907.1579            1 
  401000    1.9657615   -4.8123431    4923.6106       -1e+20 
  402000    1.9597414   -4.8320075    4940.8396            1 
  403000    2.0110678   -4.8055162    4916.5303            1 
  404000    2.0091513   -4.7959583    4898.0606       -1e+20 
  405000    1.9783406   -4.8060239    4903.8613            1 
  406000    2.0395728   -4.8834347    4885.1647            1 
  407000    2.0462635   -4.7940309    4918.2699       -1e+20 
  408000    1.9898612   -4.8162296    4901.2851            1 
  409000    1.9807229    -4.796872    4906.3842            1 
  410000    2.0315154   -4.8300835    4897.9021            1 
  411000    2.0242779   -4.7327803    4915.2743            1 
  412000     2.010164    -4.809086    4943.9049            1 
  413000    2.0228428   -4.8119923    4910.3886            1 
  414000    1.9856844    -4.865598    4886.7157            2 
  415000    1.9688738   -4.8413442    4936.0316            1 
  416000    1.9820682   -4.8028356     4924.647       -1e+20 
  417000    2.0111461   -4.8047653     4940.599            1 
  418000    2.0567641   -4.8151835     4932.053            1 
  419000    2.0237077   -4.8020209     4948.643            1 
  420000    1.9481114   -4.7804605    4955.7706            1 
  421000    1.9472865   -4.7944734    4867.0181            1 
  422000    2.0160367   -4.7801366    4938.7075            2 
  423000    1.9537888    -4.811104    4895.8203            2 
  424000    2.0066776   -4.8238388    4926.8513            1 
  425000    2.0372364   -4.8055555    4904.0813            1 
  426000    2.0576235   -4.7733836     4923.573            1 
  427000     2.018381   -4.8603295    4864.7624            1 
  428000    1.9900092   -4.7876173     4929.182            1 
  429000    1.9489222    -4.819064    4890.2402            1 
  430000      1.99617   -4.8201137    4895.2554            1 
  431000    1.9856415    -4.838874    4921.7274            1 
  432000    2.0352381     -4.72726    4926.4018            2 
  433000    2.0244368   -4.8069736    4920.4286            1 
  434000    1.9960415   -4.7709095    4966.9686            1 
  435000    2.0012683   -4.7565115     4913.184            1 
  436000    2.0277446   -4.7614117    4960.0734            2 
  437000    2.0244005   -4.7501738    4952.7164            1 
  438000    2.0072596   -4.7707541    4900.0937            1 
  439000    2.0272677   -4.8216373    4930.7589       -1e+20 
  440000    2.0039899   -4.8031998    4938.9513       -1e+20 
  441000      2.01591   -4.8070967     4926.966            1 
  442000     1.989609   -4.7915128    4961.7028            1 
  443000      1.97766   -4.8037622    4906.8823       -1e+20 
  444000    1.9701034   -4.7964106    4918.2834            1 
  445000    1.9555796   -4.7777806    4918.4774            1 
  446000    1.9791425   -4.7872113    4932.0252            2 
  447000    1.9958759   -4.8136993    4875.3748            1 
  448000     1.947606   -4.7662035    4925.0802            3 
  449000    2.0311246   -4.7924469    4932.3544            1 
  450000    1.9642392    -4.776772     4913.567       -1e+20 
  451000    1.9529533   -4.8210458    4920.5537            1 
  452000    2.0075868   -4.8389817    4922.8815            1 
  453000    1.9933559   -4.7876562    4931.9418            1 
  454000    2.0058293   -4.7670939    4922.3012            1 
  455000     2.040335   -4.7576972    4925.1464            1 
  456000    2.0190473   -4.8047102    4880.8718            1 
  457000    2.0401444   -4.7860717    4937.6285            1 
  458000    1.9649912     -4.78891    4915.3126            1 
  459000    1.9993172   -4.8028017    4932.9748       -1e+20 
  460000    1.9936187   -4.8000763    4946.6885            1 
  461000    2.0076862   -4.7715809    4887.8869            1 
  462000    1.9380411   -4.7950521     4908.903            1 
  463000    1.9581588   -4.7841839    4912.5454            1 
  464000    2.0501959   -4.7773688    4950.7535       -1e+20 
  465000    1.9831619   -4.7601383    4957.4068            3 
  466000     2.034958   -4.8257248    4946.0634       -1e+20 
  467000    2.0138413   -4.7606024    4961.7662            1 
  468000    2.0236138   -4.8048513    4937.4825            1 
  469000    1.9722588   -4.8147416    4931.5413            2 
  470000    1.9919131   -4.8202801    4895.8863            1 
  471000    1.9890494   -4.7994924    4945.8916            1 
  472000    1.9765862   -4.7767977    4897.2325            2 
  473000    2.0309123   -4.7735103    4961.0016            1 
  474000    2.0197214   -4.7794849     4932.701       -1e+20 
  475000     2.040903   -4.7692309    4921.8652            2 
  476000    1.9549313   -4.8232665     4898.288       -1e+20 
  477000    2.0112134   -4.7532883    4977.9704            1 
  478000    1.9894435   -4.8095665    4968.2899            1 
  479000    1.9976092   -4.7824633    4896.2703            1 
  480000    1.9872701   -4.7823534     4911.187            1 
  481000    2.0062044   -4.8346738    4926.7715            1 
  482000    1.9827391    -4.810031    4915.5914            1 
  483000    1.9944902   -4.8209397    4910.9183       -1e+20 
  484000    2.0066843   -4.7440765    4953.7617       -1e+20 
  485000    1.9954718   -4.7652006    4931.5173            1 
  486000    2.0254961   -4.7772793    4934.2023            1 
  487000    1.9725116   -4.7958321    4929.1907            1 
  488000    1.9948105   -4.8701302    4902.7049       -1e+20 
  489000    1.9652368      -4.7991    4910.8143            1 
  490000    1.9530611   -4.8096059     4901.294            2 
  491000    2.0087338   -4.8390612    4918.4224            1 
  492000    2.0417485   -4.7760375    4908.6265            2 
  493000    1.9270961   -4.8452185    4915.3822            1 
  494000    1.9969061   -4.7699737    4884.2895            2 
  495000    2.0230383   -4.8182583    4915.2118            2 
  496000    2.0100269   -4.8190857    4920.1033            3 
  497000    2.0105326    -4.760678    4921.8447       -1e+20 
  498000    2.0062955    -4.825153    4917.4567            1 
  499000    2.0021038   -4.8085387    4911.4407            1 
  500000    1.9830699    -4.828296    4948.3409            1 
  501000    1.9960225   -4.7782097    4980.1065            1 
  502000    2.0144002   -4.7721865    4940.9151            1 
  503000     1.983286   -4.7764616    4920.5464            2 
  504000    1.9871805   -4.8105596    4919.1949       -1e+20 
  505000     1.985274   -4.7677098    4909.5354            1 
  506000    1.9730815   -4.8363002     4931.109            2 
  507000    2.0148992   -4.7831826    4930.6578            1 
  508000    1.9712367   -4.8280012    4875.9419            1 
  509000    2.0064629   -4.7923774    4937.8368       -1e+20 
  510000     1.984936   -4.8089085    4899.9793            1 
  511000       2.0123   -4.8417259    4929.6041            1 
  512000    2.0129479    -4.814704    4944.2261            1 
  513000    2.0203459   -4.8500721    4888.5739            1 
  514000    1.9879271   -4.8133297    4937.0639            1 
  515000    2.0361041   -4.8092909    4906.1844            2 
  516000    2.0070872   -4.8274255    4912.6197            2 
  517000    1.9737971   -4.7643071    4917.3843            2 
  518000     1.971616   -4.8092341    4926.5201            1 
  519000    1.9823075   -4.8577156    4887.5982            2 
  520000    1.9865587   -4.7669533    4912.8952            1 
  521000    2.0479065   -4.7743675     4928.227            1 
  522000    1.9450372   -4.8213694    4898.7179            1 
  523000    2.0243017   -4.7685833     4938.331            1 
  524000    1.9996813   -4.8184096     4912.841       -1e+20 
  525000    1.9972146     -4.79576     4884.586            1 
  526000    2.0011459    -4.791736    4929.2515            1 
  527000    1.9639427   -4.8277431    4923.0227       -1e+20 
  528000    2.0315586   -4.8527175    4917.2792       -1e+20 
  529000    1.9839495   -4.8282803    4905.2803            1 
  530000    2.0285369   -4.7873379    4911.6795            4 
  531000    2.0044495   -4.8428697    4931.6535            1 
  532000    2.0170531   -4.7886242    4885.6378            3 
  533000    1.9694954   -4.8175127    4902.9153            2 
  534000      2.00327   -4.8497563    4917.2895            1 
  535000    1.9952606   -4.8308791    4903.1183       -1e+20 
  536000    2.0374983   -4.7639336    4894.3887       -1e+20 
  537000    1.9458994   -4.8516479    4894.6294       -1e+20 
  538000    1.9346516   -4.8469392    4917.8845            1 
  539000    1.9753353   -4.8531379    4891.0065            1 
  540000    1.9702962   -4.8478593    4917.7663            1 
  541000    2.0138478   -4.8489987    4897.7889            1 
  542000    2.0244694   -4.7465106    4919.6266            1 
  543000     1.975544   -4.8114579    4905.4005            1 
  544000    1.9785267   -4.8196698    4922.0346            1 
  545000    1.9590903   -4.7939162    4920.3753            1 
  546000    2.0299626   -4.8238936    4932.5995            1 
  547000    2.0239628   -4.8009761    4935.3215            1 
  548000    1.9806123   -4.7694962    4937.3226            1 
  549000    1.9786858   -4.7866544     4920.385            1 
  550000    2.0481188   -4.8313572    4918.2366            2 
  551000    1.9980233   -4.8650489    4884.0333            1 
  552000    1.9643058   -4.8137414    4929.3211            1 
  553000    2.0351941   -4.8379264    4946.8198       -1e+20 
  554000    2.0372576   -4.7685888    4935.3043            1 
  555000     1.983012   -4.7802925    4926.0143            1 
  556000    1.9782264   -4.7571325     4898.183            1 
  557000    1.9899432   -4.8572406    4905.4647       -1e+20 
  558000    2.0373345   -4.7924264    4925.4229            1 
  559000    1.9795191   -4.8018469     4923.253            2 
  560000    1.9951181    -4.822868    4901.6152            1 
  561000     2.023289   -4.8224618     4898.528       -1e+20 
  562000    1.9961223   -4.7755544    4958.7571       -1e+20 
  563000    1.9708099   -4.8267735    4940.2416            2 
  564000     2.000406    -4.832874     4913.275            1 
  565000    1.9743145    -4.820596    4891.3352            1 
  566000    2.0049274   -4.8598261      4886.82            1 
  567000    1.9944751   -4.8156649    4956.6661       -1e+20 
  568000    2.0061264   -4.7638558    4917.2512            2 
  569000    2.0265078   -4.8250024    4941.9566            2 
  570000    1.9503095   -4.8039881    4966.4115            1 
  571000    1.9807178   -4.7865409    4911.8993       -1e+20 
  572000    2.0167865   -4.7806456    4901.7399            1 
  573000    2.0301997   -4.7672573    4907.3115            1 
  574000    2.0076679   -4.8285838    4934.1278            1 
  575000    1.9581827   -4.7560757    4910.1517            1 
  576000    2.0175107   -4.7923476    4916.0894       -1e+20 
  577000    2.0335116    -4.767538    4916.1584            5 
  578000    2.0029919    -4.772114    4932.8179            1 
  579000    1.9942185   -4.8198991    4946.2895            1 
  580000    2.0029739   -4.8377819    4883.7169            1 
  581000    1.9399606    -4.756102    4931.4859            1 
  582000    1.9993449   -4.7838381    4920.5861            1 
  583000    2.0407422   -4.8555422    4887.7652            1 
  584000    2.0235517   -4.8378528     4890.659            1 
  585000     2.050982   -4.8230888    4937.6075            1 
  586000    1.9677602   -4.8096371    4924.0291            3 
  587000    1.9691445   -4.8195747     4903.963            1 
  588000    1.9842975   -4.7584121    4922.4447            1 
  589000    1.9832073   -4.8167453    4958.6505            1 
  590000    1.9948847   -4.8172284    4915.9173            1 
  591000    1.9944629   -4.8106284    4910.6325       -1e+20 
  592000     1.979552   -4.7858568    4971.3637            2 
  593000    2.0321901   -4.7942464    4899.0518            1 
  594000    1.9979753    -4.784765    4921.8144            1 
  595000    2.0210827   -4.8258843    4910.0098            1 
  596000     2.015871   -4.7892924    4907.5012       -1e+20 
  597000    1.9806667   -4.8109304    4882.4928            1 
  598000      2.00968   -4.7684481    4953.7432            1 
  599000    1.9915299   -4.8022817    4942.6799            1 
  600000    1.9758074   -4.8148953    4881.5454            1 
  601000    2.0130974   -4.8234011    4900.7751            1 
  602000    1.9808805   -4.8203472    4944.5052            1 
  603000    2.0600334   -4.8282724    4892.9662            1 
  604000    2.0338641    -4.823671    4916.7716            1 
  605000    2.0012278   -4.8181212    4930.5443            1 
  606000     2.012087   -4.8432506    4913.3381            1 
  607000    2.0226294   -4.8368476    4897.9661            1 
  608000    1.9942256   -4.7754454    4895.2966       -1e+20 
  609000    2.0178303   -4.8011069     4922.173            1 
  610000     1.967228   -4.7832127    4885.0037            1 
  611000    2.0133854   -4.7956586    4935.2425       -1e+20 
  612000    1.9868737   -4.8207958    4944.8631            1 
  613000    1.9660845   -4.8040219    4879.5723            1 
  614000    1.9953369   -4.8284327    4899.5767            1 
  615000    1.9457191   -4.7622664    4952.4118            1 
  616000     2.015613   -4.7962198    4904.2952       -1e+20 
  617000    2.0094601   -4.8382637    4906.9076            1 
  618000    2.0076459   -4.8200227    4907.9011            1 
  619000    1.9415787   -4.7582564    4947.6453            1 
  620000    2.0237572   -4.8415046    4914.7854            1 
  621000    2.0310995   -4.7758178    4946.9211            1 
  622000    2.0234652   -4.8080154    4906.5111       -1e+20 
  623000    2.0216903   -4.8064187    4932.2385            1 
  624000    1.9718815   -4.8066667    4914.4684       -1e+20 
  625000    2.0004946   -4.8553058    4894.6385            1 
  626000    2.0131675    -4.804827     4891.268            1 
  627000    1.9987321   -4.7933908    4889.1945            1 
  628000    1.9907066   -4.7760444    4945.6836            1 
  629000    2.0268858   -4.7714763    4919.0509            1 
  630000    2.0297076   -4.7745331    4914.3603            2 
  631000    2.0069577   -4.7887808    4912.4774            1 
  632000    2.0401777    -4.807292    4897.9934            1 
  633000    2.0131801   -4.7952673    4915.5178            1 
  634000    1.9937915   -4.7973364    4912.4968       -1e+20 
  635000    2.0161726   -4.7962267    4915.2072       -1e+20 
  636000    2.0014559   -4.7827509    4915.4263       -1e+20 
  637000    2.0198154   -4.8117537    4927.5315            1 
  638000    2.0238385   -4.8110921    4908.2642            1 
  639000    1.9623521   -4.7446428    4917.4931       -1e+20 
  640000    1.9597776   -4.7988128    4953.2771            1 
  641000      2.02759   -4.8137314    4933.5512            3 
  642000    2.0280698   -4.7920005    4901.5252            3 
  643000    2.0096329   -4.7991715    4935.5398       -1e+20 
  644000    1.9913435   -4.8061074    4917.8074            1 
  645000    2.0317339   -4.8251633    4922.3929            1 
  646000    1.9827581    -4.831614    4892.9605            1 
  647000    2.0010938   -4.8730506      4910.06            1 
  648000    2.0032482   -4.7886767     4919.878            1 
  649000    2.0073786   -4.8380352    4903.8726            1 
  650000    1.9916204   -4.8560507    4897.5771       -1e+20 
  651000    1.9682811   -4.7193408    4960.4775            1 
  652000    2.0140268   -4.7509016    4970.4478            2 
  653000    2.0233084   -4.7893869     4946.173            3 
  654000    2.0018847   -4.8111444     4914.535       -1e+20 
  655000    1.9995343   -4.8004866    4897.0799            1 
  656000    1.9888045   -4.7316576    4932.9055            1 
  657000    1.9938782   -4.8495821     4900.842            1 
  658000     2.008418    -4.765807    4932.6573            1 
  659000    2.0352459   -4.8462149    4889.9017            3 
  660000    2.0100349    -4.795734     4903.646            1 
  661000    2.0172257   -4.7443552    4923.6624            2 
  662000    1.9912533    -4.803346    4902.1379            2 
  663000    2.0126593   -4.8252407    4934.9278            1 
  664000    1.9955719   -4.8191698    4906.8381            1 
  665000    1.9490429   -4.8268669    4912.0119            2 
  666000    2.0314719   -4.7857395    4925.0656            1 
  667000    1.9816219    -4.766251    4928.0398            1 
  668000     1.972304    -4.826718    4898.1458            1 
  669000     2.046439    -4.799178    4905.3823            1 
  670000    1.9976614   -4.8189056    4922.0081       -1e+20 
  671000     1.994183   -4.7639252    4933.9868       -1e+20 
  672000    2.0017879   -4.8335968    4914.2838            1 
  673000    2.0027882   -4.8140573    4900.7127            1 
  674000    2.0402696   -4.8085705    4892.9386            1 
  675000    1.9846956   -4.8177586    4919.2409            1 
  676000    2.0503743   -4.8159149    4920.5196            2 
  677000     1.984956   -4.7871825    4958.3187            1 
  678000    2.0479261   -4.7977581    4935.6111            1 
  679000    1.9817203     -4.77934     4925.179            1 
  680000    1.9992986   -4.8072171    4921.7034            1 
  681000    2.0108863   -4.8063784    4916.3976            1 
  682000    1.9839121   -4.7890046     4948.632            2 
  683000    1.9966292   -4.8355402     4918.034            1 
  684000    2.0252109   -4.8471709    4905.1293            1 
  685000    2.0221036   -4.7717178    4921.1944            1 
  686000    1.9842214   -4.7748389    4921.2805            1 
  687000    2.0152102   -4.7945969    4892.1178            1 
  688000    2.0066837   -4.7488986    4958.6177            1 
  689000    2.0210594    -4.735029    4941.9134            1 
  690000    1.9801174    -4.830888    4915.6222            1 
  691000    1.9972014   -4.8070654    4909.9397            1 
  692000    1.9660167   -4.7971651    4892.8488            1 
  693000    1.9833657   -4.8113651    4950.5247            1 
  694000    2.0248398   -4.7658504    4953.5606            2 
  695000    2.0508186   -4.8095523    4947.2832            2 
  696000    2.0124156   -4.8226755    4908.6986            1 
  697000    1.9984128    -4.787539    4924.0289            1 
  698000    2.0101377   -4.8095175     4934.183            1 
  699000     2.004649   -4.7902804    4917.7849            1 
  700000    2.0527184   -4.7922852    4910.2009       -1e+20 
  701000    1.9575688   -4.7760224    4936.4085            1 
  702000    2.0163032   -4.7773661    4920.0328            1 
  703000    2.0490797   -4.7932413     4930.621            2 
  704000    1.9656656   -4.7953645    4920.8474            1 
  705000    1.9941832   -4.7402269    4922.5066            1 
  706000    2.0455225   -4.7723043    4899.7091            1 
  707000    2.0287217   -4.7808262    4911.8889            1 
  708000    2.0130785   -4.8113464    4926.3216            1 
  709000    2.0085662   -4.7998335    4910.6834            1 
  710000    1.9795383   -4.7754332    4915.7012            3 
  711000    1.9687974   -4.8257384    4905.9416            1 
  712000    1.9681291   -4.8098081    4926.0348            1 
  713000    1.9995858   -4.8205247     4950.197       -1e+20 
  714000     1.991402   -4.8346229    4917.9112            1 
  715000    1.9929423   -4.8838357      4897.56            2 
  716000     1.975674   -4.7926217    4908.7196       -1e+20 
  717000    2.0120646   -4.7767161    4924.1125            1 
  718000    2.0075686   -4.7650691    4964.7464            1 
  719000    1.9841303   -4.7885105    4917.1331            1 
  720000    2.0672678   -4.7945845    4974.9024       -1e+20 
  721000    1.9923567   -4.8368644    4887.6146       -1e+20 
  722000    2.0242058    -4.791149    4955.1642            1 
  723000    1.9831684   -4.7961693    4887.1919            1 
  724000    2.0263186    -4.824281    4912.1584            1 
  725000    2.0244979   -4.7829478    4918.7603            1 
  726000    1.9999093   -4.8071291    4916.1028            1 
  727000    2.0131171   -4.7577942    4923.1967            1 
  728000    1.9647269   -4.8724501    4877.3197            1 
  729000    1.9840238   -4.8117027     4922.773            1 
  730000    1.9782521   -4.7714105     4924.096       -1e+20 
  731000    2.0166407   -4.8214069    4948.9216            1 
  732000    2.0150282   -4.8113752    4932.4541            1 
  733000    2.0089268   -4.7452036    4932.1868            1 
  734000    1.9762779   -4.7890397    4942.4977            2 
  735000    2.0134432   -4.7607633    4918.8088            1 
  736000    1.9611959   -4.7906607    4913.8573            1 
  737000    2.0194248   -4.8179841    4911.5377       -1e+20 
  738000    2.0081899   -4.8358069    4904.2793            1 
  739000     1.978298   -4.8179128    4956.8217            1 
  740000    1.9998441   -4.7915281    4936.4736            1 
  741000    1.9886076    -4.823685    4903.9063            1 
  742000    2.0028011   -4.8360687    4906.3964            1 
  743000    1.9867191   -4.8172045    4941.3063            2 
  744000    1.9824182   -4.7831233    4949.4421            1 
  745000    1.9750715   -4.7798075    4923.6515            1 
  746000    2.0113654   -4.8442416    4914.9191       -1e+20 
  747000    1.9686947   -4.8600685    4916.5963            1 
  748000    2.0472384   -4.8473573    4895.0272            1 
  749000    1.9515624   -4.7779608    4914.4209            1 
  750000     2.024879   -4.7477271    4938.0817            1 
  751000    2.0266539   -4.7836966    4929.9285            1 
  752000    1.9869867   -4.8069456    4940.9241       -1e+20 
  753000    1.9998601   -4.7533975    4952.1651            1 
  754000    1.9819869   -4.8178879    4896.2715            1 
  755000    1.9883393   -4.8036779    4919.6186            1 
  756000    1.9806571   -4.8037894    4955.0016            2 
  757000    2.0318708   -4.7789483     4937.645            1 
  758000    1.9988871   -4.8063145    4927.8403       -1e+20 
  759000    1.9792434   -4.8393035     4928.788            1 
  760000    2.0363603   -4.7715435     4931.602            1 
  761000    2.0514006    -4.836948    4916.3209            1 
  762000    1.9945696    -4.837928    4927.9802            1 
  763000    2.0170995   -4.8609489    4850.9365            1 
  764000    2.0187802    -4.845115    4901.0908            1 
  765000    1.9897875   -4.7810642    4935.6958            1 
  766000    2.0194254   -4.8629431    4922.2921            1 
  767000    1.9960983   -4.8462204    4901.4795            1 
  768000    2.0356006   -4.8133607    4927.4365            1 
  769000    1.9902785   -4.7842316    4896.9931            1 
  770000    1.9859981   -4.7957598    4945.1223            1 
  771000    2.0288426   -4.7801437    4929.3945            2 
  772000    2.0721907   -4.8045611    4930.3981            3 
  773000    2.0388373   -4.8412609    4906.7058            1 
  774000    2.0239372   -4.7872564    4918.6891            1 
  775000    2.0056169    -4.847541    4848.4396            1 
  776000    1.9831138   -4.7551338    4945.0492            1 
  777000     1.945263   -4.7940931    4940.0237            1 
  778000    2.0298015   -4.8172055    4938.8874            1 
  779000    2.0116266   -4.7953411    4945.8235            1 
  780000    1.9889135   -4.7836739    4921.7332            2 
  781000    2.0166852   -4.8246181    4939.0993            1 
  782000    2.0097484   -4.8422387    4889.0513            1 
  783000    2.0333147   -4.8032803    4899.5264            1 
  784000    2.0311765   -4.8151367    4922.7085            1 
  785000    1.9464317   -4.8097612    4923.5361            1 
  786000    1.9626232   -4.7837597    4939.2165            1 
  787000    2.0225437    -4.783525    4914.2787            1 
  788000     1.956413   -4.7694671    4926.5755            1 
  789000     2.011377   -4.8130883    4942.0596            1 
  790000    1.9736977     -4.79243    4909.9121            1 
  791000    2.0358664   -4.7611315     4954.639            1 
  792000    1.9841319   -4.8184214     4913.427       -1e+20 
  793000    2.0145968   -4.7547692    4902.6633            1 
  794000    2.0001272   -4.7862792    4885.1002            3 
  795000    1.9889605   -4.8118345    4906.3997            1 
  796000    2.0213538   -4.7967858    4886.7887            2 
  797000    2.0294741   -4.8153504    4899.5139            1 
  798000    2.0019589   -4.7955586    4945.5627            1 
  799000    1.9815002   -4.8142741    4943.2867            1 
  800000    1.9634206   -4.8345721    4898.5164            1 
  801000    1.9933684   -4.8644772      4901.37       -1e+20 
  802000    1.9620771   -4.7789101    4917.9297            1 
  803000    2.0217101   -4.8057519    4916.1098            2 
  804000    2.0042966   -4.8037724    4906.8592            1 
  805000    2.0129791   -4.7427921    4927.2132       -1e+20 
  806000    2.0242802   -4.7966366    4942.6507            1 
  807000    2.0026065   -4.7903446    4926.0619       -1e+20 
  808000    2.0036334   -4.7743632    4939.8645            1 
  809000    2.0176975   -4.7926662    4912.6076            1 
  810000    2.0035855    -4.856719    4928.2124            1 
  811000    2.0028532   -4.7179965    4930.6635            1 
  812000    2.0046168   -4.7729921    4930.3564            1 
  813000    2.0126195   -4.7592532    4917.8789            1 
  814000    1.9998834   -4.7787746    4896.8694            1 
  815000    2.0028734   -4.7933087    4922.5212            4 
  816000     2.029052   -4.7837533    4911.4296            1 
  817000    1.9802965    -4.807112    4914.6859            1 
  818000    2.0276684   -4.7721246    4934.1208            1 
  819000    2.0186775   -4.8165746    4902.8715            1 
  820000    1.9644047   -4.8163401    4943.2147            2 
  821000    1.9873656   -4.7944521    4915.3197            1 
  822000    2.0300911    -4.765379    4930.8674            1 
  823000    2.0144538   -4.8302831    4883.3118            2 
  824000    1.9738771   -4.8053649    4940.5546       -1e+20 
  825000     2.020467   -4.8384493     4883.879            1 
  826000    1.9977662   -4.8034366    4870.9794            1 
  827000    2.0318743   -4.7432643    4911.4118            1 
  828000    2.0041316   -4.8034199    4897.3927       -1e+20 
  829000    2.0537859   -4.8168059    4902.3811            2 
  830000    2.0044332   -4.7974524    4930.9767            1 
  831000    1.9493661   -4.7903985    4919.6729            1 
  832000    2.0087804    -4.829217    4902.1726            1 
  833000    1.9876985   -4.7444185    4923.5374            1 
  834000    2.0067368   -4.8012132    4914.9863            1 
  835000     1.982243   -4.8128407    4913.9036            3 
  836000    1.9697514   -4.7875944    4912.4041       -1e+20 
  837000    1.9932974   -4.8064723    4924.3895            1 
  838000    1.9777764    -4.859135    4927.6627       -1e+20 
  839000    1.9993038     -4.81942    4911.4247            2 
  840000    1.9959517   -4.8353908     4908.064            1 
  841000    2.0032066   -4.7741201     4931.105            3 
  842000    1.9858499   -4.8300897    4907.6201       -1e+20 
  843000    1.9955102   -4.7831412    4918.0325            1 
  844000    2.0112775   -4.8223337    4939.8924            1 
  845000    1.9985304   -4.7682849    4929.3718            1 
  846000    2.0239327   -4.7932846    4963.7997            2 
  847000    2.0082581    -4.806896    4945.5857            1 
  848000    1.9784103   -4.7932114    4950.9668            1 
  849000     2.033931   -4.7646586    4908.5555            1 
  850000     1.954568   -4.7345171    4910.7031            1 
  851000    1.9367079   -4.7909418    4899.4198            1 
  852000    1.9870033   -4.8034383    4933.0411            1 
  853000    2.0070359   -4.7981139     4926.631            1 
  854000    1.9486493   -4.8496239    4912.9394            1 
  855000    2.0284685   -4.7869313      4937.09            1 
  856000    1.9873074   -4.7915404    4904.6764            1 
  857000    2.0135727   -4.7949855    4936.6711            1 
  858000     2.022441   -4.7627596    4889.5056            1 
  859000    1.9955972   -4.8531489    4930.0478            2 
  860000    2.0017909   -4.8040416    4927.3846            1 
  861000    2.0128028   -4.7909567    4939.1201            1 
  862000    2.0107927   -4.7690036    4931.5524            1 
  863000    1.9880162   -4.7897942    4903.9574            3 
  864000    2.0048348   -4.8135312    4936.5279            1 
  865000    2.0029629   -4.8000614    4892.4997            1 
  866000     1.978883   -4.7718991    4926.0838            1 
  867000    1.9611588    -4.804484    4928.8315       -1e+20 
  868000    1.9908971   -4.7801278     4913.349            1 
  869000    1.9618138   -4.7633207    4905.1774            1 
  870000    1.9782418   -4.7788905    4895.3235            1 
  871000    1.9637104   -4.7723369    4952.1399            2 
  872000    1.9855576   -4.8424366     4915.628            1 
  873000    1.9610364   -4.7545227    4947.7799            1 
  874000    2.0136393     -4.77872    4888.2984            1 
  875000    1.9996367   -4.7940528    4921.9939            1 
  876000     2.007307    -4.789992    4936.4252            1 
  877000    2.0064724    -4.760411    4914.1713            1 
  878000    1.9788638   -4.8263612    4906.7514            2 
  879000    2.0324074   -4.7496973     4934.743       -1e+20 
  880000    2.0589883    -4.719396    4939.4492            1 
  881000    1.9976077   -4.8285065    4941.1261            1 
  882000    2.0029078   -4.8042007    4913.7083            3 
  883000    2.0116134   -4.8914697     4880.021            2 
  884000    1.9745475   -4.7767057    4931.2608       -1e+20 
  885000    2.0224921    -4.873945    4896.4442            1 
  886000    2.0103199   -4.8115676    4912.2884            1 
  887000    2.0288547   -4.7559151    4919.1204            1 
  888000     1.960748   -4.8096878    4908.2505       -1e+20 
  889000    2.0282984    -4.782152    4926.9448            1 
  890000    1.9498097   -4.8153655    4937.1693            1 
  891000    2.0502629   -4.7855059    4921.5651            1 
  892000    2.0192816   -4.7923643    4956.7977            1 
  893000    1.9867783   -4.8149468     4908.448            1 
  894000    1.9932345   -4.7976208      4935.57            1 
  895000    2.0356882     -4.76831    4941.0183            1 
  896000    2.0109717   -4.8028664    4887.1972       -1e+20 
  897000    2.0362179    -4.793618    4925.5366       -1e+20 
  898000    1.9530248   -4.7362648    4940.9402            1 
  899000    2.0214788   -4.8183271     4933.795       -1e+20 
  900000    1.9670453   -4.8604734    4891.7758            1 
  901000    2.0114448   -4.7741127    4954.2842            1 
  902000    2.0067696   -4.8045511    4950.4982            2 
  903000    1.9909988   -4.8410485    4939.4278       -1e+20 
  904000    2.0126253   -4.8304512    4952.6893            1 
  905000    1.9509184   -4.8595787    4902.9871            1 
  906000     2.037529   -4.7866692    4892.2391            1 
  907000    1.9836601   -4.7976275    4924.5753       -1e+20 
  908000    1.9738556   -4.7684025    4908.1662            1 
  909000    2.0332481   -4.7875309    4952.0522            1 
  910000    2.0370785   -4.8093584     4928.533            1 
  911000    1.9786045   -4.8427407    4900.4471            1 
  912000    1.9813421   -4.7728421    4947.0066            1 
  913000    2.0157455   -4.8211302    4889.0923            1 
  914000    2.0188269   -4.8663118    4939.7253            1 
  915000    1.9902353   -4.7967562    4913.3255            3 
  916000    1.9970074   -4.7928548    4917.3526            1 
  917000    2.0156888    -4.822836    4921.7193            1 
  918000    2.0120732   -4.8169924    4911.3104       -1e+20 
  919000    2.0104725   -4.7987694     4886.622            1 
  920000    2.0198045    -4.781139    4965.1185            2 
  921000    2.0261697   -4.8657018    4905.9652            1 
  922000    1.9651617   -4.8364175    4915.0657            2 
  923000    2.0077308   -4.7567299    4950.8065            2 
  924000    1.9806231   -4.8452961    4875.6987            1 
  925000    2.0270579   -4.8202294    4916.4019            1 
  926000    2.0079114   -4.7937124    4923.7815            2 
  927000    2.0230488   -4.8571648    4906.4278            1 
  928000    2.0010075   -4.7898957    4895.8681            1 
  929000    2.0038367   -4.7997459    4923.7487            1 
  930000     2.015103   -4.7313122    4920.8379            1 
  931000    2.0322429   -4.8253492    4908.4675            1 
  932000    1.9506644   -4.7738553    4937.0123            1 
  933000    1.9957887   -4.7984641    4934.0949       -1e+20 
  934000    2.0168565   -4.7846859    4922.9995            2 
  935000    1.9883271    -4.751614     4960.385            1 
  936000      1.97206   -4.7515973    4920.3639            2 
  937000    1.9719752   -4.8280886    4903.8323            2 
  938000    2.0019844   -4.8065673    4931.3902            2 
  939000    1.9528069   -4.7467358    4928.0683            1 
  940000    2.0498552   -4.8014405     4919.286            1 
  941000    2.0383862   -4.8018894    4895.1571            1 
  942000     2.028622   -4.7903807    4921.5332            1 
  943000     1.994231   -4.7927506    4902.7926            1 
  944000    2.0134601    -4.790689    4922.3573            2 
  945000    1.9795556    -4.798581    4940.9801            1 
  946000    1.9717656   -4.7744788    4927.3262            1 
  947000    2.0143486    -4.828509    4915.6977            1 
  948000    2.0348862   -4.7859682    4918.7264            2 
  949000    2.0062877   -4.7562324    4928.3526            1 
  950000    1.9984483   -4.7951521    4923.6782       -1e+20 
  951000    2.0069133   -4.7520777    4921.3274            1 
  952000    1.9887545   -4.8453626    4913.9451            1 
  953000    2.0328269   -4.8548238    4865.3098            1 
  954000    1.9580224   -4.8140209    4906.2274            2 
  955000    1.9686289    -4.815283    4917.6743            1 
  956000    2.0097037   -4.7747036    4915.7726       -1e+20 
  957000    2.0248883   -4.8332409    4911.8424       -1e+20 
  958000    1.9487711   -4.8477531    4879.0682            1 
  959000    2.0041543   -4.7852756    4900.0721            1 
  960000    1.9876059    -4.792835    4943.1082            1 
  961000    1.9626797   -4.8320698    4910.4156            1 
  962000    1.9725488   -4.8344731    4944.1207            2 
  963000     1.997132    -4.807376    4873.6117            1 
  964000    2.0110343   -4.8202892    4953.2371            2 
  965000     2.004101   -4.7827371    4946.8456       -1e+20 
  966000    2.0046234   -4.7694071    4939.4293            1 
  967000    2.0070597   -4.8259095    4890.1596            1 
  968000    2.0360992   -4.7407464    4926.6519            1 
  969000    2.0035609   -4.8074217    4903.9912       -1e+20 
  970000     2.015762   -4.7899878    4913.3523       -1e+20 
  971000    2.0213819   -4.7987866    4964.3176       -1e+20 
  972000    1.9813891   -4.7994374    4936.9255            1 
  973000    2.0337527    -4.781645    4920.4622            1 
  974000    1.9992987   -4.8029123     4909.983            1 
  975000    2.0180268   -4.7778005    4919.6868            1 
  976000     1.985802   -4.8216529    4940.0827            1 
  977000    1.9887673   -4.8194786    4896.2661            2 
  978000    1.9765004   -4.7846144    4945.6641            1 
  979000    2.0236927   -4.7819093    4888.4681            1 
  980000    2.0676092   -4.7911166    4919.6123            1 
  981000    2.0132604   -4.8618316    4891.1934            1 
  982000    2.0090388   -4.8066093    4911.8363       -1e+20 
  983000    2.0318342   -4.7539692    4922.9356            1 
  984000     1.949055   -4.7932193    4924.5107       -1e+20 
  985000    2.0102925   -4.7712913    4919.1598            1 
  986000    2.0234027   -4.7983498    4923.9532            1 
  987000    1.9771986    -4.825124    4931.6866            1 
  988000    1.9389167   -4.7679313    4897.0341            1 
  989000    2.0328108     -4.78531    4924.3854            1 
  990000    1.9944427   -4.8326822    4926.3396            1 
  991000    1.9788529   -4.7958248    4920.0256            1 
  992000    1.9868232   -4.7916733    4948.9714            4 
  993000    1.9882065   -4.8096074    4888.4197            1 
  994000    1.9842043   -4.8033955    4932.6532            1 
  995000    2.0154563   -4.7590958    4907.6409            1 
  996000    1.9999056   -4.8181695    4880.0535            2 
  997000    2.0105052   -4.8221843    4907.0017            3 
  998000     1.972848   -4.7366593    4965.9161            1 
  999000    2.0264796   -4.8688706    4889.4047            1 
 1000000    1.9694056   -4.8391317    4917.0028            1 
 1001000      1.94905   -4.8320883    4881.5363            1 
 1002000    1.9753538   -4.7585746    4930.3221            1 
 1003000     1.992403   -4.7488528    4925.6811            1 
 1004000    1.9838826   -4.8245818    4906.4452       -1e+20 
Loop time of 1968.1 on 48 procs for 1000000 steps with 4000 atoms

Performance: 87800.313 tau/day, 508.104 timesteps/s
99.4% CPU use with 48 MPI tasks x no OpenMP threads

MPI task timing breakdown:
Section |  min time  |  avg time  |  max time  |%varavg| %total
---------------------------------------------------------------
Pair    | 102.18     | 108.02     | 113.93     |  22.8 |  5.49
Neigh   | 20.493     | 20.672     | 21.074     |   2.7 |  1.05
Comm    | 105.1      | 115.01     | 122.23     |  34.4 |  5.84
Output  | 1.1461     | 1.1468     | 1.1625     |   0.2 |  0.06
Modify  | 1706       | 1712.4     | 1721.3     |   7.8 | 87.01
Other   |            | 10.9       |            |       |  0.55

Nlocal:        83.3333 ave          91 max          76 min
Histogram: 2 1 6 4 13 6 8 3 3 2
Nghost:        1434.52 ave        1458 max        1414 min
Histogram: 3 4 7 6 5 11 3 3 5 1
Neighs:        7755.75 ave        8569 max        6971 min
Histogram: 3 3 4 2 9 14 6 3 3 1
FullNghs:      15512.4 ave       17052 max       14029 min
Histogram: 3 2 5 3 13 9 5 4 2 2

Total # of neighbors = 744595
Ave neighs/atom = 186.14875
Neighbor list builds = 83436
Dangerous builds = 3126

#clear
#
#next RN
#
#jump SELF
Total wall time: 0:32:49
