
units lj                  # Use reduced LJ style units
atom_style atomic         # Uncharged point particles
atom_modify map hash      # Needed for indexing of clusters etc
                          # Used to be able to find where atoms are in relation to each other.

lattice fcc 1.0 spacing 1 1 1
Lattice spacing in x,y,z = 1.5874011 1.5874011 1.5874011
region box block 0 10 0 10 0 10 units lattice
create_box 2 box
Created orthogonal box = (0.0000000 0.0000000 0.0000000) to (15.874011 15.874011 15.874011)
  3 by 4 by 4 MPI processor grid
create_atoms 1 box
Created 4000 atoms
  using lattice units in orthogonal box = (0.0000000 0.0000000 0.0000000) to (15.874011 15.874011 15.874011)
  create_atoms CPU = 0.036 seconds
set type 1 type/fraction 2 0.08 78393
Setting atom values ...
  344 settings made for type/fraction
mass 1 1.0
mass 2 1.0
pair_style lj/cut  3.5
pair_modify tail  yes
pair_coeff 1  1  1.0  1.0   # Intearaction between 1 and 1 set with epsilon = 1 and sigma = 1
pair_coeff 1  2  1.5  0.8
pair_coeff 2  2  0.5  0.88

write_data data.0
System init for write_data ...
Neighbor list info ...
  update every 1 steps, delay 10 steps, check yes
  max neighbors/atom: 2000, page size: 100000
  master list distance cutoff = 3.8
  ghost atom cutoff = 3.8
  binsize = 1.9, bins = 9 9 9
  1 neighbor lists, perpetual/occasional/extra = 1 0 0
  (1) pair lj/cut, perpetual
      attributes: half, newton on
      pair build: half/bin/atomonly/newton
      stencil: half/bin/3d
      bin: standard
WARNING: Not all mixed pair coeffs generated from mixing. Use write_data with 'pair ij' option to store all pair coeffs. (../write_data.cpp:312)


#############################
#   M E L T   S Y S T E M   #
#############################

velocity all create 2.4 1741580 mom yes dist gaussian # Assign velocities
                                                    # Temperature 2.4, random number seed, zero linear momentum
                                                                                # Gaussian distribution

timestep 0.002   # simulation timestep
thermo 1000       # output thermodynamic data every 1000 steps bf 100

# Define a fix  in this case with index 1 applied to all
# particles in the simulation. This fix is for simulations
# in the anisotropic NPT ensemble. Note that we use the MTK
# correction.
fix 1 all npt temp 2.4 2.4 0.1 iso 5.68 5.68 0.5 mtk yes tchain 5 pchain 5 # Use NPT ensemble
                                                                         # Set temperature and pressure and damping
                                                                         # Numbers of thermostats in chain and in barostat
run 10000          # run for 10000 steps
Per MPI rank memory allocation (min/avg/max) = 3.642 | 3.644 | 3.648 Mbytes
Step Temp E_pair E_mol TotEng Press Volume 
       0          2.4   -7.8205278            0   -4.2214278   -2.8943486         4000 
    1000    2.4154024   -4.5620556            0   -0.9398578    5.7710781    4894.2304 
    2000    2.3946302   -4.5570164            0  -0.96596909    5.6569501    4917.9655 
    3000    2.3885764   -4.5583784            0  -0.97640953    5.7470625    4906.0913 
    4000    2.4413935   -4.5822409            0  -0.92106615    5.7103683    4902.3981 
    5000    2.4169411    -4.536667            0  -0.91216171    5.7162898    4921.3784 
    6000    2.4062719   -4.6081798            0  -0.99967427    5.5222055    4901.9193 
    7000      2.40789   -4.5692739            0  -0.95834187    5.7687072     4899.996 
    8000    2.4105877   -4.6368363            0   -1.0218587    5.6238589    4876.1959 
    9000    2.4034095      -4.5784            0  -0.97418705    5.7011099    4897.1715 
   10000    2.3967696   -4.6071607            0   -1.0129052     5.305846    4944.5786 
Loop time of 2.15912 on 48 procs for 10000 steps with 4000 atoms

Performance: 800326.956 tau/day, 4631.522 timesteps/s
99.7% CPU use with 48 MPI tasks x no OpenMP threads

MPI task timing breakdown:
Section |  min time  |  avg time  |  max time  |%varavg| %total
---------------------------------------------------------------
Pair    | 0.87764    | 0.94616    | 1.0463     |   2.8 | 43.82
Neigh   | 0.18915    | 0.19604    | 0.20927    |   1.0 |  9.08
Comm    | 0.68712    | 0.75916    | 0.83343    |   3.8 | 35.16
Output  | 0.00024234 | 0.00024714 | 0.00031663 |   0.0 |  0.01
Modify  | 0.20065    | 0.24295    | 0.30131    |   5.4 | 11.25
Other   |            | 0.01456    |            |       |  0.67

Nlocal:        83.3333 ave          90 max          76 min
Histogram: 4 4 4 3 4 7 4 10 5 3
Nghost:        1431.17 ave        1463 max        1398 min
Histogram: 2 1 3 9 8 6 11 4 3 1
Neighs:        7702.81 ave        8560 max        6774 min
Histogram: 3 3 5 3 7 7 9 6 3 2

Total # of neighbors = 369735
Ave neighs/atom = 92.433750
Neighbor list builds = 902
Dangerous builds = 184

# Equilibrate just above the melting temperature to avoid step fn in T

fix 1 all npt temp 1.25 1.25 0.1 iso 5.68 5.68 0.5 mtk yes tchain 5 pchain 5
run 2000
Per MPI rank memory allocation (min/avg/max) = 3.642 | 3.644 | 3.648 Mbytes
Step Temp E_pair E_mol TotEng Press Volume 
   10000    2.3967696   -4.6071607            0   -1.0129052     5.305846    4944.5786 
   11000    1.2517827   -6.0916869            0   -4.2144823    5.8922801    4050.6484 
   12000    1.2656105   -6.1112979            0   -4.2133569    5.8133308    4054.1489 
Loop time of 0.482206 on 48 procs for 2000 steps with 4000 atoms

Performance: 716706.250 tau/day, 4147.606 timesteps/s
99.7% CPU use with 48 MPI tasks x no OpenMP threads

MPI task timing breakdown:
Section |  min time  |  avg time  |  max time  |%varavg| %total
---------------------------------------------------------------
Pair    | 0.20277    | 0.22173    | 0.26201    |   2.2 | 45.98
Neigh   | 0.030629   | 0.033004   | 0.039001   |   0.7 |  6.84
Comm    | 0.13543    | 0.17046    | 0.19174    |   2.8 | 35.35
Output  | 5.337e-05  | 5.5098e-05 | 6.9027e-05 |   0.0 |  0.01
Modify  | 0.041238   | 0.052429   | 0.065699   |   3.0 | 10.87
Other   |            | 0.004521   |            |       |  0.94

Nlocal:        83.3333 ave          95 max          73 min
Histogram: 3 1 4 6 11 12 6 3 1 1
Nghost:        1632.19 ave        1665 max        1606 min
Histogram: 2 0 10 9 10 5 6 4 1 1
Neighs:        9403.71 ave       10715 max        7924 min
Histogram: 1 2 5 5 6 14 6 1 6 2

Total # of neighbors = 451378
Ave neighs/atom = 112.84450
Neighbor list builds = 142
Dangerous builds = 11

#############################
# L I N E A R  Q U E N C H  #
#############################

# Define solid atoms. This closely follows ten Wolde  Ruiz-Montero and Frenkel  Faraday Discuss  1996  104  93-110
# Compute components of the per-atom q6 vector
compute q6 all orientorder/atom degrees 1 6 components 6 nnn NULL cutoff 1.3 # compute the Q6 parameter.
                                                                             # Use all neighbours within 1.3 unit cell.

# get number of connections
compute coord_number all coord/atom orientorder q6 0.5

# An atom is solid if it has 8 or more connections (of a possible 14)
variable is_solid atom c_coord_number>=8
group solid dynamic all var is_solid    # Must be dynamic to update
dynamic group solid defined

# do clustering
compute cluster solid cluster/atom 1.3 # Create a cluster where all atoms within are solid and max 1.3 units from another member

# define chunks one chunk per cluster
compute clus_chunks solid chunk/atom c_cluster nchunk every compress yes  # Says which atoms are in which chunk

# count the size of each chunk
compute size_chunks solid property/chunk clus_chunks count


# Find the maximum entry in the vector of chunk sizes
variable max_n equal max(c_size_chunks)


# Thermo style which includes this variable
# thermo_style custom step temp pe vol v_max_n

thermo ${N}  # Print the thermo information every 100 steps
thermo 1000  

# Reset the npt fix at a lower temperature (below freezing)
fix 1  all npt temp  ${temp} ${temp}  0.1  iso  5.68  5.68  0.5  mtk yes tchain  5  pchain  5
fix 1  all npt temp  0.45 ${temp}  0.1  iso  5.68  5.68  0.5  mtk yes tchain  5  pchain  5
fix 1  all npt temp  0.45 0.45  0.1  iso  5.68  5.68  0.5  mtk yes tchain  5  pchain  5

dump dmp2 all dcd ${N} traj.dcd
dump dmp2 all dcd 1000 traj.dcd


compute msd all msd com yes
variable twopoint equal c_msd[4]/6/(step*dt+1.0e-6)
fix 9 all vector 10 c_msd[4]
variable fit equal slope(f_9)/6/(10*dt)
thermo_style custom step temp pe c_msd[4] v_twopoint v_fit v_max_n

fix 1 all npt temp 1.25 ${temp} 0.1 iso 5.68 5.68 0.5 mtk yes tchain 5 pchain 5
fix 1 all npt temp 1.25 0.45 0.1 iso 5.68 5.68 0.5 mtk yes tchain 5 pchain 5
run 2000000 # 5000000  # Run for this many steps
Neighbor list info ...
  update every 1 steps, delay 10 steps, check yes
  max neighbors/atom: 2000, page size: 100000
  master list distance cutoff = 3.8
  ghost atom cutoff = 3.8
  binsize = 1.9, bins = 9 9 9
  4 neighbor lists, perpetual/occasional/extra = 1 3 0
  (1) pair lj/cut, perpetual
      attributes: half, newton on
      pair build: half/bin/atomonly/newton
      stencil: half/bin/3d
      bin: standard
  (2) compute orientorder/atom, occasional
      attributes: full, newton on
      pair build: full/bin/atomonly
      stencil: full/bin/3d
      bin: standard
  (3) compute coord/atom, occasional
      attributes: full, newton on
      pair build: full/bin/atomonly
      stencil: full/bin/3d
      bin: standard
  (4) compute cluster/atom, occasional
      attributes: full, newton on
      pair build: full/bin/atomonly
      stencil: full/bin/3d
      bin: standard
Per MPI rank memory allocation (min/avg/max) = 9.747 | 9.753 | 9.761 Mbytes
Step Temp PotEng c_msd[4] v_twopoint v_fit v_max_n 
   12000    1.2656105   -6.1112979 1.8711781e-30 1.2994292e-32 8.3333333e+20            4 
   13000    1.2481183   -6.1257695   0.56041139 0.0035923806  0.045856894            2 
   14000    1.2388992   -6.1637789    1.1141154 0.0066316393  0.045454752            2 
   15000    1.2265063   -6.1259437    1.6712175 0.0092845414   0.04695575            2 
   16000    1.2755633   -6.1414063    2.2815584  0.011883116  0.046605313            5 
   17000    1.2635884   -6.1578548    2.9006055  0.014218654  0.047833589            2 
   18000    1.2324779    -6.167482    3.5072137    0.0162371   0.04859557            2 
   19000    1.2688616   -6.1366614    4.0195931  0.017629794  0.048957423            3 
   20000    1.2298477   -6.1309487    4.5492817   0.01895534  0.048252609            1 
   21000    1.2487912   -6.1084156    5.1090168  0.020273876  0.047731123            3 
   22000    1.2647079   -6.1389994      5.59164  0.021180454  0.047338959            2 
   23000    1.2581733    -6.136049    6.1107242  0.022140305  0.046779491            2 
   24000    1.2646783    -6.130165    6.7095581  0.023297076   0.04651555            2 
   25000     1.228121   -6.1156865    7.2379442   0.02412648  0.046352009            3 
   26000    1.2238455   -6.1337929    7.7666412   0.02489308  0.046174666            2 
   27000    1.2336219    -6.156138    8.2618138  0.025499425  0.046014293            3 
   28000    1.2444916   -6.1633517    8.7622498  0.026078124  0.045813275            2 
   29000    1.2275645    -6.134947    9.2942416   0.02670759  0.045566366            6 
   30000    1.2077267   -6.1626044    9.8683016  0.027411948  0.045400724            2 
   31000    1.2180736   -6.1118753    10.401975  0.027962299  0.045355356            2 
   32000    1.2108127   -6.1665171    10.892169  0.028365022  0.045304278            2 
   33000    1.2136666   -6.1673385    11.491886  0.029019915  0.045209855            2 
   34000    1.2595005   -6.1727606    12.080232  0.029608412  0.045157582            2 
   35000    1.2363778   -6.1442125    12.607409  0.030017641  0.045150629            3 
   36000    1.2359985   -6.1917528    13.129272  0.030391833  0.045119246            2 
   37000      1.23416   -6.1678581    13.556569  0.030532812  0.045046805            2 
   38000    1.2617387   -6.1845351    14.183687  0.031104576   0.04502513            1 
   39000    1.2474206   -6.1697089    14.689698  0.031388243   0.04500984            3 
   40000     1.245172      -6.1642    15.276309  0.031825644  0.045021586            1 
   41000    1.2224968   -6.1633142    15.902636   0.03232243  0.045071774            2 
   42000    1.2623145   -6.1244725    16.422616  0.032584555  0.045105765            2 
   43000    1.2427871   -6.1513771    16.886188  0.032725171  0.045105016            5 
   44000     1.251667   -6.1711032    17.470581  0.033088221  0.045083807            4 
   45000    1.2456345   -6.1860484    17.978534  0.033293581  0.045076251            2 
   46000    1.2142232   -6.1633644    18.328889  0.033204509  0.045036475            3 
   47000    1.2459785   -6.1727893    18.745301  0.033236349  0.044948174            4 
   48000    1.2540867   -6.1831192    19.389317  0.033662008  0.044875181            3 
   49000     1.217919   -6.0997547    19.981749  0.033982566  0.044825857            3 
   50000    1.2335492   -6.2031851     20.47247  0.034120782  0.044797644            3 
   51000    1.2189267   -6.1836906     21.10639  0.034487565  0.044762593            4 
   52000     1.207537   -6.1909939    21.571152  0.034569154  0.044742712            2 
   53000    1.2463532   -6.1609555    22.128888  0.034793848  0.044734063            3 
   54000    1.2272887   -6.2025113    22.798369  0.035182668  0.044750339            2 
   55000    1.2072168   -6.1758441    23.230087  0.035197101  0.044750699            2 
   56000    1.2366061   -6.1838612    23.793837  0.035407496  0.044733958            2 
   57000    1.2214755   -6.1609333    24.246233  0.035447708  0.044716114            5 
   58000    1.2252892   -6.1752896    24.776558  0.035598503  0.044700878            2 
   59000    1.2220168   -6.1657569     25.23648  0.035644745  0.044671401            3 
   60000    1.2385586   -6.2036258    25.973175  0.036073854  0.044670158            2 
   61000    1.2328103   -6.1818627    26.433434  0.036111248  0.044664884            2 
   62000    1.2292766   -6.1409566    26.923571  0.036187595  0.044651189            2 
   63000    1.2312061   -6.1827777    27.520659  0.036402987  0.044640747            2 
   64000    1.2296506   -6.1804228    28.105862  0.036596175  0.044636709            1 
   65000    1.2245128   -6.1461001    29.007091  0.037188578  0.044660497            3 
   66000    1.2333117   -6.1738261    29.366812  0.037079307  0.044700693            3 
   67000     1.235662   -6.1653299     30.07693  0.037409117  0.044742095            2 
   68000    1.2371902   -6.1669407    30.734384  0.037664686  0.044792475            2 
   69000    1.2387842   -6.1830253     31.16657  0.037640785  0.044848293            4 
   70000    1.2074872   -6.1848647    31.814312  0.037874181  0.044908206            2 
   71000     1.229007   -6.1722387    32.455051  0.038092783  0.044980223            2 
   72000    1.1918198   -6.1899438    33.102167  0.038312693  0.045055677            6 
   73000    1.2086583   -6.1555012    33.737587  0.038513227  0.045129508            3 
   74000    1.2127055   -6.1433841    34.309804  0.038637166   0.04520389            3 
   75000    1.2406644   -6.1822922    34.743791  0.038604212  0.045278733            2 
   76000    1.2289991   -6.1657688    35.373065  0.038786255  0.045335643            4 
   77000    1.2352489   -6.1715163    35.976014  0.038935079  0.045396167            2 
   78000    1.2020061    -6.174099    36.551227  0.039050455  0.045463421            2 
   79000    1.2226303   -6.1880079    36.974869  0.039003026  0.045514583            1 
   80000    1.2301678   -6.2094266    37.509102  0.039071981  0.045553205            6 
   81000    1.2254111   -6.2030738    38.052858  0.039149031    0.0455833            3 
   82000    1.2308461   -6.1649491    38.597313  0.039224911  0.045609952            1 
   83000    1.2485228   -6.1646075    39.100655  0.039257685  0.045636277            3 
   84000    1.2263836   -6.1892853    39.322465  0.039010382  0.045649603            2 
   85000    1.2360211   -6.1573683    40.050081  0.039264786  0.045657413            2 
   86000    1.2422545   -6.1988534    40.492625   0.03923704  0.045661183            7 
   87000     1.189193   -6.1602509    41.201611  0.039465145  0.045668915            5 
   88000    1.2232841    -6.188364    41.745135  0.039531378  0.045678983            3 
   89000    1.2282058   -6.1758294    42.286379  0.039593988  0.045685115            2 
   90000    1.2183996   -6.1532896    42.921546  0.039742172   0.04569825            2 
   91000    1.1959476    -6.240913    43.403936  0.039747194  0.045711435            3 
   92000    1.2148846    -6.201356    44.073123  0.039921307  0.045731318            2 
   93000    1.2419084   -6.1706957    44.760077  0.040107596  0.045759091            2 
   94000    1.2058077   -6.2013663    45.179533  0.040052777  0.045777518            3 
   95000    1.1909014   -6.1612553    45.471686  0.039887444  0.045775332            2 
   96000    1.1880983    -6.197322     45.75468  0.039717604  0.045771003            3 
   97000    1.2129009   -6.1809929    46.245617  0.039729911  0.045750705            2 
   98000    1.2058007   -6.1787116    46.641552  0.039661183  0.045721266            2 
   99000    1.2079753   -6.1516348    47.223849  0.039750715  0.045685966            2 
  100000    1.2405064   -6.1925987    47.767193  0.039805994  0.045661964            4 
  101000    1.2152072     -6.24911    47.777764  0.039420597  0.045623713            3 
  102000     1.202644   -6.2274155    48.271482  0.039437485  0.045573828            6 
  103000    1.1920632   -6.2194304    48.655953  0.039365657   0.04551924            3 
  104000    1.1790546   -6.2227062    49.249024  0.039462359   0.04546003            4 
  105000    1.2268202    -6.197094    49.942201  0.039636668  0.045406149            3 
  106000    1.2291854   -6.1868989      50.2789  0.039527437  0.045352448            2 
  107000    1.2082726   -6.1598707    50.770648  0.039541003   0.04530422            6 
  108000    1.2249053   -6.2332229    51.679242  0.039875958  0.045262967            4 
  109000    1.1711992   -6.2034595    51.946848  0.039714716  0.045226195            3 
  110000    1.2062407    -6.218417    52.399863  0.039696865  0.045184057            3 
  111000    1.2236495   -6.1707564    52.858798  0.039683782  0.045138688            1 
  112000    1.1985959    -6.185332    53.275226  0.039639305  0.045084921            3 
  113000    1.1989984   -6.2450515    53.756575  0.039643491  0.045034751           10 
  114000    1.2137059   -6.1648773    54.385533  0.039755507  0.044979244            2 
  115000    1.1758109   -6.1707832    54.723662  0.039654827  0.044928709            2 
  116000     1.185136    -6.199803    55.040067  0.039540278  0.044873688            4 
  117000     1.226359   -6.1960546     55.73807   0.03969948  0.044824093            2 
  118000    1.2282177   -6.1688965    55.993176  0.039543203  0.044773939            6 
  119000    1.1847566   -6.2393851    56.615367  0.039646615  0.044722953            1 
  120000    1.1969153   -6.2146967     57.04443  0.039614187  0.044673663            2 
  121000    1.2043878   -6.2289974    57.522978  0.039616376  0.044628127            2 
  122000     1.219062   -6.2129214     58.08745  0.039677219   0.04458583            6 
  123000    1.1975939   -6.1893318     58.64764  0.039734173  0.044536867            3 
  124000    1.1809027   -6.2463328    58.990228  0.039643971  0.044490905            1 
  125000    1.2045356   -6.2578487    59.854889  0.039903259  0.044451545            4 
  126000    1.2200673   -6.2294623    60.408434  0.039952668  0.044415684            2 
  127000    1.2016927   -6.2545416    60.701443  0.039830343  0.044384007            2 
  128000    1.1699331    -6.250647    61.178572  0.039829799  0.044349101            4 
  129000    1.1982708   -6.2290669    61.927784  0.040005028  0.044314804            2 
  130000    1.1639135   -6.2187205    62.483487  0.040053517   0.04428886            2 
  131000    1.2114212   -6.2053468    63.294477  0.040263662  0.044269514            4 
  132000    1.2080799   -6.2366714    64.072921  0.040450076  0.044257506            2 
  133000    1.2206157   -6.2533641    64.751136  0.040570887  0.044252208            2 
  134000    1.1938259   -6.2158765    65.381155  0.040659922  0.044252228            4 
  135000    1.1925879   -6.2250356    65.964358  0.040718739  0.044254236            3 
  136000    1.2244942   -6.2145871    66.227615  0.040580647  0.044253345            3 
  137000    1.1936911   -6.1754122    67.282621  0.040926168  0.044257889            5 
  138000     1.186423   -6.2117223    67.694421  0.040878273  0.044257297            3 
  139000    1.2077706   -6.2215535    68.091996   0.04082254  0.044261021            2 
  140000    1.1922471    -6.263307    68.282275  0.040644211  0.044260135            4 
  141000    1.2065399    -6.245145    68.813405  0.040669861  0.044255245            3 
  142000      1.19281   -6.2374891    69.297202  0.040667372  0.044246346            2 
  143000    1.2371572   -6.1982071    69.798759  0.040675268  0.044237243            6 
  144000     1.218399   -6.2296324    70.124969  0.040581579  0.044221293            5 
  145000    1.2019106   -6.2473457    70.714891  0.040640742   0.04420763            4 
  146000    1.2081146   -6.2352926    71.131046  0.040599912   0.04419555            5 
  147000    1.1898409   -6.2196951     71.52444  0.040546735  0.044180225            3 
  148000    1.1890968   -6.2423912    72.013066  0.040547898   0.04416366            3 
  149000    1.2057885   -6.2095485    72.298146  0.040435205  0.044143522            6 
  150000    1.2082381   -6.2131705    72.784471  0.040435817  0.044122894            2 
  151000    1.2004989    -6.258043    72.798538  0.040175793  0.044097065            2 
  152000    1.1739745   -6.2481392     73.62848  0.040366491  0.044070409            2 
  153000    1.1946801     -6.22134    74.270291  0.040452228  0.044046773            5 
  154000    1.2095449   -6.2345476    74.803435  0.040478049  0.044023818            7 
  155000    1.1879476   -6.2254621    75.669685  0.040682626  0.044004196            6 
  156000    1.2061275   -6.2328723    76.263072   0.04073882  0.043988303            1 
  157000    1.1968422   -6.2411627      77.0433  0.040893471  0.043977776            6 
  158000    1.1922108   -6.2468468    77.278942  0.040758936  0.043967926            3 
  159000      1.17486   -6.2224987    77.533019  0.040635754   0.04395975            6 
  160000    1.1770252   -6.2643799    78.234013  0.040746882  0.043950155            2 
  161000    1.1724283   -6.2552414    78.760455  0.040766281  0.043941125            2 
  162000    1.1763667   -6.1844193    79.388524  0.040837718  0.043928687            2 
  163000    1.2082619   -6.2439806    79.986609  0.040892949  0.043917214            2 
  164000     1.196583   -6.2452418    79.961293  0.040630738  0.043903258            6 
  165000    1.1927321   -6.2235556     80.68143  0.040748197  0.043889415            1 
  166000    1.2239833   -6.2099156    80.963504  0.040644329  0.043876522           12 
  167000    1.1955119   -6.2843766    81.266048   0.04055192  0.043859948            6 
  168000    1.2024415   -6.2336761    81.713046  0.040532265  0.043835774            2 
  169000    1.2098223   -6.2387999     82.05499   0.04046104  0.043809707            6 
  170000    1.1888333   -6.2400062    82.831445  0.040603649  0.043782935            4 
  171000    1.1974162   -6.2263858    83.282127  0.040585832   0.04376039            2 
  172000    1.1599773   -6.2739151    83.800154   0.04060085  0.043739564            1 
  173000    1.1955025   -6.2953263    84.057605  0.040490176  0.043717875            3 
  174000    1.1742716   -6.3022856    84.506217  0.040472326  0.043693795            3 
  175000    1.1978105   -6.2599198    84.906433  0.040431635  0.043667136            4 
  176000    1.1857518   -6.2274556    85.713034  0.040583823  0.043646026            3 
  177000    1.1669219   -6.2553512    85.964036   0.04047271  0.043623762            2 
  178000     1.177089   -6.2811499    86.612756  0.040549043  0.043602148            2 
  179000    1.1852773   -6.2617061    87.344959  0.040663389  0.043583705            2 
  180000    1.1845523   -6.2573616    88.077629   0.04077668   0.04356935            2 
  181000    1.1505667   -6.2714385    88.426394  0.040711968  0.043556297            4 
  182000    1.1850449   -6.2624977    88.754506   0.04063851  0.043542241            4 
  183000    1.1859611   -6.2664033    89.261022  0.040647095  0.043524121            2 
  184000    1.1751686   -6.2496171     90.10708  0.040809366  0.043507599            2 
  185000    1.1990282    -6.262926    90.481851  0.040757591  0.043493856            2 
  186000    1.1774487   -6.2691466    91.170718  0.040847096  0.043479378            4 
  187000    1.1900949   -6.2482306    91.367021  0.040716141  0.043461277           10 
  188000      1.22032   -6.2727956    91.727868  0.040659516  0.043443687            3 
  189000    1.1675318   -6.2737438    92.365692  0.040725614  0.043426528            2 
  190000    1.2131457   -6.2471553    92.930252  0.040758882  0.043411762            3 
  191000    1.1900566   -6.2979825    93.276804  0.040696686  0.043395185            2 
  192000    1.1839088   -6.2925256    93.884112  0.040748312   0.04337999            2 
  193000    1.1843186   -6.2656744     94.82993  0.040945565  0.043366261            2 
  194000    1.1744768   -6.2424174    94.766744  0.040707364  0.043354368            3 
  195000    1.1743835   -6.2846241    95.200563  0.040684001  0.043339512            1 
  196000    1.1538894   -6.2668823    95.606044  0.040648828  0.043323307            3 
  197000    1.1553277   -6.2931546    95.823234  0.040534363   0.04330569            2 
  198000    1.1394379   -6.2543117    96.380398   0.04056414  0.043289066            3 
  199000    1.1882119    -6.253038    96.805934  0.040538498  0.043271343            5 
  200000    1.1366144   -6.2668487     97.15504  0.040481266  0.043249708            5 
  201000    1.1741043   -6.2525341    97.911648  0.040593552  0.043228181            3 
  202000    1.1680304   -6.2382367    98.161395  0.040495625  0.043204243            4 
  203000    1.1780245   -6.2499074    98.695006  0.040515191   0.04318382            4 
  204000     1.161392   -6.2776311    99.033347  0.040454798  0.043164029            2 
  205000    1.2003477   -6.3073449    99.076845   0.04027514  0.043141192            3 
  206000    1.1605379   -6.3188609     100.2158   0.04054037  0.043116863            2 
  207000    1.1734502    -6.256655    100.31634  0.040384999  0.043095012            3 
  208000     1.170322   -6.3051933    101.29549  0.040583129  0.043075631            3 
  209000    1.1746793   -6.2771543    101.72819   0.04056148  0.043058119            2 
  210000    1.1355385   -6.2923437    102.45479  0.040656661  0.043042924            3 
  211000    1.1655897   -6.3105811    103.18867  0.040753819  0.043029768            3 
  212000    1.1551565   -6.2202902    103.92478  0.040850937  0.043015925            3 
  213000    1.1433174   -6.3082013    103.91547  0.040655504  0.043001488            4 
  214000    1.1634333   -6.2875414    104.23006  0.040588028  0.042987093            4 
  215000    1.1667002   -6.2940864    104.36696   0.04045231  0.042972622            5 
  216000    1.1652562    -6.246041    105.15812  0.040570263  0.042955169            3 
  217000    1.1546792   -6.2857521     105.2876  0.040433026  0.042936707            2 
  218000    1.1703631    -6.277655     105.6089  0.040370373  0.042918981            2 
  219000    1.1884108   -6.2748863    105.92474  0.040306217  0.042899648            2 
  220000     1.164476   -6.2962981    106.48042  0.040333492  0.042877061            2 
  221000    1.1486242   -6.2919415    106.79165  0.040268346  0.042853911            4 
  222000     1.163272   -6.2673597     107.2671  0.040265427  0.042830077            4 
  223000     1.141115   -6.2670461     107.6964  0.040245292  0.042804909            4 
  224000    1.1799025   -6.2884761    107.66093   0.04005243  0.042777564            3 
  225000    1.1404612   -6.2684831    108.51722  0.040191563   0.04275067            3 
  226000    1.1409901   -6.2685319    108.96045  0.040177157  0.042723985            3 
  227000    1.1553394   -6.2839626    109.59992   0.04023492  0.042698436            2 
  228000    1.1414605   -6.2546438    109.70748  0.040097763  0.042673083            2 
  229000    1.1720101   -6.2313055    110.46804  0.040199434  0.042648894            2 
  230000    1.1635425   -6.2839016    110.95465  0.040200961  0.042624204            4 
  231000    1.1396791    -6.311364    111.07839  0.040071568  0.042598213            3 
  232000      1.16601   -6.3287595    111.54922  0.040067966  0.042570658            2 
  233000    1.1607696   -6.2756519    112.19154  0.040125729  0.042542717            2 
  234000    1.1350929   -6.3139739    111.90435  0.039851976  0.042515141            3 
  235000    1.1835355   -6.2788162    112.65904  0.039950014  0.042488034            2 
  236000    1.1679504     -6.26145    113.58046  0.040106095  0.042462089            3 
  237000    1.1423965   -6.2926287    114.56005  0.040281311  0.042438968            4 
  238000    1.1394545   -6.2937424    114.82243  0.040203934  0.042417456            7 
  239000    1.1883433    -6.311539    115.03593  0.040110156  0.042396136            3 
  240000    1.1323096   -6.2819756    115.78942   0.04020466  0.042373683            4 
  241000    1.1619398   -6.2534367    116.23699  0.040192595  0.042352983            2 
  242000    1.1626153   -6.2860334    116.62569  0.040160362  0.042332983            4 
  243000    1.1575661   -6.2675931    117.53138  0.040305687  0.042313506            2 
  244000    1.1482469   -6.2708087     117.8676  0.040255328  0.042295614            2 
  245000    1.1344277   -6.3301833    118.62892  0.040349973  0.042276443            2 
  246000    1.1593426   -6.2970714    118.59377  0.040174041  0.042257498            4 
  247000    1.1328205   -6.3199577    119.02016   0.04015525  0.042239479            3 
  248000    1.1602773   -6.2910943    119.82163  0.040262643  0.042222786            4 
  249000    1.1607903   -6.3040748      120.473  0.040318943  0.042206637            2 
  250000     1.163199    -6.281567    120.65872  0.040219574  0.042189889            2 
  251000    1.1806264   -6.3394361    121.06459  0.040194087  0.042174323            5 
  252000    1.1546833   -6.2702352    122.17825   0.04040286  0.042159083            2 
  253000    1.1836408   -6.3147735    122.62652  0.040390816  0.042144913            2 
  254000    1.1555094   -6.3178907    123.10118  0.040387525  0.042130907            2 
  255000    1.1458674   -6.3222413    123.27315  0.040285344  0.042117159            4 
  256000    1.1380395   -6.2941197    123.79772  0.040298738  0.042103554            3 
  257000     1.159917   -6.2876783    124.29548  0.040303332  0.042090016            5 
  258000    1.1614118   -6.3185672    124.14184  0.040097493  0.042072888            2 
  259000    1.1535989   -6.3069436    124.53113  0.040067933  0.042055168            3 
  260000    1.1577384   -6.2933337    125.03468  0.040075218  0.042034935            3 
  261000    1.1535994   -6.3087437    124.91778   0.03988435  0.042014652            2 
  262000    1.1531444   -6.3233136    126.15205  0.040124699  0.041996328            3 
  263000    1.1495481   -6.2861407    126.76793  0.040167277  0.041980375            3 
  264000    1.1388237   -6.3252459    127.00431  0.040089745  0.041965015            2 
  265000    1.1463774   -6.3089262    127.54705  0.040109134  0.041948787            2 
  266000    1.1668541   -6.2654084    128.32035  0.040200611  0.041933853            4 
  267000    1.1522021   -6.3496689    128.40286  0.040075797  0.041918793            3 
  268000    1.1416381   -6.3242835    129.19132  0.040171432  0.041903209            5 
  269000    1.1408876   -6.3518734    129.21498  0.040029425  0.041887285            6 
  270000    1.1643081   -6.3223542    129.85787  0.040079589  0.041871185            3 
  271000    1.1331605   -6.3281618     130.3141  0.040071988  0.041854167            6 
  272000    1.1489006   -6.2940634    131.15431   0.04018208  0.041838739            1 
  273000    1.1410514    -6.302473    131.39795  0.040109263  0.041824421            6 
  274000    1.1505009   -6.3657065    131.83502  0.040095808  0.041810152            4 
  275000    1.1539663   -6.3436932    132.75522  0.040228856  0.041796494            4 
  276000    1.1390575    -6.307813    132.98278  0.040151806  0.041783164            3 
  277000    1.1056875   -6.3460021    133.51583  0.040167216  0.041769184            4 
  278000    1.1553466   -6.3253274    133.42661  0.039995987  0.041753896            3 
  279000    1.1363387   -6.3625775    134.02285   0.04003072  0.041738039            4 
  280000    1.1444737   -6.2823571    135.12919  0.040217021  0.041723367            2 
  281000    1.1264509   -6.3351501    135.17647   0.04008792  0.041710556            2 
  282000    1.1424325   -6.3382852    135.16118  0.039941246  0.041696261            2 
  283000    1.1431418   -6.3064887    136.26236  0.040124369  0.041680528            3 
  284000    1.1544955   -6.3622119    135.89347  0.039874844  0.041665221            3 
  285000    1.1429036   -6.3295436    137.23969  0.040128565  0.041650555            3 
  286000     1.147958   -6.3381784    137.46657  0.040054363  0.041636887            2 
  287000    1.1581275   -6.3125078     138.0075  0.040071865   0.04162243            2 
  288000    1.1217779   -6.3076527    138.30281  0.040018174  0.041608341            3 
  289000    1.1798756   -6.3578332    138.50024  0.039936633  0.041594723            4 
  290000    1.1273799   -6.3416713    139.31749  0.040033761  0.041579719            7 
  291000    1.1458842   -6.3376418    139.67238  0.039997818  0.041565903            3 
  292000    1.1231125    -6.344947    140.09086  0.039980269  0.041551498            3 
  293000    1.1285939   -6.3557504    140.62682  0.039996251  0.041536493            3 
  294000    1.1477853   -6.3208774    141.28179  0.040045857  0.041522487            4 
  295000     1.144886   -6.3454882     142.0301  0.040121498  0.041508774            1 
  296000    1.1354057   -6.3437312    141.86649  0.039939889  0.041496516            7 
  297000    1.1559372   -6.3320509     142.4467  0.039968211  0.041481741            3 
  298000    1.1442353   -6.3630428    142.64011  0.039888173  0.041465848            2 
  299000      1.13539   -6.3346579    142.73735  0.039781869  0.041448563            2 
  300000    1.1344037   -6.3546373      142.661  0.039628056  0.041429227            6 
  301000    1.1480349   -6.4034639    143.03882  0.039601002  0.041410002            3 
  302000    1.1384789   -6.3379104    143.37848  0.039563598  0.041389372            3 
  303000    1.1299356   -6.2960474    143.10252   0.03935713  0.041368125            3 
  304000     1.107884   -6.3587166    144.31118  0.039558985  0.041346632            3 
  305000    1.1319415   -6.3533403    144.69336  0.039533705  0.041325836            3 
  306000    1.1433157   -6.3527672    144.59725  0.039378337  0.041304818            6 
  307000    1.1359953   -6.3005029     145.5878  0.039518946  0.041282861            5 
  308000    1.1284485    -6.364532    145.53425  0.039376151  0.041260491            3 
  309000    1.1227552   -6.3292977    146.14052  0.039412223  0.041237184            4 
  310000    1.1559623   -6.3193911    146.77808  0.039456473  0.041214537            2 
  311000    1.1481647   -6.3277311    147.37887  0.039490586  0.041191867            6 
  312000     1.122526   -6.3133439    147.57321  0.039415922  0.041167911            3 
  313000    1.1296329   -6.3684571    147.65366   0.03931141   0.04114403            6 
  314000    1.1312923   -6.3050128    148.21187  0.039334359   0.04112079            4 
  315000    1.1323497   -6.3634376    148.60821  0.039314342    0.0410991            2 
  316000    1.1165209   -6.3625643    148.43178  0.039143402  0.041076542            5 
  317000    1.1217403   -6.3343208    149.53282  0.039309364  0.041054197            4 
  318000    1.1388795   -6.3414244    149.52473  0.039183629  0.041032161            4 
  319000    1.1263673   -6.3804964    149.87853  0.039153221  0.041009196            4 
  320000     1.167526   -6.3391695    150.10724  0.039090426  0.040984482            8 
  321000    1.1096524   -6.3292822    150.83817  0.039158403  0.040960626            3 
  322000    1.1301185   -6.3565024    151.32592  0.039163022  0.040936318            4 
  323000    1.1197552   -6.3726961     151.4341  0.039069686  0.040911054            3 
  324000    1.1281031   -6.3903192     151.5686  0.038983694  0.040885882            4 
  325000    1.1171006   -6.3534274    152.09631  0.038999053  0.040860343            2 
  326000    1.1244403   -6.3706458    152.27199  0.038924333  0.040835306            2 
  327000    1.1222551    -6.396551    152.46724  0.038855055  0.040809288            3 
  328000    1.1209821    -6.366119    152.56282  0.038760879  0.040781851            6 
  329000    1.1545424   -6.3685497    153.31791  0.038834323  0.040754254            3 
  330000    1.1379208   -6.3927989    153.45083  0.038750209  0.040726084            6 
  331000    1.1321538   -6.3764687    153.88414  0.038742231   0.04069806            9 
  332000    1.1175289   -6.3967436    153.42634  0.038510627  0.040670233            3 
  333000    1.1122201   -6.3317768    154.80113   0.03873902  0.040642647            3 
  334000    1.1067047   -6.3724487    155.21447  0.038726165  0.040614749            5 
  335000    1.1203503   -6.3473768    155.26321  0.038622689  0.040586688            3 
  336000     1.138123   -6.3544561    155.87512  0.038659503   0.04055848            3 
  337000    1.1051957   -6.3243844    156.36925  0.038666976  0.040530469            4 
  338000    1.1387357   -6.3859893    157.26365  0.038773089  0.040503091            3 
  339000    1.1152953   -6.3842988    156.81372  0.038548112   0.04047473            2 
  340000    1.1456812   -6.3588306    157.28601  0.038550494  0.040446304            6 
  341000    1.1036707   -6.3625152    157.35799  0.038455032  0.040417956            2 
  342000    1.1096458   -6.3522608    158.14089  0.038533355  0.040389876            2 
  343000    1.1261994   -6.3824801    158.34617  0.038470887   0.04036276            2 
  344000    1.1296152   -6.3607681    158.17821  0.038318365  0.040334323            2 
  345000    1.1128067   -6.3747421    159.24187   0.03846422  0.040305648            3 
  346000    1.1021464   -6.3951877    159.34206  0.038377182   0.04027713            4 
  347000    1.1245676   -6.4004676    160.15089   0.03846083  0.040249213            3 
  348000    1.1171778   -6.3708531    160.55638  0.038447408  0.040222244            3 
  349000    1.1053465   -6.3554482     161.2927  0.038513062  0.040196505            4 
  350000    1.1302517   -6.3838031     161.5318  0.038459952  0.040171365            3 
  351000    1.1057766   -6.3871184    162.51675  0.038584224  0.040145392            2 
  352000    1.1264118   -6.3934331    162.63327  0.038502194  0.040120333            2 
  353000    1.1164399   -6.3761454    163.25878  0.038540788  0.040096317            5 
  354000     1.111067   -6.3759655    163.38948  0.038462684  0.040071669            3 
  355000    1.0996289   -6.3807644    163.44741  0.038367936  0.040046669            6 
  356000    1.1293809   -6.3819642    164.15111  0.038424885  0.040022084            2 
  357000    1.0955866   -6.3861307    164.68118  0.038440986   0.03999754            2 
  358000    1.1105914   -6.3918064    164.40975  0.038270427  0.039972631            4 
  359000    1.1049563   -6.3615705     165.2837   0.03836669  0.039947154            3 
  360000    1.1097176   -6.3963787    165.32235  0.038269062   0.03992125            5 
  361000    1.0793195   -6.3864359    165.70696  0.038251837  0.039895778            2 
  362000    1.1123845   -6.3561924    166.70011  0.038374796  0.039870634            7 
  363000    1.1029428   -6.3865963    166.86064  0.038305931  0.039846988            4 
  364000    1.1274708   -6.4293732    167.12967  0.038262288  0.039823377            5 
  365000     1.103418   -6.3698801    168.06607  0.038371249  0.039800391            3 
  366000    1.1257521    -6.370109    167.46931  0.038130535  0.039776996            2 
  367000    1.1143007   -6.3786378    168.49499  0.038259535  0.039753305            4 
  368000    1.1238636    -6.392707    168.76443  0.038216583  0.039730211            4 
  369000    1.0961694   -6.3618139    169.12781  0.038195078  0.039707528            5 
  370000    1.0860376    -6.398512    169.37017  0.038146436   0.03968427            4 
  371000    1.0963629   -6.4182593    169.90518  0.038163786   0.03966097            4 
  372000    1.1248871   -6.3743762    170.38023  0.038167615   0.03963784            4 
  373000     1.113392   -6.3787628    170.88104  0.038177175   0.03961476            3 
  374000     1.085215   -6.4108834    171.34332  0.038178103  0.039592663            2 
  375000     1.103599   -6.3643596    172.13077  0.038251283  0.039569675            3 
  376000     1.103262   -6.3775606    172.02169  0.038125374  0.039546767            9 
  377000    1.1172764   -6.4094089    172.09682  0.038040852  0.039523439            4 
  378000    1.0981355   -6.3964143    172.54589  0.038039217  0.039499664            3 
  379000    1.0958847   -6.3601562    173.01891  0.038042856  0.039476291            3 
  380000    1.1082862   -6.4176303    173.09692   0.03795985  0.039452441            3 
  381000    1.0888772   -6.3781219    173.98717  0.038054937  0.039429253            5 
  382000    1.0871758   -6.3754829    173.82844  0.037920689   0.03940618            2 
  383000    1.0871568   -6.3744154    174.84835  0.038043593  0.039383135            4 
  384000    1.0588207   -6.3894287    175.26456  0.038034843  0.039360741            1 
  385000    1.0995999   -6.3936158     175.5501  0.037997858  0.039338557            4 
  386000    1.1009687   -6.3962854    176.09561  0.038017187  0.039316859            3 
  387000    1.1155334   -6.3338358     177.2909  0.038176336  0.039295139            3 
  388000    1.1034188   -6.4115792    176.53033   0.03791459  0.039273229            5 
  389000    1.1173311    -6.404522    177.78957  0.038086882  0.039252152            3 
  390000    1.0988086   -6.4093061    177.81328  0.037994291  0.039230974            3 
  391000    1.0910669   -6.4118053    177.81925   0.03789839  0.039209213            4 
  392000    1.1102172   -6.4235605    178.26611  0.037896706  0.039187199            4 
  393000    1.1082312   -6.4231817    178.54696  0.037859831  0.039165409            5 
  394000    1.0938045   -6.3868601    179.29928   0.03792286  0.039144914            5 
  395000     1.080783   -6.4025766    179.99165  0.037972923  0.039123993            4 
  396000    1.0597285   -6.4330866    178.84187  0.037635073  0.039103136            2 
  397000    1.1034446   -6.4259826     180.2308  0.037831822  0.039081295            6 
  398000     1.088809   -6.4527804    180.18572  0.037727327  0.039059093            9 
  399000    1.0937154   -6.4370222    180.93414  0.037789086  0.039037312            4 
  400000    1.1109539    -6.404189    181.00241  0.037708836  0.039015057            2 
  401000    1.1137156   -6.4072817    181.47341   0.03771268  0.038993131            2 
  402000    1.0798867   -6.4101798    181.68887  0.037663529  0.038969855            6 
  403000    1.0981961   -6.4093052    182.38052  0.037713093  0.038947328            3 
  404000    1.0869894   -6.4724478    182.07596  0.037556922  0.038924589            7 
  405000    1.0788567   -6.4199609    183.22742  0.037701115   0.03890316            3 
  406000    1.0863545   -6.4288734    183.00376  0.037562348  0.038880945            2 
  407000    1.0957611   -6.4283415    183.99255  0.037672513  0.038859672            2 
  408000    1.0659433   -6.4291824    184.08206   0.03759846  0.038837106            7 
  409000    1.1060257   -6.4355761    184.16067  0.037522549  0.038814313            5 
  410000    1.0709735   -6.4383002     184.6013  0.037520589  0.038791509            3 
  411000    1.1081755   -6.4267069    185.13259  0.037537021  0.038768728            5 
  412000    1.0939728   -6.3861053    184.61064   0.03734034  0.038744735            3 
  413000    1.1010642   -6.4172231    185.42946  0.037415144  0.038720548            3 
  414000    1.0836743   -6.4475534    185.01058  0.037240455  0.038696071            5 
  415000    1.0879488   -6.4117955    185.76741  0.037302693  0.038671581            2 
  416000    1.0921189   -6.4538009    185.43268  0.037145969  0.038646685            4 
  417000    1.0977135   -6.4125522    186.71141  0.037312431  0.038621272            4 
  418000    1.0746117   -6.4198731    187.33745  0.037347976   0.03859622            4 
  419000    1.0959874   -6.4324923    187.65655  0.037322305  0.038572057           10 
  420000    1.0853271   -6.4292646    187.60164  0.037222548  0.038548498            3 
  421000    1.0918216    -6.464881    187.81771  0.037176902  0.038524853            8 
  422000    1.0876756   -6.4270647    188.61663  0.037246569  0.038500918            4 
  423000    1.0903065   -6.4371545    188.65396  0.037165871  0.038477039            5 
  424000    1.0615333   -6.4248458    188.55938  0.037059626  0.038452278            2 
  425000    1.0622111   -6.4938138    188.69803  0.036999614  0.038426945            5 
  426000     1.088295   -6.4104992    189.45079  0.037060014  0.038401076            3 
  427000    1.0777476   -6.4248268    189.94538  0.037069747  0.038376236            3 
  428000    1.0890645   -6.4436274    189.55636   0.03690739  0.038351301            4 
  429000    1.0851623   -6.4476219    189.78663  0.036866091  0.038325444            9 
  430000    1.0913479   -6.4275219    189.85606   0.03679381  0.038299457            3 
  431000    1.0583239   -6.4273844    190.97861  0.036925485  0.038273812            4 
  432000    1.0894524    -6.457875    191.61637  0.036963034  0.038248649            3 
  433000    1.0980158   -6.4401429     192.1451  0.036979427  0.038224172            4 
  434000    1.0731633   -6.4153355    191.96125  0.036858918  0.038200102            3 
  435000    1.0712309    -6.446441    192.73414  0.036922249  0.038175666            4 
  436000    1.0641887   -6.4426089    193.32383  0.036950273  0.038151929            4 
  437000     1.074236   -6.4202094     194.1146  0.037016514  0.038128779            3 
  438000    1.0595028   -6.4408167    194.33623  0.036974169  0.038106792            3 
  439000    1.0786187   -6.4376892    194.88303  0.036993741  0.038084903            8 
  440000    1.0909058   -6.4907986    195.86286  0.037095239  0.038063534            4 
  441000    1.0796926   -6.4518458    196.03224  0.037043129  0.038043122            5 
  442000    1.1004391   -6.4305576    196.48448  0.037044586  0.038023079            4 
  443000    1.0480881   -6.4790537    197.09527   0.03707586  0.038002741            3 
  444000    1.0721958   -6.4324688     197.6484  0.037096171  0.037983368            3 
  445000    1.0822726   -6.4106504    198.62616  0.037195909   0.03796483            4 
  446000    1.0785092   -6.4586701     198.4477  0.037079166  0.037945763            3 
  447000    1.0783569   -6.4433766    198.06243   0.03692439   0.03792625            4 
  448000    1.0788027   -6.4284909    198.10121  0.036849183  0.037906209            6 
  449000     1.071256    -6.464862    198.59639  0.036859018  0.037885861            3 
  450000    1.0698895   -6.4500258    198.58312  0.036774652  0.037865354            3 
  451000    1.0877307    -6.451911    199.34924  0.036834672  0.037844732            2 
  452000    1.0897901    -6.500556    199.97672  0.036868865  0.037824275            4 
  453000    1.0986965   -6.4325171    200.54624  0.036892245  0.037804859            2 
  454000    1.0622107   -6.4577591    201.16811   0.03692513  0.037784748            6 
  455000    1.0563014    -6.435601    201.19004  0.036847992  0.037765176            4 
  456000    1.0733402   -6.4613663    201.51159  0.036825949  0.037744976            3 
  457000    1.0861307   -6.4793573     201.1799  0.036684883  0.037724275            2 
  458000    1.0898927   -6.4586622    201.52939  0.036668375  0.037703124            3 
  459000    1.0862486   -6.4332882    202.10979  0.036693862  0.037681672           13 
  460000    1.0664495   -6.4478194    202.72197  0.036724995  0.037660593            4 
  461000    1.0740654   -6.4739493    203.21766  0.036734934  0.037639126            5 
  462000    1.0767434   -6.4298822     202.9771  0.036612031  0.037617855            2 
  463000    1.0697614   -6.4580767    203.85796  0.036691498   0.03759751            2 
  464000    1.0497753   -6.4635173    204.19104  0.036672242  0.037577068            6 
  465000    1.0461286   -6.4766856    204.50158  0.036649029  0.037556686            5 
  466000    1.0560344   -6.4300919    204.49303  0.036568853   0.03753636            5 
  467000    1.0547563   -6.4473671    205.77855  0.036719941  0.037516997            3 
  468000    1.0683109   -6.4525497    206.43351  0.036758103  0.037498003            7 
  469000    1.0655722   -6.4476996    206.69079  0.036725443   0.03747916            5 
  470000    1.0735033   -6.4696896    207.29113  0.036753747  0.037459594            4 
  471000    1.0677514   -6.4466298    206.90688  0.036607729  0.037440182            2 
  472000    1.0660747   -6.4475991    207.09842  0.036563986  0.037420664            3 
  473000    1.0780227   -6.5203926    207.06967  0.036481618  0.037400538            5 
  474000    1.0645671   -6.4426719    207.60073  0.036498019   0.03737984            3 
  475000    1.0751016   -6.4966718    207.00614  0.036316867  0.037359203            6 
  476000    1.0560704   -6.4882841    207.85437   0.03638907  0.037338727            3 
  477000    1.0702119   -6.4775614    208.13798  0.036362331  0.037318072            3 
  478000    1.0850436   -6.5027168    208.28062  0.036311126  0.037297352            3 
  479000    1.0727445   -6.4913535    209.08323  0.036374954  0.037276824            4 
  480000    1.0637974   -6.4737819    209.35658  0.036346629  0.037256663            3 
  481000     1.055892   -6.4834901    209.52172  0.036299675  0.037235977            3 
  482000    1.0453233   -6.5064956    209.90442   0.03629053   0.03721538            2 
  483000    1.0652559   -6.4639799     210.6813  0.036349431  0.037195389            3 
  484000    1.0541002   -6.4938106    210.40413  0.036226606  0.037174885            6 
  485000    1.0742641   -6.4724946    211.31293  0.036308064  0.037154394            3 
  486000     1.062257   -6.4803559    211.67644  0.036295686  0.037134574            4 
  487000    1.0634018   -6.4602158    212.12227  0.036297446  0.037114872            5 
  488000    1.0755956   -6.4979715    212.07782  0.036215476  0.037094163            6 
  489000    1.0640487   -6.4847018    213.20455  0.036333428  0.037074552            3 
  490000    1.0403537   -6.4799888    213.33962  0.036282249  0.037054247            6 
  491000    1.0657054   -6.5222426    212.99658  0.036150132   0.03703429            4 
  492000    1.0758033   -6.4436104    213.99113   0.03624511  0.037014537            2 
  493000    1.0719177   -6.5010663    213.96014  0.036166353  0.036994913            4 
  494000     1.036599   -6.4900943    213.99686  0.036099335  0.036974315            3 
  495000    1.0682554   -6.4743512    214.52468  0.036115266  0.036953839            4 
  496000    1.0500135    -6.449624    214.53929  0.036044908  0.036933284            3 
  497000    1.0699958   -6.4723511     215.4845  0.036130868  0.036913039            3 
  498000     1.057389   -6.4710452    215.38153  0.036041086  0.036892634            4 
  499000    1.0284984   -6.4930082    215.76326  0.036032608  0.036871967            4 
  500000    1.0534733   -6.4893928    215.45098  0.035908497  0.036851359            4 
  501000    1.0612401   -6.5008579    215.82881  0.035899668  0.036830296            4 
  502000    1.0408009   -6.5010176    216.41112   0.03592482  0.036809744            5 
  503000    1.0639626   -6.4992073    216.82532  0.035922021  0.036789356            2 
  504000    1.0415942   -6.5152022    218.21514  0.036080546  0.036770334            7 
  505000     1.062006   -6.4667915    217.95423  0.035966045  0.036751035            5 
  506000     1.047333   -6.4958787     218.3657  0.035962731  0.036731822           10 
  507000    1.0393147   -6.5220474    218.32451  0.035885028  0.036712233            6 
  508000    1.0769222   -6.4870917    218.35007  0.035818581   0.03669237            3 
  509000    1.0755921   -6.4828619    219.12507  0.035875093  0.036672199            4 
  510000    1.0614992   -6.5431823    219.30469    0.0358341  0.036652195            2 
  511000    1.0404922   -6.5098804    219.72199  0.035832026  0.036631978            3 
  512000    1.0594873   -6.5188626    219.05896  0.035654127  0.036611488            6 
  513000    1.0270104   -6.5121442    219.54768  0.035664016  0.036591095            2 
  514000     1.052634   -6.4791227    219.85298  0.035644127  0.036569939            5 
  515000    1.0413112   -6.4742906    220.38808  0.035661501  0.036549319            2 
  516000    1.0682354   -6.5001876    220.48846  0.035608601  0.036528642           14 
  517000    1.0673681   -6.5131076    221.27098  0.035665857  0.036507868            6 
  518000    1.0665636   -6.4839665    221.72631  0.035670255  0.036487668            3 
  519000    1.0343287   -6.4812893    222.13229  0.035666712  0.036467328            2 
  520000    1.0397088   -6.4989634    222.04892  0.035584763  0.036446674            4 
  521000    1.0407961   -6.4743022    223.07255  0.035680191  0.036426093            5 
  522000    1.0593333   -6.5135865    222.89101  0.035582856  0.036405781            4 
  523000    1.0371032    -6.533948    222.63192  0.035473537  0.036384755            3 
  524000    1.0570033    -6.513897     223.5932  0.035558716   0.03636433            4 
  525000      1.04962   -6.5331678    223.25719   0.03543765  0.036344328            5 
  526000    1.0361476   -6.5391178    224.91017  0.035632157  0.036324501            6 
  527000    1.0534725   -6.5180613    224.52018  0.035502875  0.036304687            3 
  528000    1.0589454   -6.5154629    225.67126  0.035617308  0.036284347            2 
  529000    1.0242904   -6.5191637    225.12008  0.035463151   0.03626413            4 
  530000    1.0368532   -6.5152413     225.3574  0.035433553  0.036243883            4 
  531000    1.0556832   -6.5249702    225.81026  0.035437894  0.036223023            3 
  532000    1.0462111   -6.5403947    225.37432  0.035302995  0.036202712            3 
  533000    1.0316573   -6.5141324    226.37291  0.035392887  0.036182202            5 
  534000    1.0279552   -6.5191702     226.4832   0.03534382  0.036162067            4 
  535000    1.0225406   -6.5308236    226.26388  0.035243594  0.036141069            6 
  536000    1.0443121   -6.5306084    226.92847  0.035281167  0.036119931            3 
  537000    1.0622255   -6.5182171    227.17026  0.035252988  0.036099088            4 
  538000    1.0432153   -6.5332464     227.5174  0.035241233  0.036078438            5 
  539000     1.045578   -6.5221446    228.09199  0.035264686  0.036057456            7 
  540000    1.0735537   -6.4912234     228.4823  0.035259614  0.036037121            6 
  541000    1.0230898   -6.5012101    228.94466  0.035265659   0.03601646            4 
  542000    1.0405121   -6.5184928    228.36782  0.035111904  0.035995636            5 
  543000    1.0369915   -6.5577804    229.21304  0.035176955  0.035974441            4 
  544000     1.048438   -6.5310072    229.29302  0.035124543  0.035953989            7 
  545000    1.0420541    -6.506007    229.80807  0.035138849  0.035933616            6 
  546000    1.0198793   -6.5510059    230.56909  0.035190643  0.035913593            3 
  547000    1.0334256   -6.5221183    231.54913  0.035275614  0.035893833            3 
  548000    1.0409151   -6.4777842    231.64732  0.035226174  0.035874593            3 
  549000    1.0362788   -6.5274304    231.11173  0.035080712  0.035854802            6 
  550000    1.0273242   -6.5152721    232.14359  0.035173271  0.035835638            5 
  551000    1.0402111   -6.5349921    232.84372  0.035215323   0.03581621            5 
  552000    1.0360372   -6.5423726    233.12463  0.035193936  0.035796617            6 
  553000    1.0337849   -6.5085648    233.50084  0.035186986  0.035777734            3 
  554000    1.0469176   -6.5068449    233.57217  0.035134202  0.035758687            5 
  555000    1.0671079   -6.5334928    233.38959  0.035043482    0.0357393            4 
  556000    1.0365173   -6.5273252    234.22504  0.035105672  0.035719811            3 
  557000    1.0340657   -6.5840179    233.92796  0.034998199  0.035700142            4 
  558000    1.0358549   -6.5065538    235.38289  0.035152761  0.035680893            8 
  559000    1.0326303   -6.5011012    235.01506  0.035035041  0.035661698            6 
  560000    1.0363836   -6.5341783    235.99853  0.035118829  0.035643207            6 
  561000    1.0282723   -6.5882714    236.13581  0.035076621   0.03562453            4 
  562000    1.0216925   -6.5305089    235.84958  0.034971765  0.035605808            5 
  563000     1.010132    -6.524171    236.07405  0.034942874  0.035587761            4 
  564000    1.0285907   -6.5048139     237.0405  0.035023715  0.035569592            3 
  565000    1.0501731   -6.5229609    237.29434  0.034999165  0.035551079            2 
  566000    1.0187972   -6.5513804    237.23748  0.034928958  0.035532661            4 
  567000      1.01943   -6.5318794    238.01909  0.034982229  0.035514115            5 
  568000    1.0274351   -6.5528594    237.89394   0.03490228  0.035495705            5 
  569000    1.0391772    -6.536759    238.48483   0.03492748  0.035477118            2 
  570000    1.0590021   -6.5394492    238.64036  0.034888942  0.035458527            7 
  571000    1.0153399   -6.5384419    238.90421  0.034866347  0.035439935            3 
  572000    1.0472434   -6.5303079    239.34233   0.03486922  0.035422187            4 
  573000    1.0382879   -6.5622533    240.12858  0.034922714   0.03540423            4 
  574000    1.0255901   -6.5525308    240.56363  0.034925034  0.035386238            6 
  575000    1.0406339    -6.511378     240.4168  0.034843015  0.035368351            4 
  576000    1.0115049   -6.5526897    240.77778  0.034834749  0.035350067            4 
  577000    1.0300554    -6.549827    240.67463  0.034759478  0.035331414            8 
  578000    1.0154888   -6.5439173    240.50873  0.034675423  0.035312784            4 
  579000    1.0520776   -6.5552837    241.53758  0.034763612  0.035294244            2 
  580000    1.0158387   -6.5574102    241.96781   0.03476549   0.03527555            4 
  581000    1.0339149   -6.5633994    242.02106   0.03471329   0.03525666            4 
  582000    1.0399193   -6.5695336    241.54555   0.03458556  0.035237325            5 
  583000    1.0263155   -6.5496425    242.64883  0.034683937  0.035218205            4 
  584000    1.0252204   -6.5343015    242.89378    0.0346595  0.035199289            7 
  585000    1.0252821   -6.5766428    243.21405  0.034645876  0.035180124            3 
  586000    1.0120786   -6.5574844    243.41489  0.034615314  0.035161235            3 
  587000    1.0141217   -6.5187937    244.42446  0.034699668  0.035142376            2 
  588000    1.0189194    -6.552156    244.28513  0.034620908  0.035123764            5 
  589000     1.019492   -6.5708616    244.07474  0.034532362  0.035105063            3 
  590000    1.0235909   -6.5599704    244.15849  0.034485663  0.035086102            4 
  591000    1.0224494    -6.534383    245.75973  0.034653092  0.035067183            2 
  592000      1.02735   -6.5420369      244.502  0.034417511  0.035047959            7 
  593000    1.0214325   -6.5155942    246.29634  0.034611627  0.035029286           11 
  594000    1.0025413    -6.570109    244.91377  0.034359395  0.035010299            4 
  595000    1.0263403   -6.5529249    245.64024  0.034403395  0.034991824            5 
  596000    1.0082083   -6.5548782    246.48622  0.034463957  0.034972995            4 
  597000    1.0107868   -6.5315848     247.4766  0.034544472   0.03495503            4 
  598000    1.0331995   -6.5572814    247.17548  0.034444743  0.034937043            4 
  599000    1.0178663   -6.5366831    247.31655  0.034406865  0.034918675           13 
  600000    1.0059182   -6.5538179    247.84469  0.034422874  0.034900732            3 
  601000    1.0242492   -6.5506288    248.17238  0.034411035  0.034882557            7 
  602000    1.0069518    -6.573166    248.82766  0.034444582  0.034864176            6 
  603000    1.0343478   -6.6266959    248.34831  0.034321214  0.034846349            6 
  604000    1.0071441   -6.5708978    249.26045  0.034390239   0.03482825            8 
  605000    1.0088735   -6.5976935    249.23498  0.034329887  0.034810166            4 
  606000   0.99535494   -6.5805276    249.50272  0.034310055  0.034791588            3 
  607000    1.0149927   -6.5428949    249.66483  0.034275786  0.034773141            6 
  608000    1.0139764   -6.5760421    250.11369  0.034280934  0.034753969            6 
  609000    1.0122135   -6.5593997    249.41404  0.034128906  0.034734939            2 
  610000    1.0551764   -6.5753838    249.56943  0.034094185  0.034715082            4 
  611000   0.99235801   -6.5832584    249.39588  0.034014714  0.034695414            2 
  612000    1.0082818   -6.5843347    250.15343  0.034062287  0.034675709            3 
  613000    1.0085408   -6.5483304    250.89018  0.034106876   0.03465634            4 
  614000   0.99783865   -6.5757343    251.35558  0.034114493  0.034637291            6 
  615000   0.99448466   -6.5659083    250.73905   0.03397548  0.034618087            8 
  616000   0.99741433   -6.5701609    251.90996  0.034078728  0.034598886            4 
  617000      1.00115   -6.5750891     251.1164  0.033916315  0.034579803            5 
  618000    1.0074103   -6.5312549     252.3897  0.034033131  0.034560949            3 
  619000    1.0168173   -6.5883177    252.11367  0.033940989  0.034541856            6 
  620000    1.0038155   -6.6028297    252.88504  0.033989925   0.03452291            3 
  621000   0.99627719   -6.5948514    253.07759  0.033961029   0.03450362            6 
  622000    1.0137685   -6.5463553    253.69414  0.033989033  0.034484405            2 
  623000   0.99541756   -6.5532795    252.96229  0.033836582  0.034465021            4 
  624000    1.0007036   -6.5649244    253.88421  0.033905476  0.034445504            4 
  625000   0.99506934   -6.6341979    253.11984  0.033749312  0.034425444            4 
  626000    0.9837718   -6.5776191    253.51161  0.033747552  0.034405519           12 
  627000   0.99021851   -6.5728207    254.13599  0.033776713  0.034385961           10 
  628000   0.98081297   -6.6025434    253.16605  0.033594221  0.034365804            7 
  629000    1.0075962   -6.5997789    254.27048  0.033687133   0.03434567            8 
  630000    1.0035325   -6.5775692    254.64955  0.033683803   0.03432563            4 
  631000    1.0042842   -6.5756935    255.47286  0.033739153   0.03430599            5 
  632000   0.98674812   -6.5697029    255.37553  0.033672934  0.034286404            5 
  633000    1.0029926   -6.6150268    255.34518  0.033615742  0.034266349            5 
  634000   0.98843998   -6.5635648    255.60069  0.033596305  0.034246578            5 
  635000   0.98890608   -6.5761196     256.1529  0.033615867  0.034226961            4 
  636000   0.97472379   -6.5719747     256.5846  0.033619575  0.034207535            5 
  637000     1.008694    -6.581191    257.26752  0.033656138  0.034188111            4 
  638000     1.007216   -6.6239749    256.87207  0.033551733  0.034168344            3 
  639000   0.99996612    -6.625841    256.94479  0.033508711  0.034148943            3 
  640000    0.9984786   -6.6039037    257.55879  0.033536301   0.03412935            5 
  641000   0.99857835   -6.5653081     258.6695   0.03362838   0.03410996            5 
  642000   0.95100089   -6.5953215    258.47586  0.033550864  0.034090414            3 
  643000    1.0059925   -6.5957369    258.14813  0.033456211  0.034070471            3 
  644000   0.99884137   -6.5663875    257.70684  0.033347158  0.034050245            5 
  645000   0.97982681   -6.5696787    259.47823   0.03352432  0.034030125            4 
  646000    1.0281924   -6.6129422    259.00612  0.033411523  0.034009909            4 
  647000   0.99435014   -6.5825253    258.28944  0.033267574  0.033989464            6 
  648000   0.99024747   -6.5905076    260.32594   0.03347813  0.033969286            6 
  649000    1.0070781   -6.6168701    258.67028  0.033213954  0.033948787            5 
  650000   0.99488803   -6.6327247    259.04414  0.033210788  0.033927875            3 
  651000   0.99409031   -6.6023481    259.39998  0.033205323  0.033906651            6 
  652000   0.99090203   -6.6044919    259.50893  0.033168319  0.033885662            6 
  653000   0.96975399   -6.6153051    259.24082   0.03308331  0.033864448            7 
  654000    0.9864568   -6.6069803    259.76189   0.03309912  0.033842866           10 
  655000     1.012463   -6.5862678    259.98108  0.033076474  0.033821796            4 
  656000    1.0016952   -6.6145352    260.44091  0.033084465   0.03380056            6 
  657000   0.98576686    -6.627117    260.22333  0.033006511  0.033779205            9 
  658000   0.98107356   -6.6145333    260.72406  0.033019765  0.033757875            3 
  659000   0.97264191   -6.6034293    261.19008  0.033028589  0.033736989            6 
  660000   0.99749254   -6.6077082    261.80751  0.033056504  0.033716303            9 
  661000   0.97515906   -6.6229921    262.08291  0.033041214  0.033695658            3 
  662000   0.99499234   -6.6254565    262.69098  0.033067847  0.033674717            6 
  663000   0.98482289   -6.6226955    262.38445  0.032979443  0.033653946            3 
  664000   0.98902974   -6.6262795    262.72002   0.03297189  0.033632688            4 
  665000   0.98497276   -6.6002127    262.69583  0.032919277  0.033611631            4 
  666000   0.99231492   -6.5709601    262.62026  0.032860393  0.033591057           11 
  667000   0.98483621    -6.627058    263.26164  0.032891259  0.033570182            8 
  668000    1.0107005   -6.6181441    263.25131  0.032840732   0.03354894            9 
  669000   0.98128586   -6.6028031    263.55465  0.032829429  0.033527198            4 
  670000   0.96464767   -6.6087694    263.56927  0.032782247  0.033506042            6 
  671000   0.98734782   -6.6336772    263.91128  0.032775867  0.033484854            3 
  672000    0.9765079   -6.5853283    264.47445  0.032796931  0.033463754            8 
  673000   0.99564722   -6.5960359     264.1899  0.032712964  0.033442681            2 
  674000   0.99335464   -6.5790914    264.95829  0.032759432  0.033421188            6 
  675000   0.98899595   -6.6348156    264.32267  0.032632429  0.033399303            4 
  676000   0.99452163   -6.6446943    264.86843  0.032651434  0.033377498            6 
  677000   0.98582107   -6.6285512    264.91551  0.032608999  0.033355755            2 
  678000   0.99930335   -6.6332891    264.70707  0.032535284  0.033333729            3 
  679000   0.94547492   -6.6304282    264.73847  0.032491221  0.033312136            4 
  680000   0.99048847   -6.6508567    265.81655  0.032575557  0.033290543            6 
  681000   0.98372853   -6.6414213    264.83698  0.032407853  0.033268888            8 
  682000   0.96281029    -6.637609    265.40983  0.032430332   0.03324719            4 
  683000    1.0108147   -6.6454848    266.53199  0.032519764  0.033225889            8 
  684000   0.96965605   -6.6116189    267.20136  0.032553771  0.033204422            3 
  685000   0.97833229    -6.646644    267.87526  0.032588231  0.033183649           10 
  686000    0.9793984   -6.6393495    267.06481  0.032442275  0.033162909            5 
  687000   0.99508206   -6.6341772    267.83582  0.032488576  0.033142236            3 
  688000   0.97094673   -6.6288168     268.7002  0.032546051  0.033121525            7 
  689000    0.9796269   -6.6321315    268.42473  0.032465497  0.033100598            4 
  690000   0.96654357   -6.6408624    268.44263  0.032420608  0.033079427            3 
  691000   0.96886829   -6.6434023    267.34594  0.032241431  0.033058068            3 
  692000   0.97100171    -6.644986    269.03811  0.032398617  0.033036682            5 
  693000   0.98757823   -6.6514199    268.55105  0.032293296  0.033015244           11 
  694000   0.96550371   -6.6415465    269.14342  0.032317893  0.032993649            3 
  695000    1.0009098   -6.6252541    268.90185  0.032242428  0.032971959            8 
  696000   0.99784312   -6.6444353    269.62269  0.032282411  0.032950359            6 
  697000   0.99277409   -6.6548529    270.22649  0.032308285  0.032928977           10 
  698000   0.94935373   -6.6780921    269.41811  0.032165486  0.032907542            4 
  699000   0.98288014   -6.6378446     270.5423  0.032253494  0.032886133            6 
  700000   0.96409014   -6.6167404    270.61122  0.032215621  0.032865186            4 
  701000   0.96798966   -6.6472951    270.42468   0.03214749  0.032844216            4 
  702000   0.98612507   -6.6573693    270.86997  0.032154554  0.032823222            3 
  703000   0.97816967   -6.6588119    271.13345  0.032140049  0.032802201            7 
  704000   0.97874258   -6.6345034    271.48397  0.032135887  0.032781223            4 
  705000   0.97663677   -6.6418202    271.98741  0.032149812  0.032760398            3 
  706000   0.97992441   -6.6403603    272.94894  0.032217769  0.032739686            3 
  707000   0.97469818   -6.6154723    272.94187  0.032171367  0.032719171            9 
  708000   0.98696376   -6.6740184    273.23034   0.03215988  0.032698251            5 
  709000    0.9682586   -6.6199009     273.9553  0.032199729  0.032677864            3 
  710000   0.95997535   -6.6640352    273.48984  0.032099747  0.032657729            3 
  711000   0.97181419   -6.6677634    273.85212   0.03209706  0.032637561            4 
  712000   0.97148284   -6.6377707    274.18465    0.0320909  0.032617582            4 
  713000   0.96186691   -6.6591511     275.3408  0.032181019  0.032597729            4 
  714000   0.97215208    -6.645507    275.60438  0.032166711  0.032578108            7 
  715000   0.98520437   -6.6654462    275.01105   0.03205257  0.032558191            3 
  716000    0.9604989   -6.6506403    276.32298  0.032160496  0.032538632            3 
  717000   0.95905692   -6.6473994    276.04746  0.032083619  0.032518678            3 
  718000   0.96478669   -6.6626357    276.42376  0.032082609   0.03249892            7 
  719000   0.95294469   -6.6540767    276.62757   0.03206161  0.032479074            4 
  720000   0.98602555   -6.6894626    276.11428  0.031957672  0.032459479            8 
  721000   0.95654857   -6.6396128    276.48584  0.031956292  0.032439514            5 
  722000   0.96440565   -6.6295128    276.96791  0.031967672  0.032419519            6 
  723000   0.96606525   -6.6631158    276.53331  0.031873365  0.032399555            5 
  724000   0.96943362   -6.6569386    277.36755  0.031925363  0.032379644            4 
  725000   0.97468823   -6.6666604    276.79441   0.03181545   0.03235964            4 
  726000   0.96633168   -6.6411789    277.82765  0.031890226  0.032339595            6 
  727000   0.95227111   -6.6478749    278.68474  0.031944606  0.032319636            4 
  728000   0.97569486   -6.6535497    277.68603  0.031786405  0.032299631            3 
  729000   0.95696888   -6.6669766    278.63742  0.031851557  0.032279649            7 
  730000   0.97554332    -6.674887    278.07874  0.031744149  0.032259468            4 
  731000   0.96378824    -6.665467      277.846  0.031674191  0.032239208            3 
  732000   0.98197927   -6.6495111    279.15552  0.031780001  0.032219012            7 
  733000   0.96031398    -6.665865    279.21771  0.031743715  0.032198751            7 
  734000     0.965446   -6.6408103    279.15186   0.03169299  0.032178691            5 
  735000   0.94757757   -6.6744594     278.3605  0.031560147  0.032158377            5 
  736000   0.98053383   -6.6650921    278.52765  0.031536192  0.032137938            8 
  737000   0.96963448   -6.6651886    279.72783  0.031629108  0.032117714            5 
  738000   0.94471438   -6.6581474    279.93189  0.031609292  0.032097634            3 
  739000   0.94250538   -6.6768648    279.59129  0.031528111  0.032077423            3 
  740000   0.97527584   -6.6872375    279.39502  0.031463403  0.032056981            5 
  741000   0.95814667   -6.6436857    279.31214  0.031411621  0.032036543            3 
  742000   0.96697013   -6.6791956    279.96686  0.031442818  0.032015704            4 
  743000   0.96694381   -6.7024622     279.6671  0.031366879  0.031994848            5 
  744000   0.95600593   -6.6830865    281.21026  0.031497565  0.031974379            3 
  745000   0.94392307   -6.6890277    280.48692  0.031374376  0.031953619           11 
  746000   0.94066421   -6.6994885    281.38665  0.031432825  0.031933025            6 
  747000   0.96280843   -6.6658372    281.40526  0.031392823  0.031912642           14 
  748000   0.95691526   -6.6718678    282.09419  0.031427606  0.031892658            4 
  749000   0.96580752   -6.6761639    282.39362  0.031418961  0.031872954           14 
  750000   0.95327405   -6.6772992    283.15472  0.031461636  0.031853353            5 
  751000   0.92864682   -6.6668915    282.78678  0.031378915   0.03183369            9 
  752000   0.96020771   -6.6598298    282.91165  0.031351025  0.031813837            4 
  753000   0.95924068   -6.6998408    283.66248  0.031392484  0.031794117            4 
  754000   0.95279343   -6.7171446    283.40322  0.031322195  0.031774444            5 
  755000   0.93029044   -6.6932655    283.58569  0.031300849  0.031754695            3 
  756000   0.97289522   -6.6868349     284.7206  0.031384546  0.031734861            3 
  757000   0.96310692   -6.6559904    284.79273  0.031351028  0.031715241            4 
  758000    0.9608828   -6.6627882    284.88161  0.031319438  0.031695454            4 
  759000    0.9537401    -6.680563    284.32797  0.031217388  0.031675688            7 
  760000    0.9562796   -6.7011125    285.23669  0.031275953  0.031655771            5 
  761000   0.93691249   -6.6848778    285.43559  0.031256635  0.031636075            4 
  762000   0.94786296   -6.6852827    285.01337  0.031169442  0.031616503            5 
  763000   0.93858014   -6.7096306    285.46588  0.031178013  0.031596694            7 
  764000   0.97505926   -6.6695308    285.89958  0.031184509  0.031576847           13 
  765000   0.95660082   -6.6732759    286.97117  0.031260476   0.03155769            4 
  766000   0.96329019   -6.6707435    286.50362  0.031168801    0.0315384            2 
  767000   0.95952361   -6.6745102    286.50089  0.031127868  0.031518906            8 
  768000   0.94030817   -6.6895887    287.17959   0.03116098  0.031499413            5 
  769000   0.95521099   -6.6531179    287.39116  0.031143385  0.031480137            7 
  770000   0.96087936   -6.6869491    286.88707  0.031048384  0.031460858            5 
  771000   0.93541703    -6.705609    286.94903  0.031014811  0.031441439            3 
  772000   0.94567907   -6.6751541     287.6031   0.03104524  0.031422124            2 
  773000   0.95586554   -6.7105584    287.56566  0.031001042   0.03140266            7 
  774000   0.94828581   -6.7325538    287.73816  0.030979561  0.031383013            5 
  775000   0.94042034   -6.6682821    288.65927  0.031038632  0.031363409            3 
  776000   0.93866544   -6.7036795    288.83936  0.031017972  0.031343881            4 
  777000     0.945068   -6.6880935    289.09577  0.031005552  0.031324349            8 
  778000   0.96449515   -6.7062261    288.78271  0.030932167  0.031304959            4 
  779000   0.93124211   -6.7254796    288.18491   0.03082851  0.031285475            5 
  780000   0.91398055   -6.7170346    288.97787  0.030873704  0.031266049           16 
  781000   0.91825121   -6.6970659    288.87581  0.030823283  0.031246529           11 
  782000   0.95019648   -6.7354788    289.01212  0.030798393  0.031226792            9 
  783000   0.91491541   -6.7364077    289.49321  0.030810261  0.031207332            4 
  784000   0.95555498   -6.7437899    290.23333  0.030849632  0.031187711            4 
  785000   0.92176786   -6.7192577    290.83226  0.030873913  0.031168093           10 
  786000   0.95014194   -6.7122527    290.18152   0.03076564  0.031148455           12 
  787000   0.93199484   -6.7258256    290.65226  0.030776393  0.031128691            5 
  788000    0.9400323   -6.6928872    290.32735  0.030702977  0.031109157            5 
  789000   0.95576893   -6.7236254    290.48544   0.03068076  0.031089331           18 
  790000   0.94454025     -6.69413    290.00589  0.030591339  0.031069343            4 
  791000   0.93477438   -6.7380456    290.11122  0.030563762  0.031049248            7 
  792000   0.93570448   -6.7047052    291.12589  0.030631933  0.031029207            4 
  793000   0.96671094   -6.7540173    291.40477  0.030622611  0.031009195            4 
  794000   0.96258773   -6.7075045    290.81871  0.030522535  0.030988966            7 
  795000   0.95645445   -6.7335395     291.9094   0.03059847  0.030968967            5 
  796000   0.96358969   -6.7165607    291.12551  0.030477963  0.030948821            5 
  797000   0.92449615   -6.6972459    292.25752  0.030558085  0.030928951            4 
  798000   0.94750324   -6.7259675    291.63597  0.030454884  0.030909024            7 
  799000   0.93261091   -6.6942667    292.63676  0.030521147  0.030889323            4 
  800000   0.91861077   -6.6933257     293.2283  0.030544615  0.030870124            3 
  801000   0.94951525   -6.7218798    293.05161  0.030488099  0.030850793            5 
  802000   0.92332288   -6.7278825    293.93826  0.030542213  0.030831263            9 
  803000   0.94277246   -6.7322024    293.54047  0.030462896  0.030811579            5 
  804000   0.93545777   -6.7081445    293.36662  0.030406988  0.030792147           12 
  805000   0.93206845   -6.7030838    294.00791  0.030435602  0.030772706            3 
  806000   0.93142541   -6.6878354    294.89313  0.030489365  0.030753112            4 
  807000   0.92566744   -6.6971179    294.29372  0.030389686   0.03073365            6 
  808000   0.94574797   -6.7307625    294.64847  0.030388663  0.030714287           10 
[...]
 1800000   0.52815078   -7.5678526    351.90384  0.016291844  0.015160083          782 
 1801000   0.53227502   -7.5771291    352.36029  0.016303919  0.015148013          850 
 1802000   0.54188702   -7.5497827     352.4094  0.016297142  0.015135963          748 
 1803000   0.53347792   -7.5431117    352.66549  0.016299939  0.015123922          759 
 1804000   0.53022843    -7.568796    352.03404  0.016261735  0.015111895          749 
 1805000   0.52436558   -7.5662672    352.70446  0.016283678  0.015099879          788 
 1806000   0.52182353   -7.5614777      352.345  0.016258075  0.015087867          785 
 1807000   0.53124564    -7.562605     352.3676   0.01625012  0.015075867          525 
 1808000   0.52762886   -7.5343654    352.29924  0.016237981  0.015063886          671 
 1809000    0.5406978   -7.5645496    352.06722  0.016218317  0.015051921          510 
 1810000   0.54796299   -7.5727062    352.48863  0.016228758   0.01503994          559 
 1811000   0.52812981   -7.5536956    351.85434   0.01619061  0.015027982          751 
 1812000   0.52692044   -7.5758191     352.3149  0.016202856  0.015016029          736 
 1813000    0.5298127   -7.5739339    351.63253  0.016162554   0.01500408          772 
 1814000   0.53114746   -7.5727691    352.11851   0.01617597  0.014992144          749 
 1815000   0.52211527   -7.5547509    351.96528  0.016160022  0.014980219          844 
 1816000   0.53057826   -7.5992911    352.37649  0.016169993  0.014968305          769 
 1817000   0.52233267   -7.5802416    352.06502  0.016146809    0.0149564          763 
 1818000   0.52424843   -7.5780174    351.48835  0.016111494  0.014944496          739 
 1819000   0.52347105   -7.5572578    351.48509  0.016102487  0.014932587          683 
 1820000   0.52450887   -7.5868478    352.27934  0.016130006  0.014920687          757 
 1821000   0.53914617   -7.5809944    352.33039  0.016123485  0.014908806          515 
 1822000   0.52385029   -7.5781408    352.20773  0.016109025  0.014896952          732 
 1823000   0.52347596   -7.5905464    352.05881  0.016093381  0.014885099          705 
 1824000   0.52376335   -7.5550544    351.64199  0.016065515  0.014873256          786 
 1825000   0.52730545   -7.5757861    351.76443  0.016062303  0.014861422          727 
 1826000   0.52241627   -7.5822242    352.08578  0.016068172  0.014849603          751 
 1827000   0.52302731   -7.5887928     351.8803  0.016050005  0.014837774          739 
 1828000   0.52270209   -7.5685069    351.66452  0.016031388  0.014825964          798 
 1829000   0.51273679   -7.5730055    351.72517  0.016025386  0.014814175          739 
 1830000   0.51508819   -7.5826732    351.87809  0.016023592  0.014802393          762 
 1831000   0.52123475   -7.5911542    350.95746  0.015972941   0.01479061          826 
 1832000    0.5226824   -7.5833357    351.52866  0.015990205  0.014778838          773 
 1833000   0.52261222   -7.5969593    351.81001  0.015994272  0.014767073          800 
 1834000   0.51703918    -7.586324    351.46455  0.015969854  0.014755321          770 
 1835000   0.52298193   -7.5752538    351.39742  0.015958103   0.01474358          719 
 1836000   0.50883902   -7.5828087    351.42848  0.015950821  0.014731838          730 
 1837000   0.51138714   -7.5790467    351.63605  0.015951554  0.014720101          730 
 1838000   0.52255175   -7.6070155    351.16674  0.015921597  0.014708382          746 
 1839000   0.52642447   -7.5833938    351.92799  0.015947435  0.014696675          736 
 1840000   0.52178992   -7.5984731    351.48688   0.01591879  0.014684967          750 
 1841000   0.51680603   -7.5952218    350.84577  0.015881123  0.014673276          679 
 1842000   0.52925075   -7.6088234    351.19061  0.015888102  0.014661591          737 
 1843000   0.51718865   -7.5993278    351.54809  0.015895645  0.014649914          759 
 1844000   0.52512585   -7.6011234    351.31166   0.01587634  0.014638241          768 
 1845000   0.50720027   -7.6060663    351.16691  0.015861197  0.014626578          822 
 1846000   0.50869359   -7.6105639    351.41208  0.015863673  0.014614938          782 
 1847000   0.52351965   -7.6108075     351.3544  0.015852482  0.014603304          779 
 1848000    0.5191129   -7.6113779    351.48732  0.015849897  0.014591681          846 
 1849000   0.50203556   -7.6052128    351.63309  0.015847895  0.014580073          801 
 1850000   0.51027059   -7.6270154    351.41199  0.015829369  0.014568467          827 
 1851000    0.5221811   -7.6070702    351.73291  0.015835265  0.014556883          856 
 1852000   0.51864795   -7.6166084    351.92196  0.015835221  0.014545303          803 
 1853000   0.52359679   -7.6026829    352.15932   0.01583735  0.014533737          775 
 1854000   0.50939242   -7.6204996    351.43258  0.015796143   0.01452217          759 
 1855000   0.51227393    -7.602656    351.78032  0.015803249  0.014510628          844 
 1856000   0.50702896   -7.5871359    351.60421  0.015786827  0.014499096          760 
 1857000   0.51842511   -7.5970692    351.17381  0.015759011  0.014487574          810 
 1858000   0.50716787   -7.6146524    351.90845  0.015783479  0.014476046          857 
 1859000   0.50950587   -7.6102903    351.00653  0.015734558  0.014464544          827 
 1860000   0.50958662   -7.5901148    351.32377  0.015740312  0.014453036          890 
 1861000   0.52199295   -7.5909642    351.00175  0.015717435   0.01444154          882 
 1862000   0.51345369   -7.6138474    351.00354  0.015709074  0.014430061          846 
 1863000   0.50869989   -7.6023308     351.7095  0.015732219  0.014418595          769 
 1864000   0.50855353   -7.6229506    351.58942  0.015718411  0.014407127          826 
 1865000   0.50868221   -7.5995364    351.40914  0.015701928  0.014395663          834 
 1866000   0.50404144   -7.5956158    351.22664  0.015685362  0.014384218          837 
 1867000     0.502321   -7.5974076     351.1423  0.015673197   0.01437278          823 
 1868000   0.50764686   -7.6076105     350.8701  0.015652663  0.014361352          835 
 1869000   0.50484363   -7.6127442    351.33831  0.015665164   0.01434993          828 
 1870000   0.51015473   -7.5978092    350.73585   0.01562994  0.014338514          795 
 1871000   0.49930086   -7.6238778    350.69456  0.015619747  0.014327115          755 
 1872000   0.49311376   -7.5942643    351.50735  0.015647585   0.01431573          824 
 1873000   0.50689907   -7.6252858     351.0261  0.015617819  0.014304338          823 
 1874000   0.50539568   -7.6285463    351.64488  0.015637001  0.014292975          799 
 1875000   0.50174029   -7.6186187    351.65524  0.015629122  0.014281628          798 
 1876000   0.50858946   -7.6268098    350.80081  0.015582836  0.014270272          765 
 1877000   0.49701162     -7.61885    351.59854  0.015609951  0.014258942          795 
 1878000    0.5033483   -7.6301903    351.36053  0.015591078  0.014247616          868 
 1879000   0.50544733    -7.615086    351.10413  0.015571409  0.014236317          783 
 1880000   0.50040176   -7.6136992    351.31403   0.01557243  0.014225024          796 
 1881000   0.50360811   -7.6282024    351.13908  0.015556401  0.014213721          794 
 1882000   0.50841693   -7.6188516    350.58451  0.015523579  0.014202446          881 
 1883000    0.4945854   -7.6241481    350.77213  0.015523638  0.014191174          831 
 1884000   0.49550499   -7.6152407    351.01505  0.015526143  0.014179911          823 
 1885000   0.49387882   -7.6145752    350.99832  0.015517167  0.014168657          875 
 1886000   0.50546623   -7.6262832    350.82568  0.015501311  0.014157428          843 
 1887000   0.49951949   -7.6284472     351.3087  0.015514428  0.014146196          815 
 1888000   0.49886075   -7.6267928    350.88813  0.015487647  0.014134983          820 
 1889000   0.50040221   -7.6058763    350.82101  0.015476487  0.014123767          875 
 1890000   0.50227786   -7.6486088    351.01671  0.015476927  0.014112572          883 
 1891000   0.50802667   -7.6396071    351.10535  0.015472649  0.014101374          848 
 1892000   0.50154044   -7.6395296    350.90638  0.015455707  0.014090191          816 
 1893000   0.50371503   -7.6397769    350.68038  0.015437594  0.014079022          823 
 1894000   0.49602844   -7.6230859    350.60228  0.015426007  0.014067856          846 
 1895000   0.49626982   -7.6353856    351.14307  0.015441648    0.0140567          884 
 1896000   0.49105701   -7.6178852    351.04068  0.015429003  0.014045567          885 
 1897000   0.48803588   -7.6224877    350.70815  0.015406262  0.014034442          855 
 1898000    0.4939307   -7.6409192     351.4883  0.015432398  0.014023324          837 
 1899000   0.50187906   -7.6313523    351.19654  0.015411468  0.014012227          904 
 1900000   0.49418785   -7.6194927    350.65537  0.015379621   0.01400114          865 
 1901000   0.48769688   -7.6253571    351.22687  0.015396584  0.013990064          881 
 1902000   0.49039834   -7.6335065    350.96637  0.015377075  0.013979001          889 
 1903000   0.49041295   -7.6343973    349.84913   0.01532007  0.013967939          871 
 1904000   0.48358729   -7.6318378    350.67639  0.015348231  0.013956882          824 
 1905000   0.49473627   -7.6470145    350.83049  0.015346916  0.013945836          878 
 1906000   0.50011771   -7.6329566    350.47074  0.015323135  0.013934812          848 
 1907000   0.50143838   -7.6187279    350.46074  0.015314662  0.013923794          815 
 1908000   0.48883253   -7.6278184    350.96224   0.01532854  0.013912777          872 
 1909000   0.49185476   -7.6311335    350.57035  0.015303403  0.013901767          830 
 1910000   0.49218077     -7.62248    350.95328  0.015312098   0.01389077          874 
 1911000   0.49386048   -7.6270557    350.92272  0.015302752  0.013879797          805 
 1912000   0.48968275   -7.6227654    350.68042  0.015284189  0.013868839          798 
 1913000   0.49351734   -7.6221597    350.13872  0.015252602  0.013857894          808 
 1914000   0.48177131   -7.6397194    350.60936  0.015265124  0.013846947          832 
 1915000    0.4870398   -7.6413736    350.68871  0.015260605  0.013836003          852 
 1916000     0.484302   -7.6425602     350.7017  0.015253206  0.013825087          845 
 1917000   0.49119513   -7.6409834    351.04579  0.015260206  0.013814173          770 
 1918000   0.48100754   -7.6544949    349.97324   0.01520565  0.013803264          856 
 1919000   0.47891034   -7.6441934    350.76021  0.015231901  0.013792367          875 
 1920000   0.48596251   -7.6348468     350.3756  0.015207274  0.013781479          873 
 1921000   0.48438917   -7.6392281    350.40412  0.015200595  0.013770611          848 
 1922000   0.49287781   -7.6329276    350.82285  0.015210841  0.013759749          854 
 1923000   0.48979167   -7.6296699    350.67905    0.0151967  0.013748902          867 
 1924000   0.48224772    -7.633773    350.44664  0.015178735  0.013738057          891 
 1925000   0.49614583   -7.6565568    350.11218  0.015156371  0.013727222          924 
 1926000    0.4741937   -7.6311894    350.85769  0.015180758  0.013716394          855 
 1927000   0.47804411   -7.6496924    350.35829  0.015151284  0.013705569          911 
 1928000   0.47441022   -7.6428099    350.18928  0.015136121  0.013694749          905 
 1929000    0.4872676   -7.6576487    350.60098  0.015146059  0.013683938          892 
 1930000   0.49064816   -7.6530074    350.63169  0.015139538  0.013673142          903 
 1931000   0.47562917   -7.6470638    349.83532  0.015097329  0.013662354          949 
 1932000   0.47619648   -7.6454069    350.67325  0.015125658  0.013651577          934 
 1933000   0.48506028   -7.6481018    350.76585  0.015121825  0.013640814          907 
 1934000    0.4852446   -7.6481165    350.47103  0.015101303  0.013630056          930 
 1935000   0.47525902    -7.650532    350.73924  0.015105049   0.01361931         1000 
 1936000   0.48463826   -7.6440328    350.44637  0.015084641  0.013608575          906 
 1937000   0.48193525   -7.6550788    350.56374  0.015081902  0.013597847          929 
 1938000   0.47987318   -7.6550656    350.57762  0.015074717  0.013587129          975 
 1939000   0.47573659   -7.6406144    350.75589  0.015074604   0.01357642          949 
 1940000   0.47364872   -7.6478289    350.67364  0.015063301  0.013565725          962 
 1941000   0.46627424   -7.6424279    350.37301  0.015042633  0.013555037          947 
 1942000   0.48348664   -7.6455687    350.04883  0.015020976  0.013544355          976 
 1943000   0.47362933   -7.6565328    350.35844  0.015026524  0.013533696          966 
 1944000   0.46589703   -7.6531107    349.98035  0.015002587   0.01352304          973 
 1945000   0.47728564   -7.6664808     350.0034  0.014995861  0.013512388          970 
 1946000   0.47586728   -7.6616008    350.75105  0.015020172  0.013501746          895 
 1947000   0.48368897   -7.6486524    350.37334  0.014996291   0.01349112          944 
 1948000   0.47802895   -7.6550079    350.47289  0.014992851  0.013480505          968 
 1949000   0.47385738   -7.6429973    350.43649  0.014983602  0.013469899          919 
 1950000   0.48411522   -7.6540219    350.22171   0.01496674  0.013459302          936 
 1951000   0.47371693    -7.658765    350.05871  0.014952106  0.013448707          852 
 1952000   0.46246648    -7.667391    350.16844  0.014949131  0.013438124          914 
 1953000   0.47192311   -7.6518963     349.6216  0.014918143  0.013427553          910 
 1954000   0.47880445    -7.662232    350.63277  0.014953632  0.013416996          982 
 1955000   0.46922897   -7.6598912    350.01034  0.014919452  0.013406456          931 
 1956000   0.47638383   -7.6730706    350.30075  0.014924197  0.013395909          960 
 1957000   0.48557528   -7.6676294    350.28952  0.014916092  0.013385373          967 
 1958000   0.48083132   -7.6710422    350.09935  0.014900381  0.013374844          910 
 1959000   0.47115223   -7.6785941    350.08569  0.014892194  0.013364321          891 
 1960000    0.4612429   -7.6630585    350.39669  0.014897818  0.013353814          924 
 1961000   0.47792057   -7.6709917    350.42879  0.014891585  0.013343312          970 
 1962000   0.47324851   -7.6640439    350.08945  0.014869582  0.013332819          926 
 1963000   0.46805818   -7.6811021    350.26744  0.014869563  0.013322344          903 
 1964000   0.47043749   -7.6694693    350.26546  0.014861908  0.013311873          921 
 1965000   0.46710332   -7.6505754    349.87252  0.014837681  0.013301412          924 
 1966000   0.45925706   -7.6515189    349.64979  0.014820693  0.013290952          913 
 1967000   0.46665731   -7.6724713    350.41065  0.014845393  0.013280512          923 
 1968000   0.47051492   -7.6629728    350.24182  0.014830701  0.013270081          934 
 1969000   0.45712288   -7.6661932    349.65252  0.014798228  0.013259666          973 
 1970000   0.48000204   -7.6852764    350.25932  0.014816384   0.01324925          930 
 1971000   0.46396053   -7.6643526    349.67155  0.014784016   0.01323885          891 
 1972000   0.46316544   -7.6867195    350.27558  0.014802044  0.013228465          964 
 1973000   0.46766354   -7.6713368    349.69893  0.014770186   0.01321808         1012 
 1974000   0.45427503   -7.6729292    349.76805  0.014765622  0.013207713          936 
 1975000   0.46114484   -7.6924287     350.0294  0.014769173  0.013197345          963 
 1976000   0.46471772    -7.684677    350.24712   0.01477088  0.013186981          949 
 1977000     0.455795   -7.6906547    349.54981  0.014734017  0.013176631          981 
 1978000    0.4626319   -7.6840925    350.01202  0.014746041  0.013166294          964 
 1979000     0.466213   -7.6793697    349.84096  0.014731386  0.013155967          973 
 1980000   0.46416466   -7.6957041    350.50947  0.014752082   0.01314565          926 
 1981000   0.46104442   -7.6790244    349.58573  0.014705777  0.013135338          987 
 1982000   0.45834584   -7.6841471    349.76256  0.014705792  0.013125043         1020 
 1983000   0.45749854   -7.6886919    350.14146  0.014714299  0.013114755         1024 
 1984000    0.4564812   -7.6817788     349.6222  0.014685072  0.013104474          966 
 1985000   0.46482316   -7.6760037    349.47405  0.014671455  0.013094211          979 
 1986000   0.45788156   -7.6727036    349.74318   0.01467536   0.01308395         1001 
 1987000    0.4551127   -7.6830383    349.68596  0.014665574  0.013073699          952 
 1988000   0.45820812   -7.6785339    350.01171  0.014671852  0.013063466          991 
 1989000   0.45609467   -7.6875453    350.18848  0.014671882  0.013053243         1000 
 1990000   0.46665456   -7.6860734    349.92189  0.014653345  0.013043025          988 
 1991000   0.46178542   -7.6853472     349.7927  0.014640578  0.013032825         1006 
 1992000   0.45929581   -7.6873932    349.92105  0.014638598  0.013022636          933 
 1993000   0.45351201   -7.6920448    349.30893  0.014605659  0.013012438          931 
 1994000   0.45990773   -7.6940037     349.8768  0.014622066  0.013002255          990 
 1995000   0.44752007    -7.691619    349.78638   0.01461096  0.012992082          991 
 1996000    0.4490257   -7.6859146    350.11761  0.014617469  0.012981923          996 
 1997000   0.45423194   -7.6975791    349.42038  0.014581054  0.012971778          945 
 1998000   0.45735066    -7.694923    349.76327  0.014588057  0.012961626          927 
 1999000    0.4561661   -7.6926292     349.8798  0.014585618   0.01295149         1006 
 2000000   0.44364609   -7.6896271    349.80444  0.014575185  0.012941367          964 
 2001000   0.45649165   -7.6832673    349.28384   0.01454622  0.012931251          922 
 2002000   0.46220458   -7.6963729    349.94237  0.014566366  0.012921154          970 
 2003000   0.46080759   -7.6902422    349.21773  0.014528946  0.012911057          891 
 2004000   0.45463724   -7.6957284    349.59584  0.014537418  0.012900974          917 
 2005000   0.45996327   -7.7078246    349.74625   0.01453642  0.012890894          978 
 2006000    0.4481865   -7.6992326    349.44771  0.014516771  0.012880816          936 
 2007000   0.45380379   -7.7008624    349.13829   0.01449669   0.01287075          951 
 2008000   0.44156698   -7.6930819    349.58919  0.014508183  0.012860696          967 
 2009000   0.45984466   -7.6895543    349.79831  0.014509636  0.012850657          929 
 2010000   0.44571424   -7.7066537     349.1732  0.014476501  0.012840619          973 
 2011000   0.46370201   -7.6825796    349.23478  0.014471854  0.012830594         1000 
 2012000   0.45234243    -7.705355    349.86676  0.014490837  0.012820576          985 
Loop time of 4318.94 on 48 procs for 2000000 steps with 4000 atoms

Performance: 80019.607 tau/day, 463.076 timesteps/s
99.4% CPU use with 48 MPI tasks x no OpenMP threads

MPI task timing breakdown:
Section |  min time  |  avg time  |  max time  |%varavg| %total
---------------------------------------------------------------
Pair    | 270.7      | 281.93     | 294.45     |  27.4 |  6.53
Neigh   | 26.907     | 27.387     | 28.231     |   5.3 |  0.63
Comm    | 237.45     | 250.73     | 266.82     |  40.9 |  5.81
Output  | 4.5003     | 4.5022     | 4.5413     |   0.3 |  0.10
Modify  | 3677.6     | 3702.7     | 3719.5     |  16.5 | 85.73
Other   |            | 51.67      |            |       |  1.20

Nlocal:        83.3333 ave          92 max          78 min
Histogram: 3 1 17 5 7 10 1 3 0 1
Nghost:        1792.29 ave        1813 max        1776 min
Histogram: 3 5 7 11 3 6 5 3 3 2
Neighs:        10982.0 ave       12911 max        9814 min
Histogram: 1 7 11 8 11 4 4 1 0 1
FullNghs:      21962.6 ave       24620 max       20453 min
Histogram: 3 6 11 10 9 4 2 2 0 1

Total # of neighbors = 1054206
Ave neighs/atom = 263.55150
Neighbor list builds = 107842
Dangerous builds = 0

#clear
#
#next RN
#
#jump SELF
Total wall time: 1:12:01
