
units lj                  # Use reduced LJ style units
atom_style atomic         # Uncharged point particles
atom_modify map hash      # Needed for indexing of clusters etc
                          # Used to be able to find where atoms are in relation to each other.

lattice fcc 1.0 spacing 1 1 1
Lattice spacing in x,y,z = 1.5874011 1.5874011 1.5874011
region box block 0 10 0 10 0 10 units lattice
create_box 2 box
Created orthogonal box = (0.0000000 0.0000000 0.0000000) to (15.874011 15.874011 15.874011)
  3 by 4 by 4 MPI processor grid
create_atoms 1 box
Created 4000 atoms
  using lattice units in orthogonal box = (0.0000000 0.0000000 0.0000000) to (15.874011 15.874011 15.874011)
  create_atoms CPU = 0.011 seconds
set type 1 type/fraction 2 0.5 78393
Setting atom values ...
  2004 settings made for type/fraction
mass 1 1.0
mass 2 1.0
pair_style lj/cut  3.5
pair_modify tail  yes
pair_coeff 1  1  1.0  1.0   # Intearaction between 1 and 1 set with epsilon = 1 and sigma = 1
pair_coeff 1  2  1.5  0.8
pair_coeff 2  2  0.5  0.88

write_data data.0
System init for write_data ...
Neighbor list info ...
  update every 1 steps, delay 10 steps, check yes
  max neighbors/atom: 2000, page size: 100000
  master list distance cutoff = 3.8
  ghost atom cutoff = 3.8
  binsize = 1.9, bins = 9 9 9
  1 neighbor lists, perpetual/occasional/extra = 1 0 0
  (1) pair lj/cut, perpetual
      attributes: half, newton on
      pair build: half/bin/atomonly/newton
      stencil: half/bin/3d
      bin: standard
WARNING: Not all mixed pair coeffs generated from mixing. Use write_data with 'pair ij' option to store all pair coeffs. (../write_data.cpp:312)


#############################
#   M E L T   S Y S T E M   #
#############################

velocity all create 2.4 8172548 mom yes dist gaussian # Assign velocities
                                                    # Temperature 2.4, random number seed, zero linear momentum
                                                                                # Gaussian distribution

timestep 0.002   # simulation timestep
thermo 1000       # output thermodynamic data every 1000 steps bf 100

# Define a fix  in this case with index 1 applied to all
# particles in the simulation. This fix is for simulations
# in the anisotropic NPT ensemble. Note that we use the MTK
# correction.
fix 1 all npt temp 2.4 2.4 0.1 iso 5.68 5.68 0.5 mtk yes tchain 5 pchain 5 # Use NPT ensemble
                                                                         # Set temperature and pressure and damping
                                                                         # Numbers of thermostats in chain and in barostat
run 10000          # run for 10000 steps
Per MPI rank memory allocation (min/avg/max) = 3.642 | 3.644 | 3.648 Mbytes
Step Temp E_pair E_mol TotEng Press Volume 
       0          2.4   -5.2939675            0   -1.6948675   -4.2078901         4000 
    1000    2.4327924   -4.8686208            0   -1.2203445    6.0457355    3677.3557 
    2000    2.4219696   -4.8480178            0   -1.2159717    5.4486498    3741.8648 
    3000    2.3882017   -4.8899012            0   -1.3084942    5.3603978    3720.8241 
    4000    2.4746374   -4.8786279            0   -1.1675997    5.7909119    3702.6547 
    5000    2.4650442   -4.8894005            0   -1.1927586    5.6898738    3700.4158 
    6000     2.387324   -4.8433046            0    -1.263214    5.9028329    3697.6784 
    7000    2.3803026   -4.9000851            0   -1.3305238    5.4600169    3712.8979 
    8000    2.3431108   -4.8622469            0   -1.3484593    5.9019468    3693.0743 
    9000    2.4351649   -4.8317334            0   -1.1798992    6.0127831    3704.0654 
   10000    2.3082376   -4.9070453            0   -1.4455544     5.439526    3707.8625 
Loop time of 2.63754 on 48 procs for 10000 steps with 4000 atoms

Performance: 655155.908 tau/day, 3791.412 timesteps/s
99.6% CPU use with 48 MPI tasks x no OpenMP threads

MPI task timing breakdown:
Section |  min time  |  avg time  |  max time  |%varavg| %total
---------------------------------------------------------------
Pair    | 1.1961     | 1.2446     | 1.3071     |   2.4 | 47.19
Neigh   | 0.21447    | 0.22258    | 0.23218    |   0.8 |  8.44
Comm    | 0.83067    | 0.89311    | 0.97212    |   3.3 | 33.86
Output  | 0.00024808 | 0.00026199 | 0.00032743 |   0.0 |  0.01
Modify  | 0.20006    | 0.26133    | 0.30876    |   6.5 |  9.91
Other   |            | 0.01562    |            |       |  0.59

Nlocal:        83.3333 ave          90 max          75 min
Histogram: 3 1 4 5 6 4 7 8 7 3
Nghost:        1728.58 ave        1758 max        1705 min
Histogram: 2 5 3 12 6 10 4 2 1 3
Neighs:        10306.5 ave       11401 max        9035 min
Histogram: 4 2 4 5 3 7 11 3 6 3

Total # of neighbors = 494713
Ave neighs/atom = 123.67825
Neighbor list builds = 906
Dangerous builds = 209

# Equilibrate just above the melting temperature to avoid step fn in T

fix 1 all npt temp 1.25 1.25 0.1 iso 5.68 5.68 0.5 mtk yes tchain 5 pchain 5
run 2000
Per MPI rank memory allocation (min/avg/max) = 3.644 | 3.646 | 3.649 Mbytes
Step Temp E_pair E_mol TotEng Press Volume 
   10000    2.3082376   -4.9070453            0   -1.4455544     5.439526    3707.8625 
   11000    1.2316377   -6.9724169            0   -5.1254222    6.0338404    2875.8705 
   12000    1.2310838    -7.090083            0    -5.243919    5.9836918    2847.8118 
Loop time of 0.638974 on 48 procs for 2000 steps with 4000 atoms

Performance: 540866.977 tau/day, 3130.017 timesteps/s
99.6% CPU use with 48 MPI tasks x no OpenMP threads

MPI task timing breakdown:
Section |  min time  |  avg time  |  max time  |%varavg| %total
---------------------------------------------------------------
Pair    | 0.28738    | 0.31524    | 0.33655    |   2.0 | 49.33
Neigh   | 0.041654   | 0.043543   | 0.045834   |   0.5 |  6.81
Comm    | 0.2035     | 0.22991    | 0.2604     |   2.6 | 35.98
Output  | 5.4367e-05 | 5.5778e-05 | 7.1573e-05 |   0.0 |  0.01
Modify  | 0.041228   | 0.045256   | 0.048546   |   1.0 |  7.08
Other   |            | 0.004976   |            |       |  0.78

Nlocal:        83.3333 ave          94 max          76 min
Histogram: 1 2 15 13 4 3 5 2 2 1
Nghost:        2066.56 ave        2086 max        2049 min
Histogram: 4 3 7 5 8 5 6 3 3 4
Neighs:        13416.1 ave       15617 max       12290 min
Histogram: 8 7 8 8 7 4 4 0 0 2

Total # of neighbors = 643974
Ave neighs/atom = 160.99350
Neighbor list builds = 144
Dangerous builds = 9

#############################
# L I N E A R  Q U E N C H  #
#############################

# Define solid atoms. This closely follows ten Wolde  Ruiz-Montero and Frenkel  Faraday Discuss  1996  104  93-110
# Compute components of the per-atom q6 vector
compute q6 all orientorder/atom degrees 1 6 components 6 nnn NULL cutoff 1.3 # compute the Q6 parameter.
                                                                             # Use all neighbours within 1.3 unit cell.

# get number of connections
compute coord_number all coord/atom orientorder q6 0.5

# An atom is solid if it has 8 or more connections (of a possible 14)
variable is_solid atom c_coord_number>=8
group solid dynamic all var is_solid    # Must be dynamic to update
dynamic group solid defined

# do clustering
compute cluster solid cluster/atom 1.3 # Create a cluster where all atoms within are solid and max 1.3 units from another member

# define chunks one chunk per cluster
compute clus_chunks solid chunk/atom c_cluster nchunk every compress yes  # Says which atoms are in which chunk

# count the size of each chunk
compute size_chunks solid property/chunk clus_chunks count


# Find the maximum entry in the vector of chunk sizes
variable max_n equal max(c_size_chunks)


# Thermo style which includes this variable
# thermo_style custom step temp pe vol v_max_n

thermo ${N}  # Print the thermo information every 100 steps
thermo 1000  

# Reset the npt fix at a lower temperature (below freezing)
fix 1  all npt temp  ${temp} ${temp}  0.1  iso  5.68  5.68  0.5  mtk yes tchain  5  pchain  5
fix 1  all npt temp  0.45 ${temp}  0.1  iso  5.68  5.68  0.5  mtk yes tchain  5  pchain  5
fix 1  all npt temp  0.45 0.45  0.1  iso  5.68  5.68  0.5  mtk yes tchain  5  pchain  5

dump dmp2 all dcd ${N} traj.dcd
dump dmp2 all dcd 1000 traj.dcd


compute msd all msd com yes
variable twopoint equal c_msd[4]/6/(step*dt+1.0e-6)
fix 9 all vector 10 c_msd[4]
variable fit equal slope(f_9)/6/(10*dt)
thermo_style custom step temp pe c_msd[4] v_twopoint v_fit v_max_n

fix 1 all npt temp 1.25 ${temp} 0.1 iso 5.68 5.68 0.5 mtk yes tchain 5 pchain 5
fix 1 all npt temp 1.25 0.45 0.1 iso 5.68 5.68 0.5 mtk yes tchain 5 pchain 5
run 2000000 # 5000000  # Run for this many steps
Neighbor list info ...
  update every 1 steps, delay 10 steps, check yes
  max neighbors/atom: 2000, page size: 100000
  master list distance cutoff = 3.8
  ghost atom cutoff = 3.8
  binsize = 1.9, bins = 8 8 8
  4 neighbor lists, perpetual/occasional/extra = 1 3 0
  (1) pair lj/cut, perpetual
      attributes: half, newton on
      pair build: half/bin/atomonly/newton
      stencil: half/bin/3d
      bin: standard
  (2) compute orientorder/atom, occasional
      attributes: full, newton on
      pair build: full/bin/atomonly
      stencil: full/bin/3d
      bin: standard
  (3) compute coord/atom, occasional
      attributes: full, newton on
      pair build: full/bin/atomonly
      stencil: full/bin/3d
      bin: standard
  (4) compute cluster/atom, occasional
      attributes: full, newton on
      pair build: full/bin/atomonly
      stencil: full/bin/3d
      bin: standard
Per MPI rank memory allocation (min/avg/max) = 9.840 | 9.845 | 9.851 Mbytes
Step Temp PotEng c_msd[4] v_twopoint v_fit v_max_n 
   12000    1.2310838    -7.090083 1.5361094e-30 1.0667426e-32 8.3333333e+20            2 
   13000    1.2698045   -7.0789161   0.46140609 0.0029577313  0.037834186            2 
   14000    1.2486087    -7.070086   0.87121842 0.0051858237  0.035460381            1 
   15000    1.2555942   -7.0773286    1.2456403 0.0069202238  0.033982834            2 
   16000    1.2640607   -7.1301573    1.6030681 0.0083493125  0.033078515            2 
   17000    1.2204119   -7.1181019    1.9752016 0.0096823603  0.032145849            4 
   18000    1.2385941   -7.0771378    2.3559079  0.010906981   0.03181993            1 
   19000    1.2577922   -7.0678797    2.8059268  0.012306696  0.031996732            2 
   20000    1.2470025   -7.0829933    3.1511138  0.013129641  0.032069088            2 
   21000    1.2436731   -7.1181237    3.5950299  0.014265992  0.032220704            2 
   22000    1.2126123   -7.1591609    4.0387556  0.015298316  0.032553375            2 
   23000    1.2452365    -7.079462    4.4057392  0.015962823  0.032768179            2 
   24000    1.2502529   -7.0885837    4.7391917  0.016455527  0.032805405            2 
   25000    1.2360754   -7.1027082    5.1815099  0.017271699  0.032722932            2 
   26000    1.2429538   -7.1179576    5.5243166  0.017706142  0.032708794            2 
   27000    1.2620031   -7.1179013    6.0128068  0.018558045  0.032744456            2 
   28000    1.2572406   -7.1085522    6.4111589   0.01908083  0.032890713            2 
   29000    1.2438841   -7.1566209    6.7844218  0.019495465  0.033076413            1 
   30000     1.231478   -7.1225028    7.0991333  0.019719814  0.033068825            1 
   31000    1.2690463   -7.1251571    7.5350557  0.020255526  0.032985846            3 
   32000    1.2547403   -7.1118422    7.9471708  0.020695757  0.032945171            3 
   33000    1.2504793   -7.1260608    8.3233339   0.02101852   0.03293396            3 
   34000    1.2512435   -7.1439559    8.8157765  0.021607295  0.032964924            2 
   35000    1.2434159   -7.1164376    9.2187585  0.021949425  0.033053973            1 
   36000      1.24273   -7.0984205    9.5615331  0.022133178  0.033081638            5 
   37000    1.2443294   -7.0989284    9.9806162  0.022478865  0.033061972            2 
   38000    1.2255266   -7.1178111     10.26876  0.022519211  0.033034444            2 
   39000    1.2453766   -7.0828936     10.54414  0.022530214  0.032947982            2 
   40000    1.2134693   -7.1157612    10.910357   0.02272991  0.032829043            1 
   41000     1.252348   -7.1350589    11.266726  0.022899849  0.032718867            1 
   42000    1.2187385   -7.1675124    11.577297  0.022970826  0.032612223            1 
   43000    1.2383175   -7.1843458    11.961737   0.02318166  0.032517668            1 
   44000    1.2334003   -7.1064493    12.371677  0.023431206  0.032415693            4 
   45000    1.2294959   -7.0997673    12.710537  0.023538032  0.032318871            2 
   46000    1.2479792   -7.1713565    13.127553  0.023781798  0.032252902            1 
   47000    1.2271788   -7.1704402    13.395823  0.023751459  0.032175716            4 
   48000    1.2370803   -7.1568006    13.825684  0.024002923  0.032107141            2 
   49000    1.2165831   -7.1982443    14.235845  0.024210621   0.03205061            2 
   50000    1.2109635   -7.1111258    14.610753  0.024351254  0.032003858            3 
   51000    1.2389623     -7.12912    14.925245  0.024387655  0.031945841            2 
   52000    1.2347256   -7.1982282    15.217644   0.02438725  0.031884312            3 
   53000    1.2069879    -7.179653    15.528389  0.024415706  0.031798066            2 
   54000    1.2179705   -7.1425119    15.952949  0.024618748   0.03173034            2 
   55000    1.2499435   -7.1539433    16.257988  0.024633315  0.031667893            1 
   56000    1.2392039   -7.1858684    16.571937   0.02466062  0.031594745            2 
   57000    1.2319737   -7.1685443    16.876647   0.02467346  0.031515415            4 
   58000    1.2659206   -7.1274873    17.297569  0.024852829  0.031435074            1 
   59000    1.2286149    -7.191174    17.729476  0.025041633  0.031372106            1 
   60000    1.2219289     -7.14089     18.12257  0.025170236  0.031325472            2 
   61000    1.2266847   -7.1175682    18.650497  0.025478821  0.031291574            4 
   62000    1.2199693   -7.1373751    18.892338  0.025392928  0.031266178            3 
   63000    1.2278332   -7.2006006    19.379001  0.025633599  0.031254906            2 
   64000    1.2262923   -7.1684959    19.780801  0.025756251  0.031249732            2 
   65000    1.1955846   -7.1814769    20.077251  0.025740065  0.031241508            3 
   66000    1.2139791   -7.1223129    20.569403  0.025971468  0.031228318            3 
   67000    1.2258258   -7.1049459    21.056702  0.026189927  0.031240502            3 
   68000     1.201196   -7.1547412    21.305154  0.026109257  0.031255681            1 
   69000    1.2207437   -7.1277132    21.850286  0.026389234  0.031268237            6 
   70000    1.2132276   -7.1505765    22.299488  0.026547009  0.031299378            2 
   71000    1.2395885   -7.1735116    22.967569  0.026957241   0.03135729            2 
   72000    1.2467105    -7.179092    23.250445  0.026910237  0.031408008            3 
   73000    1.2340185   -7.1519766     23.49517   0.02682097  0.031454608            3 
   74000    1.2378772   -7.1404862    23.931516  0.026949905  0.031483732            2 
   75000    1.1893825   -7.1438895    24.287311  0.026985901  0.031511327            3 
   76000    1.2505851   -7.1485186    24.694192  0.027076965   0.03153277            1 
   77000    1.2330227   -7.1796324    24.808414  0.026848933  0.031545865            1 
   78000    1.2250936   -7.1602026     25.18761   0.02690984  0.031548253            2 
   79000    1.1915907   -7.1934624    25.450564  0.026846586   0.03154507            2 
   80000    1.2298846   -7.1927455    25.950039   0.02703129  0.031540381            7 
   81000    1.2138115   -7.1608007    26.209055  0.026964048  0.031534407            4 
   82000    1.2557724   -7.1486618    26.593984  0.027026407  0.031521745            1 
   83000    1.2233057     -7.18146    26.925954   0.02703409  0.031510486            2 
   84000    1.2251297   -7.1653366    27.234248  0.027018103  0.031498523            3 
   85000    1.2211774   -7.1850752    27.571192   0.02703058  0.031481799            2 
   86000    1.2169381   -7.1521686    28.060695  0.027190595  0.031468444            2 
   87000    1.2303784   -7.1465398    28.489077  0.027288388  0.031456731            2 
   88000    1.2170653    -7.218408    28.584465  0.027068622  0.031442954            2 
   89000    1.1969518   -7.1553804    29.055558  0.027205579  0.031426943            1 
   90000    1.2297479   -7.1836378    29.283008  0.027113897   0.03139926            1 
   91000    1.2086731   -7.1716846    29.756712  0.027249736  0.031374141            5 
   92000    1.2112319   -7.1849395    29.939532  0.027119141  0.031351548            1 
   93000    1.2130089   -7.1515471    30.527181  0.027354105  0.031335228            1 
   94000    1.2125726   -7.1539334     30.77863  0.027286019  0.031312151            2 
   95000    1.2473959   -7.1827147    31.158649  0.027332148   0.03128517            2 
   96000    1.2170958   -7.1191934    31.451414  0.027301574   0.03125571            2 
   97000    1.2217901   -7.2244351    31.658651  0.027198154  0.031225023            1 
   98000    1.2387887   -7.2184109    31.910394  0.027134689  0.031187256            2 
   99000    1.2141887   -7.2139474    32.263685  0.027157984  0.031149932            2 
  100000    1.2170729   -7.1993216    32.682662  0.027235552   0.03111966            3 
  101000    1.2055427   -7.1703827    33.213524  0.027403898  0.031090576            2 
  102000    1.2182913   -7.1867998     33.72153   0.02755027  0.031069684            1 
  103000    1.2074048   -7.1853227     34.15142  0.027630599  0.031053682            5 
  104000    1.2096599   -7.2378358    34.514497  0.027655847  0.031043946            2 
  105000    1.2256468   -7.2208894    35.009682  0.027785462  0.031044525            1 
  106000    1.2214131   -7.2344627    35.247874  0.027710593  0.031043616            6 
  107000    1.2155224   -7.1947744     35.61974   0.02774123  0.031035046            3 
  108000    1.1857695   -7.1869883    36.033668  0.027803756  0.031026589            1 
  109000    1.2045723   -7.2522569    36.161186  0.027646166  0.031013781            2 
  110000    1.1985083   -7.2519822    36.591882  0.027721123  0.031000936            2 
  111000    1.2383622   -7.1674674    37.157174  0.027895776  0.030992422            5 
  112000    1.2083497   -7.2069851    37.261169  0.027724084  0.030978487            2 
  113000    1.2028471   -7.1650567    37.709096  0.027809068   0.03096318            4 
  114000    1.2199041   -7.1990843    38.072841  0.027831024  0.030954962            1 
  115000    1.2169911   -7.1823371    38.613931  0.027981109  0.030946264            1 
  116000    1.2073787   -7.2366821     38.73929   0.02782995  0.030937039            2 
  117000    1.1753576   -7.2060328    39.119642  0.027862993  0.030927272            2 
  118000    1.2353599   -7.1901642    39.625961  0.027984435  0.030917591            1 
  119000    1.2183827   -7.2287198    40.097782   0.02807968  0.030911663            2 
  120000    1.2010029   -7.2078086    40.382071  0.028043105  0.030900658            2 
  121000    1.1980321   -7.2110849    40.702084  0.028031738  0.030896748            3 
  122000    1.1775354   -7.2465888    41.100926  0.028074403  0.030894038            2 
  123000    1.2021201   -7.2151251    41.440979  0.028076544  0.030890189            2 
  124000    1.1984373   -7.2084548    41.845753  0.028122146  0.030881216            3 
  125000    1.1982144   -7.2356253    41.995436  0.027996957  0.030872376            2 
  126000    1.1937271   -7.2188813    42.382373   0.02803067   0.03086053            4 
  127000    1.1951116    -7.188561    43.024077  0.028231022  0.030853224            2 
  128000    1.2174455   -7.2286792    42.957631  0.027967208  0.030842433            5 
  129000    1.2118649    -7.202581    43.304621  0.027974561  0.030827643            3 
  130000    1.1924427   -7.2225671      43.6848  0.028003077  0.030808116            5 
  131000    1.1958209   -7.2253937    44.103927  0.028055933  0.030790585            1 
  132000    1.1879488   -7.2160739    44.387866  0.028022643  0.030775579            3 
  133000    1.1835106   -7.2136175    44.602378  0.027946352  0.030758279            3 
  134000    1.2017088   -7.2583126    44.974254  0.027969063  0.030739404            3 
  135000    1.1929433   -7.2382039    45.183324  0.027890941  0.030719887            2 
  136000    1.2139783   -7.2060076    45.513872  0.027888402  0.030698518            2 
  137000    1.1983821   -7.1902066    45.991911  0.027975615  0.030679792            2 
  138000     1.173737   -7.2360289    46.330566  0.027977395   0.03066396            4 
  139000    1.1978377   -7.2210111    46.928008  0.028134297  0.030649329            3 
  140000    1.2137602   -7.2687083    46.816933  0.027867222  0.030633817            2 
  141000    1.2037837    -7.251555    47.183091  0.027885988  0.030614822            5 
  142000    1.2003173   -7.1864243    47.535723  0.027896551  0.030593252            3 
  143000    1.2220088   -7.1982651    47.956288  0.027946555  0.030568326            3 
  144000    1.2020867   -7.2023231    48.297505  0.027949945  0.030549634            4 
  145000    1.2449589    -7.226601    48.497407  0.027872073  0.030528528            2 
  146000     1.224041   -7.2573119     48.81556  0.027862763  0.030508003            2 
  147000     1.205334   -7.2436679    49.323827  0.027961353  0.030483718            2 
  148000    1.2095414   -7.2545288    49.428239  0.027831215  0.030458407            3 
  149000     1.204588   -7.2859243    49.723495  0.027809561  0.030433087            9 
  150000    1.1798055   -7.2613298    50.293754  0.027940974  0.030411042            1 
  151000      1.20291    -7.242353    50.553896  0.027899501   0.03038914            1 
  152000    1.2011693    -7.256049    50.738028  0.027816901  0.030363703            1 
  153000    1.1967037   -7.2542442    50.895421  0.027720817  0.030338621            6 
  154000    1.1763398   -7.2271406    51.533024  0.027885836  0.030314551            2 
  155000    1.2024589   -7.2257312    51.870999  0.027887634  0.030290388            2 
  156000    1.1805407   -7.2240779    52.355871   0.02796788  0.030269662            1 
  157000    1.1793062   -7.2622373    52.415351  0.027821312  0.030247609            2 
  158000    1.1474902   -7.2866837    52.689495  0.027789818  0.030223896            1 
  159000    1.1901479   -7.2082194    53.215341   0.02789064  0.030204422            3 
  160000      1.18326   -7.2393092    53.471422  0.027849699  0.030184228            2 
  161000    1.1793269   -7.2261424    53.950853  0.027924872  0.030161274            1 
  162000    1.1903198   -7.2517296    54.130305  0.027844807  0.030138599            1 
  163000    1.1766902   -7.2714187    54.414985  0.027819522  0.030115707            2 
  164000    1.1987501   -7.2523676    54.986818  0.027940456  0.030094338            2 
  165000    1.2170239   -7.3169643    55.097012  0.027826774  0.030076482            2 
  166000    1.2054794   -7.2614453    56.017327  0.028121148  0.030059907            3 
  167000    1.1785829   -7.2792503    56.178027  0.028032947  0.030048621            2 
  168000    1.1954938    -7.261318    56.556392  0.028053766  0.030035483            4 
  169000    1.1755136   -7.2363205    56.896402  0.028055425  0.030024355            2 
  170000    1.1909845   -7.2555846    57.389115  0.028131919  0.030014829            1 
  171000    1.1715814   -7.2799852    57.782949  0.028159332  0.030006142            1 
  172000    1.1865837   -7.2495552    58.209811  0.028202428  0.029997776            2 
  173000    1.1900779   -7.2521479    58.334984  0.028099703  0.029987853            1 
  174000    1.1418064   -7.2891019    58.506941  0.028020566  0.029975766            3 
  175000    1.1785936   -7.2809513    58.696138  0.027950542  0.029961472            6 
  176000    1.1901185   -7.3154655     58.80481  0.027843186  0.029945102            3 
  177000    1.1774144   -7.2567387    59.265158  0.027902617  0.029926916            7 
  178000    1.1472283   -7.3148561    59.367921   0.02779397  0.029908757            4 
  179000    1.1785476   -7.2515255    59.834884  0.027856091  0.029887774            2 
  180000    1.1959438    -7.255926    60.241029  0.027889365  0.029869135            2 
  181000    1.1799698   -7.3002386    60.544428  0.027874967  0.029851998            2 
  182000    1.1766245   -7.2237759    60.987075  0.027924485  0.029833033            3 
  183000    1.1703014   -7.2871811    61.196722   0.02786736  0.029812325            2 
  184000    1.1827093   -7.2720881    61.282967  0.027754967  0.029789092            1 
  185000    1.1720635   -7.2704357    61.455498  0.027682657  0.029765111            1 
  186000    1.1633219   -7.3026162    61.670886  0.027630325  0.029740281            3 
  187000    1.1876129      -7.3094    61.816487  0.027547454   0.02971622            5 
  188000    1.1822611   -7.2691819    62.404562  0.027661597  0.029692297            1 
  189000    1.1845054   -7.2823292    62.522475  0.027567229  0.029666282            2 
  190000    1.1908412   -7.2628231    62.805224  0.027546151  0.029640515            8 
  191000    1.1914875   -7.2809869    63.035074  0.027502214  0.029614828            2 
  192000     1.171142   -7.2511102    63.443525  0.027536252  0.029589547            5 
  193000    1.1776701   -7.2667411    64.057035  0.027658478  0.029566229            4 
  194000    1.1802722   -7.3014472     64.06735  0.027520339   0.02953951            6 
  195000    1.2067283   -7.2793056     64.42694   0.02753288  0.029511444            1 
  196000    1.1660812   -7.2711413    64.812065   0.02755615  0.029484124            2 
  197000    1.1562215   -7.3406445    64.704429   0.02737074  0.029456218            4 
  198000    1.1470298   -7.2973232    65.074903  0.027388427  0.029428622            4 
  199000    1.1834591   -7.3039233    65.207709  0.027306411   0.02939924            3 
  200000    1.1540118   -7.2765804    65.645474  0.027352281  0.029369454            2 
  201000    1.1766407   -7.3392051    66.013924  0.027368957  0.029339974            3 
  202000    1.1576268   -7.3070549    66.356501  0.027374794   0.02931226            2 
  203000    1.1933433   -7.3148773    66.451989  0.027279142     0.029284            5 
  204000    1.1605847   -7.3244287    66.468341    0.0271521  0.029254185            3 
  205000    1.1925776   -7.3193784    66.806966  0.027157303  0.029223349            4 
  206000    1.1900579   -7.2880313    67.031833  0.027116437  0.029192143            2 
  207000    1.1893255   -7.2903484    67.579991  0.027206115  0.029162266            1 
  208000    1.1583397   -7.2124493    68.047413  0.027262585  0.029133475            5 
  209000    1.1784107   -7.2710201     68.19076  0.027189298  0.029103398            1 
  210000    1.1674469   -7.2790255     68.30785   0.02710629  0.029074087            4 
  211000    1.1633859   -7.3175692    68.571295   0.02708187  0.029046505            2 
  212000    1.1688099   -7.3028828    69.044178  0.027140007  0.029017545            3 
  213000     1.163231   -7.2815327    69.078188  0.027025895  0.028989311            1 
  214000    1.1825325   -7.2771885    69.582704  0.027096069  0.028961332            2 
  215000    1.1640661   -7.2743728    70.053755  0.027152618  0.028935398            1 
  216000    1.1703282   -7.3111348    70.351101  0.027141629  0.028909532            2 
  217000    1.1533145   -7.3420193     70.60664  0.027114685  0.028885695            4 
  218000    1.1764788   -7.2940391     70.97574  0.027131399  0.028860976            3 
  219000    1.1535836   -7.3282497    71.169948  0.027081411  0.028835367            1 
  220000    1.1841894   -7.3187328    71.672903  0.027148827  0.028810763            2 
  221000    1.1675006   -7.2806464    72.087751   0.02718241  0.028788889            2 
  222000    1.1703106   -7.3593736    71.967727  0.027014912  0.028766046            2 
  223000     1.145217   -7.2920704    72.653612  0.027150079  0.028744178            2 
  224000    1.1375545   -7.2870145    73.533822  0.027356332  0.028725887            1 
  225000    1.1876141   -7.3244398    73.704271  0.027297878    0.0287087            3 
  226000    1.1602346   -7.3417176    74.025236  0.027295441  0.028692441            2 
  227000    1.1706962   -7.3227098    74.529666  0.027360377  0.028676935            5 
  228000     1.175174   -7.3641159    74.482321  0.027223071  0.028660536            2 
  229000    1.1752584   -7.2915198     74.79568  0.027218224  0.028643451            2 
  230000    1.1643963   -7.3489612    75.468462  0.027343646  0.028627894            3 
  231000    1.1704697   -7.3368635    75.647515  0.027289868  0.028611812            2 
  232000    1.1674446   -7.3146178     75.75782  0.027211861  0.028595675            3 
  233000    1.1414113    -7.319114    76.301269  0.027289438  0.028579704            4 
  234000    1.1593594    -7.348089    76.444523  0.027223833  0.028562554            2 
  235000    1.1648504   -7.3257849    76.681261  0.027191936  0.028544608            2 
  236000    1.1523112   -7.3450816    76.663406  0.027070412  0.028526078            1 
  237000    1.1560635   -7.3396629    76.953192  0.027058084  0.028506414            1 
  238000    1.1864256   -7.3156048    77.447972  0.027117637  0.028487531            3 
  239000    1.1334533   -7.3442954    77.658236  0.027077488  0.028468886            4 
  240000    1.1488256   -7.2922976    78.387892  0.027218018  0.028451224            2 
  241000    1.1609141   -7.2780826    78.815281  0.027252863  0.028434885            2 
  242000    1.1819576   -7.2664548    79.089587  0.027234706  0.028419537            4 
  243000     1.165669   -7.3438929    79.609484  0.027300921  0.028404697            2 
  244000    1.1322756   -7.3281907    79.949162  0.027305042  0.028391473            2 
  245000    1.1539974   -7.3314692    80.179417   0.02727191  0.028379569            2 
  246000     1.134927     -7.31858    80.504695  0.027271238   0.02836598            1 
  247000    1.1832188   -7.3759117    80.363154  0.027113075  0.028351494            2 
  248000    1.1461255   -7.3548464    80.566648  0.027072126  0.028334838            2 
  249000    1.1592262   -7.3663019    81.163324  0.027163093   0.02831884            4 
  250000    1.1781522   -7.3289145    81.631127  0.027210376  0.028303985            2 
  251000    1.1523176   -7.3248537    81.675316  0.027116639  0.028289248            2 
  252000    1.1609178   -7.3420614    81.819356  0.027056665  0.028272048            1 
  253000    1.1546202   -7.3642827    82.020767  0.027016063  0.028254164            2 
  254000    1.1587289   -7.3128706    82.509422   0.02707002  0.028236937            2 
  255000    1.1657438   -7.3494566    82.525386   0.02696908  0.028219799            3 
  256000    1.1490233   -7.3742201    82.605977  0.026889966  0.028202435            1 
  257000    1.1673578   -7.3551452    83.206364  0.026980014  0.028185253            2 
  258000    1.1373205   -7.3327262     83.50537  0.026972019  0.028167895            7 
  259000    1.1582002   -7.3333926    83.929172  0.027004238  0.028152964            5 
  260000     1.160258   -7.3199003    83.825832  0.026867254  0.028136577            3 
  261000    1.1381138   -7.3440003    84.050185  0.026835946   0.02811822            5 
  262000    1.1572082    -7.356669    84.388881  0.026841247  0.028099654            4 
  263000    1.1519535   -7.3412897    84.863601  0.026889607  0.028081496            1 
  264000    1.1768799   -7.3340377    85.015128  0.026835583  0.028064596            2 
  265000    1.1323502   -7.3405754     84.80027  0.026666751   0.02804674            4 
  266000    1.1404335   -7.3158574    85.455516  0.026771778  0.028027944            2 
  267000    1.1517328   -7.3494464    85.830946  0.026788685   0.02800922            2 
  268000    1.1558383    -7.369116    86.128399  0.026781219  0.027991437            2 
  269000    1.1564601   -7.3192719    86.402035   0.02676643  0.027972597            2 
  270000    1.1376456   -7.3543709     86.38401  0.026661731  0.027952406            2 
  271000     1.166136   -7.3331766    86.989754  0.026749617  0.027932677            3 
  272000     1.117576   -7.3264964    87.319047  0.026752159  0.027914175            1 
  273000    1.1467612   -7.3580321     87.69383  0.026768568  0.027896458            2 
  274000    1.1509713   -7.3450379    88.218437  0.026830425  0.027881554            3 
  275000    1.1273058   -7.3732765    88.459876  0.026806023  0.027865851            2 
  276000     1.122449   -7.3431024    89.111669  0.026905697  0.027849634            2 
  277000    1.1287663   -7.3683211    89.054122  0.026791252  0.027834026            3 
  278000    1.1531894   -7.3754533    89.580986  0.026852813  0.027819125            1 
  279000    1.1486721   -7.3878977    89.683217  0.026787102  0.027803595            3 
  280000    1.1379919   -7.3668204    90.101033  0.026815784  0.027788419            1 
  281000    1.1358865   -7.3747921    90.336392  0.026790152   0.02777359            2 
  282000    1.1453465   -7.3070317    91.121324  0.026927105  0.027760139            4 
  283000    1.1498193   -7.3249174    91.022043  0.026802722  0.027746408            3 
  284000    1.1719992   -7.3689905    91.274737  0.026782493  0.027733145            1 
  285000    1.1422157    -7.377906    91.727372  0.026820869  0.027719545            3 
  286000    1.1706081   -7.3907775    91.708642  0.026721632  0.027705453            1 
  287000    1.1425859   -7.4235015    92.204899  0.026772619  0.027692004            2 
  288000    1.1491998   -7.3731859    92.311503  0.026710504  0.027678008            3 
  289000    1.1369602   -7.3863149    92.933055  0.026797305  0.027664151            2 
  290000    1.1446809   -7.3743653    92.506896  0.026582441  0.027649632            2 
  291000    1.1480837   -7.4145337    92.813579  0.026578917  0.027631863            2 
  292000    1.1434882   -7.3880961    93.078822  0.026563591  0.027614757            3 
  293000    1.1406005   -7.3864875    92.953621  0.026437321  0.027595548            5 
  294000    1.1198108   -7.4112273    93.001485  0.026360965  0.027576427            2 
  295000    1.1317212   -7.4068938    93.613021  0.026444356  0.027556774            4 
  296000    1.1516564   -7.3276788    93.655614  0.026367009  0.027536959            2 
  297000    1.1531921   -7.3882596    93.652745  0.026277426  0.027517072            3 
  298000     1.126588   -7.4544598    93.725605  0.026209621  0.027495696            2 
  299000    1.1481632   -7.4110621    93.899704  0.026170486  0.027474165            2 
  300000    1.1413905   -7.4020298    94.017296  0.026115916  0.027451993            4 
  301000    1.1428144   -7.4287338    94.351964  0.026121806  0.027428603            1 
  302000    1.1265397   -7.4036589    94.837096  0.026169176  0.027406056            2 
  303000    1.1307853   -7.3964709    95.390554  0.026235026  0.027384035            3 
  304000    1.1278349   -7.3976337    95.653607  0.026220835  0.027361895            1 
  305000    1.1419616    -7.406003    95.285498  0.026034289  0.027338745            2 
  306000    1.1213924   -7.3647013    95.861679  0.026106122  0.027315336            6 
  307000    1.1141741   -7.4229287    95.537721  0.025933149  0.027290802            3 
  308000    1.1511364   -7.4450795    95.725717  0.025899815  0.027266163            1 
  309000    1.1199695   -7.4026133    95.990576  0.025887426  0.027241119            2 
  310000    1.1251196   -7.3727909    96.946157  0.026060795  0.027217701            7 
  311000    1.1386366   -7.3331863    96.851884  0.025951737  0.027194324            1 
  312000    1.1515026   -7.3881104    97.017815  0.025912878  0.027170889            4 
  313000    1.1475156   -7.3824064    97.268959  0.025896954  0.027147227            5 
  314000    1.1121556   -7.4218726    97.708549  0.025931143  0.027123456            2 
  315000     1.137098   -7.4216813    97.520362  0.025799038  0.027099015            2 
  316000    1.1233874   -7.4185036    97.523214  0.025718147   0.02707427            3 
  317000    1.1238966   -7.4243112    98.253544  0.025829007  0.027050192            2 
  318000    1.1336136   -7.4436955    98.137917  0.025717483  0.027026229            2 
  319000    1.1272993    -7.420839    98.757327  0.025798675  0.027002616            2 
  320000    1.1236305   -7.3988142    99.165581   0.02582437   0.02697911            2 
  321000    1.1520705   -7.4067141    99.153239  0.025740716  0.026956028            2 
  322000    1.1168387   -7.4271056    99.691746  0.025800141  0.026933191            1 
  323000     1.116129   -7.4000944    99.903017  0.025774772  0.026910531            3 
  324000    1.1212794   -7.4403259    100.27835  0.025791757  0.026888325            3 
  325000     1.132767   -7.3700309    100.68943  0.025817803  0.026866452            4 
  326000    1.1140451   -7.4374414     100.4811  0.025685352  0.026844739            1 
  327000    1.1277421   -7.4465281    101.16093  0.025780053  0.026823264            3 
  328000    1.1432826   -7.4158197     101.3076  0.025738719  0.026801968            2 
  329000    1.1444282   -7.3898543    101.45627  0.025698143  0.026780093            2 
  330000    1.1108671   -7.4317479    101.69156  0.025679686  0.026757804            3 
  331000    1.1203733   -7.4920784    101.68488  0.025600424  0.026736325            3 
  332000    1.1337284   -7.4464801    102.23369  0.025661066  0.026714827            3 
  333000    1.1222458   -7.4406643     102.6206   0.02568083  0.026694056            2 
  334000    1.1212181   -7.3846732    102.70019  0.025623799  0.026672437            2 
  335000    1.1201789   -7.4852655    102.80832  0.025574209  0.026649694            2 
  336000    1.1091221   -7.4352922    102.95335  0.025534066  0.026626324            1 
  337000     1.109337   -7.4248234    103.05723  0.025483984  0.026603497            1 
  338000    1.1429999   -7.4325754    103.51487  0.025521417  0.026580978            2 
  339000    1.1086322   -7.4403866    103.52227  0.025447952  0.026558834            4 
  340000    1.1217451   -7.4553822    103.98952  0.025487627  0.026536522            2 
  341000    1.1307203   -7.4421519    104.28449  0.025484968  0.026514311            2 
  342000    1.1184951   -7.4416932    104.49008  0.025460547  0.026492346            4 
  343000    1.1410596   -7.4598943    104.61747  0.025417266  0.026469884            2 
  344000    1.1165048   -7.4640468    105.20776  0.025486377  0.026448456            2 
  345000    1.1126253   -7.4769928    105.10048  0.025386591  0.026427386            1 
  346000     1.111125   -7.4090211    106.09853  0.025553596  0.026406367            2 
  347000    1.1426895   -7.4427091    105.98577  0.025452875  0.026386302            2 
  348000    1.1117692   -7.4395856    106.35749  0.025468747  0.026367033            2 
  349000    1.0995992   -7.4341714     106.7539  0.025490424  0.026348233            2 
  350000    1.1420373   -7.4687246    107.05756  0.025489894  0.026329314            2 
  351000     1.126477   -7.4112173    107.60835  0.025548042   0.02631062            1 
  352000     1.081517   -7.4807136    107.68746  0.025494191  0.026291736            3 
  353000     1.116003   -7.4539873    107.83358  0.025456464  0.026272825            4 
  354000    1.1101084   -7.4447708    107.95373  0.025412836  0.026254174            2 
  355000    1.1253594   -7.4459778    108.54396  0.025479804  0.026235787            3 
  356000     1.104972   -7.4729108    108.41206  0.025377355  0.026217036            2 
  357000    1.1240865   -7.4455153    108.55621  0.025339917   0.02619824            2 
  358000    1.1225009   -7.4837063    108.49742  0.025255451  0.026179147            2 
  359000    1.1159408   -7.4394655    109.17176  0.025341633  0.026160009            3 
  360000    1.1014234   -7.4715232    109.23553  0.025286003  0.026140392            2 
  361000    1.0941638   -7.4667917     109.8414  0.025355817  0.026121451            3 
  362000    1.1021154    -7.502647    109.85017  0.025287792  0.026103146            5 
  363000    1.0976781   -7.4559483    110.47815  0.025362294  0.026084859            1 
  364000     1.110667   -7.4065646    111.01238  0.025414923  0.026067587            2 
  365000     1.095629   -7.4527412    110.87244  0.025313341  0.026049928            3 
  366000     1.095255   -7.5001451     111.0693  0.025289003  0.026031552            4 
  367000    1.1050803   -7.4907029    110.88884  0.025179118  0.026012812            6 
  368000    1.0853452   -7.4895021    111.23585  0.025189277  0.025994164            2 
  369000    1.0995268   -7.4532218    111.54521  0.025190878  0.025975626            3 
  370000    1.1270475   -7.4488577    111.99992  0.025225207  0.025957467            3 
  371000    1.0962402    -7.431197     112.3631  0.025238792  0.025939604            2 
  372000    1.1029471   -7.4827801    112.30926  0.025158884  0.025920576            2 
  373000    1.1260667   -7.5011985    111.81437  0.024980868  0.025900835            3 
  374000    1.0842317   -7.5376938    111.88982  0.024930887  0.025880082            3 
  375000    1.0952233     -7.47122    112.38123  0.024973606  0.025859545            3 
  376000    1.1362202   -7.4761006    112.65699  0.024968305  0.025839468            4 
  377000    1.0758067   -7.4834103    112.63361  0.024896908   0.02581864            2 
  378000     1.098737   -7.4404944    113.58644  0.025041103  0.025797837            3 
  379000    1.1003029   -7.5222836    113.18561  0.024886897  0.025777433            2 
  380000    1.0876812   -7.5015025    113.19677  0.024823854  0.025756113            3 
  381000     1.112165    -7.477497    113.46942  0.024818333  0.025735137            3 
  382000    1.0930013   -7.5006434    113.90775  0.024848986  0.025714681            1 
  383000    1.1023853   -7.4845424    114.11804   0.02482986  0.025694082            2 
  384000    1.1200753   -7.4392844    115.00437  0.024957545  0.025674755            2 
  385000    1.0973467   -7.4154677    115.19615  0.024934231  0.025655719            2 
  386000    1.1057484    -7.464187    115.25779  0.024882942  0.025636308            2 
  387000    1.0989141   -7.4970652    115.15927  0.024797432  0.025616853            2 
  388000    1.1073366   -7.5096849    115.66664   0.02484249  0.025597262            3 
  389000    1.1084485   -7.5085043    116.00146  0.024850357  0.025577317            4 
  390000    1.1090994   -7.4961704    116.72379   0.02494098  0.025558221            2 
  391000     1.102746   -7.5109427    116.22277  0.024770411   0.02553951            1 
  392000    1.1277109   -7.4737152    117.27279   0.02493044  0.025521607            2 
  393000    1.0881309   -7.4628234    117.38491  0.024890777  0.025503896            3 
  394000    1.1003979    -7.528672    117.57193   0.02486716  0.025485944            2 
  395000    1.1045102   -7.5022038    117.92409  0.024878501  0.025468827            3 
  396000     1.107745   -7.5195672    118.07196  0.024846792   0.02545114            3 
  397000    1.0895887   -7.4767103    118.27426  0.024826672  0.025433688            3 
  398000    1.1160931   -7.4991979    118.61701  0.024836058  0.025416373            8 
  399000    1.1065211   -7.5040298    118.80952  0.024814019  0.025399252            2 
  400000    1.0936555    -7.516645    118.87612  0.024765858  0.025381921            3 
  401000    1.0767324   -7.4370624    119.60057  0.024854649  0.025365183            2 
  402000    1.1245501   -7.4596619    119.34168  0.024739153  0.025348727            4 
  403000    1.0890778   -7.5076712    119.69112  0.024750026  0.025332196            3 
  404000    1.0853659   -7.5229646     119.5877   0.02466743  0.025314487            3 
  405000    1.1086862   -7.4983214    120.14781  0.024721772  0.025297027            3 
  406000     1.058352   -7.5212183    120.03001  0.024636701  0.025279567            4 
  407000     1.076007   -7.5110569    120.24782  0.024620766  0.025262041            3 
  408000    1.1144933   -7.5078428    120.53862  0.024619815  0.025244655            5 
  409000    1.0966172   -7.4764665    121.46598   0.02474857  0.025227613            2 
  410000    1.1123181   -7.5024504    121.29151  0.024652745  0.025211216            3 
  411000    1.0661394   -7.5458331     121.2722  0.024588848  0.025194404            4 
  412000    1.0640152   -7.5425578    121.80383  0.024636697  0.025177378            4 
  413000    1.0844837    -7.544493    121.64435  0.024544866  0.025160306            1 
  414000    1.0796806   -7.5202624    122.15449  0.024588262  0.025143352            1 
  415000    1.0931667   -7.4898585    122.41828  0.024581984  0.025126726            2 
  416000    1.0969948   -7.5387353    122.57655  0.024554597  0.025110319            4 
  417000    1.0897054   -7.5172801    122.67998  0.024516382  0.025093218            3 
  418000     1.085687   -7.5618939    122.86693  0.024495003  0.025075839            2 
  419000    1.0784892    -7.517503    122.89246  0.024441619  0.025058242            5 
  420000    1.0823088   -7.5543468    122.83589  0.024372201  0.025040912            3 
  421000    1.0805599   -7.5525928    123.18972  0.024384346  0.025023235            2 
  422000    1.1013394   -7.5329787    123.45409   0.02437877   0.02500545            2 
  423000     1.091182   -7.5306964     123.4043  0.024311328  0.024987239            3 
  424000     1.112701    -7.544412    124.12391  0.024395422  0.024968942            4 
  425000    1.0756235   -7.4704895    124.62517  0.024436307  0.024950802            4 
  426000     1.081291   -7.5465817    124.69064  0.024391753  0.024933585            3 
  427000    1.1056006   -7.5494899    124.92113  0.024379612   0.02491602            3 
  428000    1.0793726   -7.5331923    125.05723  0.024349149  0.024898504            5 
  429000    1.0902641   -7.5236799    125.01752  0.024284677  0.024881027            3 
  430000    1.1073357   -7.5179099    125.74853   0.02436987  0.024863978            2 
  431000     1.082333   -7.5060083     125.8171  0.024326585  0.024846166            4 
  432000     1.090686    -7.517049    125.90529  0.024287287  0.024829005            3 
  433000    1.0759737   -7.5393902    126.42429   0.02433108   0.02481217            5 
  434000    1.0773137   -7.5515426    126.29163  0.024249546   0.02479522            4 
  435000    1.0960799   -7.5332227    126.81112  0.024293317  0.024778352            3 
  436000    1.0771417   -7.5293792    126.56337  0.024190246   0.02476133            1 
  437000    1.0616206    -7.516662    127.23647  0.024263248  0.024743995            3 
  438000    1.0735475   -7.5229466    127.08502  0.024179038  0.024726831            2 
  439000    1.0738092   -7.5652461    127.15891  0.024137986  0.024709314            1 
  440000    1.0621943   -7.5383648    126.78404  0.024012129  0.024690759            4 
  441000    1.0711003   -7.5174579    127.56582  0.024105408  0.024672194            7 
  442000    1.0909401    -7.591025     127.3492  0.024010029  0.024653556            3 
  443000     1.065423   -7.5648861    127.48314  0.023981027  0.024634939            3 
  444000    1.0876679   -7.5187269    128.16355   0.02405472  0.024616249            3 
  445000    1.0731274   -7.5661838    127.80504  0.023933528  0.024597137            4 
  446000    1.0737488    -7.565868    128.18712  0.023951256  0.024577929            3 
  447000    1.0905191   -7.5792871    128.28323   0.02391559  0.024559279            2 
  448000    1.0771076   -7.5544026    128.65572  0.023931495  0.024540665            2 
  449000    1.0706808   -7.5701019    128.76551  0.023898573  0.024521933            4 
  450000    1.0605742   -7.5401957    128.74034  0.023840805  0.024503345            2 
  451000    1.0849996   -7.5314299    129.25643  0.023883302    0.0244843            4 
  452000    1.0837831   -7.5299706    129.58765  0.023891529  0.024465222            4 
  453000    1.0648688   -7.5846113    129.29726  0.023785368  0.024446742            3 
  454000    1.0708335   -7.5617637    129.05334  0.023688205  0.024426771            2 
  455000    1.0539766   -7.5617169    129.66114  0.023747462  0.024407478            2 
  456000    1.0780031    -7.555799    130.27339  0.023807271  0.024388692            3 
  457000    1.0771362   -7.6201183    129.97221  0.023700258  0.024369144            5 
  458000    1.0791152   -7.5593609    130.39365  0.023725192  0.024349488            1 
  459000    1.0697095   -7.5414726    130.37719  0.023670514   0.02433004            1 
  460000    1.0631074   -7.5661254    130.62139  0.023663294  0.024311194            3 
  461000    1.0617862   -7.5265906      130.874  0.023657628  0.024291564            2 
  462000    1.0585957   -7.5384517    131.30604   0.02368435  0.024272457            4 
  463000    1.0779171   -7.5760803     131.1441  0.023604049  0.024253138            2 
  464000    1.0825638   -7.5433691     131.3667  0.023593157  0.024233044            4 
  465000    1.0592727   -7.5935932    131.13566  0.023501013  0.024213363            3 
  466000    1.0634516   -7.5623854    131.64887  0.023542358  0.024193375            5 
  467000     1.063583   -7.5935528    131.63221  0.023488974   0.02417372            5 
  468000    1.0551791   -7.5876189     132.2169  0.023542895  0.024154255            2 
  469000    1.0635468   -7.5782386    132.56119  0.023553871  0.024134567            4 
  470000    1.0556953   -7.5389301    132.69815  0.023528041  0.024115335            4 
  471000     1.061938   -7.6049031    132.38984  0.023423539  0.024095918            3 
  472000    1.0499948   -7.5777648    132.64714  0.023419339  0.024076098            2 
  473000    1.0543614   -7.5631338    132.89662   0.02341378  0.024056319            1 
  474000    1.0641459   -7.5919828    132.95998  0.023375524  0.024036676            4 
  475000    1.0661486   -7.5881659    133.19672  0.023367845  0.024017274            2 
  476000    1.0663732   -7.5738169     133.6336  0.023395239   0.02399777            5 
  477000    1.0822757   -7.6291928     133.3003  0.023287963   0.02397791            4 
  478000      1.07685   -7.5682374    133.52169   0.02327784  0.023958294            3 
  479000    1.0609793   -7.5844041     134.3324  0.023370285  0.023938809            2 
  480000    1.0746533   -7.5924874    134.31247  0.023318137  0.023919442            3 
  481000    1.0703875     -7.59778    134.49056  0.023300513  0.023899924            6 
  482000    1.0691948   -7.6150039    134.38207  0.023233415  0.023880177            5 
  483000    1.0611992   -7.6204292    134.43545  0.023194522  0.023860528            3 
  484000    1.0726968   -7.5992108    134.94396  0.023234152  0.023840626            5 
  485000     1.071891   -7.5983368    134.82747  0.023166233  0.023820689            2 
  486000    1.0465448   -7.5712374     135.2253   0.02318678  0.023801434            2 
  487000     1.031708    -7.641158    135.51822  0.023189292  0.023782044            3 
  488000    1.0542253   -7.6287373    135.74949  0.023181265  0.023762339            1 
  489000    1.0630311   -7.6298778     135.5122  0.023093422  0.023742988            6 
  490000    1.0452304   -7.6073363    136.09651  0.023145665  0.023723035            1 
  491000    1.0568539   -7.6102154    136.13917  0.023105765  0.023703219            2 
  492000    1.0467071   -7.5642851    136.57612  0.023132812  0.023683926            3 
  493000    1.0460271   -7.5692817    136.55297  0.023081976  0.023664878            2 
  494000    1.0746757   -7.5654352    136.98867   0.02310875  0.023645728            8 
  495000     1.067492   -7.6044506    136.83847  0.023036779  0.023626577            2 
  496000    1.0341877    -7.618089    136.54829  0.022941581  0.023607103            4 
  497000    1.0480485   -7.5746317    137.36104  0.023031697   0.02358782            2 
  498000    1.0363155   -7.6814603    136.69608  0.022874177  0.023568886            4 
  499000     1.043135   -7.6508976    138.44496    0.0231204  0.023549624            4 
  500000    1.0815662   -7.6232108    137.98737  0.022997895  0.023530334            2 
  501000    1.0475652    -7.643284    137.60578   0.02288852  0.023511091            2 
  502000    1.0513687   -7.5787406    138.29244  0.022956913  0.023491748            2 
  503000    1.0425627   -7.6000493    138.21892  0.022899093  0.023472449            5 
  504000    1.0618101   -7.6270124    138.27667  0.022863206  0.023452966            2 
  505000    1.0653596   -7.5979338     138.8868  0.022918614  0.023433751            2 
  506000    1.0454693   -7.5892269    139.46257  0.022968144  0.023414757            3 
  507000    1.0484935   -7.6481374    138.75033  0.022805775   0.02339502            4 
  508000    1.0447089   -7.6323607    138.44758  0.022711216  0.023375133            3 
  509000    1.0493274   -7.6653102    139.03582  0.022762905  0.023355443            4 
  510000    1.0680783     -7.62057    139.75742  0.022836179  0.023336333            5 
  511000    1.0578402   -7.6064739    139.38162  0.022730205  0.023317131            2 
  512000    1.0531526   -7.6226184    139.56185  0.022715146  0.023297893            3 
  513000    1.0501885   -7.6464708    139.64732  0.022684749  0.023278173            3 
  514000    1.0513656   -7.6154404    140.06667  0.022708605  0.023258373            2 
  515000     1.050794   -7.6265599    139.98996  0.022652097  0.023238874            3 
  516000    1.0412808   -7.6280297     140.2781  0.022654732  0.023219037            1 
  517000    1.0559812   -7.6110985    140.36082  0.022624246  0.023199343            1 
  518000    1.0301555   -7.6161289    140.78996  0.022649607  0.023179996            4 
  519000    1.0825678   -7.6015453     141.0119  0.022641602  0.023160696            4 
  520000    1.0725903   -7.5638804     141.6109  0.022694054   0.02314189            3 
  521000    1.0386274   -7.6077316    141.51921   0.02263583  0.023122934            3 
  522000    1.0307724   -7.6183443    141.36549  0.022567926  0.023104096            2 
  523000    1.0479797   -7.6254193    141.73277  0.022583297   0.02308548            5 
  524000     1.064431   -7.6165724     141.8704  0.022562087  0.023066673            2 
  525000    1.0360302   -7.5987695    142.41369  0.022605348  0.023047953            3 
  526000     1.046954   -7.6112061    142.23169  0.022533537  0.023029255            3 
  527000    1.0490988   -7.6790858    142.15329  0.022478383   0.02301089            3 
  528000     1.037771   -7.6814305    142.41021  0.022476359  0.022992274            4 
  529000    1.0378804   -7.6088602     142.9892  0.022525079  0.022973712            7 
  530000    1.0598039   -7.6347761    143.18156  0.022512825  0.022955553            1 
  531000     1.045805   -7.6479412    143.48422  0.022517924  0.022937055            2 
  532000    1.0258869   -7.6319667    143.28338  0.022444139   0.02291801            2 
  533000    1.0323106   -7.6643938    142.89952  0.022342014  0.022898457            2 
  534000    1.0387978   -7.6864881    143.39761  0.022377905  0.022879045            2 
  535000     1.088271   -7.6850021    143.48827  0.022350198   0.02286009            3 
  536000    1.0421007    -7.674414    143.75382  0.022349786  0.022841113            3 
  537000    1.0546415   -7.6303136    144.57011  0.022434839  0.022822873            7 
  538000    1.0289022    -7.679459    144.46925  0.022377518  0.022804723            3 
  539000    1.0282478   -7.6436225    144.68294  0.022369039  0.022786677            2 
  540000    1.0243176   -7.5983605    145.28527  0.022420566  0.022768739            1 
  541000    1.0519301   -7.6628345    144.78007  0.022301304  0.022750844            4 
  542000    1.0537091    -7.615137    145.16052  0.022318654  0.022732536            3 
  543000    1.0471023    -7.666419    145.14092  0.022274543  0.022714228            1 
  544000    1.0312764   -7.6509731    145.83352  0.022339693  0.022695929            3 
  545000    1.0712303   -7.6649527    145.49883  0.022247528  0.022677869            2 
  546000    1.0341501   -7.6605638    145.64632  0.022229291  0.022659414            4 
  547000   0.99274102   -7.7277158    145.48739   0.02216444  0.022640737            8 
  548000    1.0163303   -7.6871018      145.556  0.022134429  0.022622065            4 
  549000    1.0437024   -7.6449286    146.34899  0.022214479  0.022603468            4 
  550000    1.0354106   -7.7369308    145.89154  0.022104779  0.022584949            7 
  551000    1.0075157   -7.7099064    146.17537  0.022107588  0.022566341            2 
  552000    1.0320072   -7.6620763    146.85687  0.022170422  0.022547772            4 
  553000    1.0367913   -7.6799217    146.66908  0.022102031  0.022529409            3 
  554000    1.0390089   -7.6795194    147.03563  0.022117272  0.022510669            3 
  555000      1.00252   -7.6295981    146.96923  0.022067451  0.022492457            3 
  556000    1.0430635   -7.6575363    147.46916  0.022102692  0.022474063            5 
  557000    1.0412257   -7.6795132    147.30445  0.022038367  0.022455484            1 
  558000    1.0437112   -7.6575552    147.24662  0.021990236  0.022436799            2 
  559000    1.0519437   -7.6492351    147.27306  0.021954838  0.022418061            2 
  560000    1.0135306   -7.6823397    147.74079  0.021985236  0.022399226            3 
  561000    1.0453514   -7.6881931    148.36648   0.02203899  0.022380895            6 
  562000    1.0327806   -7.6829823    148.00331  0.021945924  0.022362685            2 
  563000    1.0209746   -7.6841665    148.41967  0.021968572  0.022344504            3 
  564000     1.039425   -7.6710026    148.73924  0.021976838  0.022326719            2 
  565000    1.0334524    -7.705095    148.96661  0.021971476  0.022308769            2 
  566000    1.0399255   -7.7206951    148.65099  0.021886189  0.022290585            2 
  567000     1.032366   -7.6771259     149.0739  0.021909744  0.022272452            4 
  568000     1.038517   -7.6620448    149.48672  0.021931737  0.022254225            2 
  569000    1.0146564   -7.7103577    149.41701  0.021882983  0.022236186            2 
  570000    1.0092217   -7.6373488    149.55249  0.021864398  0.022218183            7 
  571000     1.016084   -7.6787616    149.89323  0.021875836  0.022200262            2 
  572000    1.0387758   -7.7261314    149.22726  0.021740568  0.022182219            7 
  573000    1.0231886   -7.7137343    149.49149  0.021741054  0.022163979            4 
  574000    1.0286378   -7.7172669    149.57686  0.021715572  0.022145539            2 
  575000    1.0185308   -7.7069762    149.97054  0.021734861  0.022127269            7 
  576000    1.0337643   -7.6745053    150.31455  0.021746897  0.022108733            2 
  577000    1.0210776   -7.6982474    150.11622  0.021680563  0.022090068            6 
  578000    1.0415996   -7.7061943    150.01553  0.021628536  0.022071112            5 
  579000   0.99298483   -7.6714797    150.56824  0.021670731  0.022052221            7 
  580000    1.0451891   -7.7188559    150.79448  0.021665873  0.022033764            3 
  581000    1.0133459   -7.7011354    151.25295  0.021694341  0.022015295            2 
  582000      1.01744   -7.7267812    151.02464  0.021624376  0.021996718            6 
  583000    1.0247854   -7.7145837     150.9935  0.021582833  0.021978546            1 
  584000    1.0399206   -7.7166051    150.95824  0.021540845  0.021959613            4 
  585000    1.0375398   -7.7040657    151.14851  0.021531127  0.021940914            2 
  586000    1.0349735    -7.687762    151.54923  0.021551369  0.021922168            3 
  587000    1.0259817   -7.7119258    151.54072  0.021513447  0.021903522            3 
  588000    1.0084179   -7.7016195    152.12214   0.02155926  0.021884841            4 
  589000    1.0060478   -7.7185967    151.88423  0.021488997  0.021866378            2 
  590000    1.0140204   -7.6814684    152.32544  0.021514892  0.021847794            3 
  591000    1.0259942   -7.7448005     151.7669  0.021399733  0.021829107            6 
  592000    1.0498757    -7.739944    151.44289  0.021317975  0.021810218            6 
  593000    1.0214879   -7.7144982    152.35194  0.021409773   0.02179138            3 
  594000    1.0170299   -7.7259918    152.45308  0.021387918  0.021772685            3 
  595000    1.0283927   -7.6935858    152.43651  0.021349652  0.021754234            7 
  596000    1.0392148   -7.6945038    153.00413  0.021393195  0.021735828            3 
  597000    1.0222935   -7.6811837    152.71681  0.021317255  0.021717303            2 
  598000    1.0099505   -7.7070086    153.00678  0.021322015  0.021698964            2 
  599000    1.0044369   -7.6985828    152.66648  0.021239077  0.021680261            3 
  600000    1.0039093   -7.7531213    153.00619  0.021250859  0.021661409            3 
  601000    1.0168377   -7.7263484    152.77023  0.021182783  0.021642328            1 
  602000    1.0077678   -7.6882432    153.11904  0.021195881  0.021623379            5 
  603000    1.0214874   -7.6915814    153.45284   0.02120686  0.021604698            4 
  604000    1.0137716   -7.6566835    154.17139  0.021270888  0.021586252            5 
  605000   0.98289256   -7.7237075    153.67257  0.021167021  0.021567802            3 
  606000    1.0070235   -7.6801732    153.96442  0.021172225  0.021549367            3 
  607000    1.0050088   -7.7387448    153.70619  0.021101894  0.021530957           11 
  608000    1.0196241   -7.7160908    154.59225   0.02118863  0.021512241            2 
  609000    1.0207616    -7.732178     154.5375  0.021146347  0.021493868            3 
  610000    1.0104686   -7.7278827    154.59694  0.021119801  0.021475631            2 
  611000    1.0038815   -7.7203186    154.90075   0.02112667   0.02145719            3 
  612000    1.0142391   -7.7434591      154.663  0.021059776  0.021438478            2 
  613000    1.0001524   -7.7000627    154.77831  0.021041097  0.021419813            8 
  614000      1.02365   -7.7162467    154.76768  0.021005386  0.021401235            6 
  615000    1.0231256   -7.7093625    155.59567  0.021083424   0.02138272            2 
  616000    1.0063177   -7.7197408    155.19465  0.020994947  0.021364478            5 
  617000    1.0221463   -7.7477119    155.56074  0.021010364  0.021346102            4 
  618000    0.9987842   -7.7637166    155.82492   0.02101199   0.02132803            2 
  619000    1.0029643   -7.7034453    156.41358  0.021057294  0.021309915            3 
  620000   0.99802027    -7.711134    156.41333  0.021023296  0.021291803            4 
  621000    1.0121857   -7.7483382    156.55872  0.021008954  0.021273766           10 
  622000    1.0094373   -7.7754729    156.38651  0.020952105  0.021255822            4 
  623000   0.98104212    -7.790857     156.5868  0.020945265  0.021237728            6 
  624000    1.0224376   -7.7590255    156.73518  0.020931515  0.021219691            7 
  625000    1.0073098   -7.7775548    157.07672  0.020943563  0.021201849            3 
  626000    1.0082523   -7.7353429    157.09237   0.02091219  0.021183954            3 
  627000    1.0108362     -7.73037    157.72717  0.020963207  0.021166416            6 
  628000    1.0140203   -7.7592669    157.17541  0.020856609  0.021149235            3 
  629000    1.0024969   -7.7537175    157.29566  0.020839382  0.021131735            2 
  630000    1.0164578    -7.741575    157.63883  0.020851697  0.021114004            6 
  631000   0.99583166   -7.6986392    157.77384  0.020836482  0.021096348            9 
  632000   0.99032112   -7.7512009    157.42123  0.020757019  0.021078486            3 
  633000    1.0022027   -7.7674385     157.7572  0.020768457  0.021060611            2 
  634000    1.0263654   -7.7684758    157.75583  0.020735519  0.021042623            4 
  635000   0.99852982   -7.7876687    157.90238  0.020722098   0.02102489            2 
  636000     1.028666   -7.7725351    157.92403  0.020692352  0.021006873            1 
  637000    0.9999738    -7.798148    158.25992  0.020703809  0.020988719            6 
  638000    1.0193148   -7.7478684    158.17574  0.020660362  0.020970792            4 
  639000    1.0009803   -7.7719576    158.30744  0.020645206  0.020953195            8 
  640000    1.0031895   -7.7399631    159.09832  0.020715927  0.020935745            4 
  641000   0.99131727   -7.7126855    159.96239  0.020795942  0.020918568            2 
  642000    1.0064337   -7.7343237    159.20133  0.020664763  0.020901162            2 
  643000   0.99294314   -7.8129941    159.02461  0.020609721  0.020883448            4 
  644000    1.0042431   -7.7744481    159.09256  0.020586511  0.020865936            3 
  645000    1.0207333   -7.7727873     159.5922  0.020619147  0.020848575            9 
  646000   0.99929298   -7.7864347    159.87334  0.020623495  0.020831322            2 
  647000    1.0078451   -7.8054535    159.27165  0.020514122  0.020813698            4 
  648000   0.99342616   -7.7692342    160.08626  0.020587225  0.020796398            2 
  649000    1.0005176   -7.7781565    160.11908  0.020559718  0.020779225            3 
  650000   0.99170633   -7.7530773    160.84056  0.020620584  0.020761899            2 
  651000   0.98634902   -7.7658197    160.38924  0.020531137  0.020744752            5 
  652000   0.98093528   -7.7563387    160.47861   0.02051107  0.020727331            3 
  653000   0.98865977   -7.8175572    160.16828  0.020440056  0.020709815            6 
  654000   0.99710797   -7.7708601    160.34854  0.020431771  0.020692214            2 
  655000   0.99282669   -7.7196138    161.14034  0.020501316  0.020674811            2 
  656000   0.99916934   -7.7434291    161.06285   0.02046022  0.020657545            1 
  657000   0.99348974   -7.7495302    161.74837  0.020516028  0.020640329            3 
  658000    1.0089457   -7.7459359    161.13612   0.02040731  0.020623019            5 
  659000   0.99365331   -7.7671897    160.84794  0.020339901  0.020605408            3 
  660000    1.0107582   -7.7937482    160.84902  0.020309219  0.020587671            6 
  661000    1.0004857   -7.7632396    161.57974  0.020370618  0.020569907            4 
  662000   0.99760976   -7.7821704    161.77563  0.020364505   0.02055252            8 
  663000   0.99397045   -7.8275764    161.41131  0.020287997  0.020534943            5 
  664000   0.97726336   -7.8096223    161.50459  0.020269151  0.020517347            3 
  665000   0.97681545   -7.8111228    161.64271  0.020255978  0.020499741            1 
  666000   0.99230083   -7.7698202    161.97746   0.02026745  0.020482292            5 
  667000   0.99075572   -7.7758932    162.16446  0.020260427  0.020464999            4 
  668000    0.9802574   -7.7634539    162.39249  0.020258544  0.020447549            3 
  669000   0.99331583    -7.795256    162.68253  0.020264391  0.020430314            2 
  670000   0.98283844   -7.7633112    162.61704     0.020226  0.020412927            5 
  671000   0.95960054   -7.7771239    162.39462  0.020168234  0.020395439            2 
  672000   0.98122653   -7.7605484    162.97439  0.020210118  0.020377841            3 
  673000   0.97253942   -7.8027376    162.23175  0.020088132  0.020360197            4 
  674000   0.98134526   -7.8028334    162.78147  0.020126294  0.020342574            4 
  675000   0.98918445   -7.8315907    162.70132  0.020086583  0.020325096            2 
  676000    1.0047821   -7.8028614     163.4284  0.020146499  0.020307817            7 
  677000    0.9750659    -7.822068    163.32157  0.020103591  0.020290746            7 
  678000   0.98115201   -7.7925703    164.22455  0.020184926  0.020274036           19 
  679000   0.99313763   -7.8059828    163.96663  0.020123544  0.020257421           34 
  680000   0.99514134   -7.8473153    163.35748  0.020019298  0.020240741            5 
  681000   0.99718793   -7.7924911    164.15319  0.020087272  0.020223859           22 
  682000   0.95094651   -7.8190817    163.98032  0.020036697  0.020207082            3 
  683000   0.99255308   -7.8097132    164.33121  0.020050172  0.020190258            3 
  684000   0.98663359   -7.8229041    164.52377  0.020044319  0.020173302            5 
  685000   0.94370666   -7.8567064    164.41376  0.020001674  0.020156565            5 
  686000   0.98255649   -7.8433456    164.78511  0.020017628  0.020139689            5 
  687000   0.98113421   -7.8123059    164.37532  0.019938783  0.020122989            6 
  688000   0.96237424   -7.8434451    164.66985  0.019945475  0.020105969            5 
  689000   0.97452938   -7.8317941    165.06084  0.019963817   0.02008919            5 
  690000    1.0002018   -7.8431885    165.45741  0.019982779  0.020072519            3 
  691000   0.98018383   -7.8500934    165.41538  0.019948791   0.02005577            2 
  692000   0.99474564   -7.8126384    165.69075  0.019953125  0.020039273            3 
  693000   0.98842856   -7.8550731    165.56855  0.019909638  0.020022726            4 
  694000   0.99194251   -7.8090183    165.68499  0.019894932  0.020006251            4 
  695000   0.99572017   -7.8352677    165.99625  0.019903627  0.019989982            4 
  696000   0.98574371   -7.8257305    166.54977  0.019941304  0.019973699            3 
  697000   0.97959104   -7.8522974    165.90946  0.019836138  0.019957637            5 
  698000   0.98485998    -7.848175    165.95513  0.019813173  0.019941232            5 
  699000   0.97446837   -7.8336408    166.97254  0.019906121  0.019924908            2 
  700000   0.98168921   -7.8075636    166.68747  0.019843746  0.019908875            3 
  701000   0.98818044   -7.8813358    166.53341  0.019797124  0.019892767            3 
  702000   0.96727287   -7.8253821    167.30815  0.019860891  0.019876855            2 
  703000   0.98027172    -7.815029    167.67064  0.019875609  0.019861189            2 
  704000   0.95707684   -7.8500251    167.84769  0.019868335  0.019845631            3 
  705000    1.0039321    -7.859579    168.04952   0.01986401  0.019829865           11 
  706000   0.96006628   -7.8577637    167.27331  0.019744253   0.01981397            5 
  707000    0.9701981   -7.8214204     168.4078  0.019850048   0.01979832            2 
  708000   0.97336766   -7.7974114    168.43045  0.019824676  0.019782863            8 
  709000   0.98050899   -7.8692979    168.33715  0.019785749  0.019767442            4 
  710000   0.97267243   -7.8289411    168.63867  0.019793271  0.019752077            3 
  711000   0.95226289    -7.859495     168.4795  0.019746777  0.019736722            4 
  712000   0.97404965   -7.8489328     168.7188  0.019747051  0.019721479            3 
  713000   0.95980679   -7.8396243    169.15672  0.019770537  0.019706061            5 
  714000   0.98606589   -7.8230063    168.97977  0.019722195  0.019690907            4 
  715000   0.94805044   -7.8473649    168.83342  0.019677555  0.019675914            5 
  716000   0.96168185   -7.8094102    169.68154  0.019748783  0.019660688            4 
  717000   0.97556874   -7.8650497    169.62332  0.019714472  0.019645221            3 
  718000   0.97356225    -7.841621    169.57382   0.01968127  0.019630065            2 
  719000   0.95010168   -7.8522425    169.91765  0.019693748   0.01961477            4 
  720000   0.97272015   -7.8280277    169.84558  0.019658053  0.019599569            3 
  721000   0.98263359   -7.8432543    170.10499  0.019660771  0.019584251            1 
  722000   0.96930242   -7.8491599    169.98079  0.019619205  0.019568971            2 
  723000   0.96151841   -7.8455792    170.24087  0.019622046  0.019553657            3 
  724000   0.97212881   -7.8661683    170.35902  0.019608542  0.019538284            2 
  725000    0.9539515   -7.8793393    170.28926  0.019573479  0.019523065            2 
  726000   0.97530289   -7.8613093    170.60829  0.019583137  0.019507813            5 
  727000   0.96841571   -7.8744525    170.24656  0.019514737  0.019492595            3 
  728000   0.96362023   -7.8807996    170.62955   0.01953177  0.019477368            2 
  729000   0.97115264   -7.8761491    170.75172  0.019518944  0.019462021            4 
  730000   0.96537169   -7.8453199    171.26442  0.019550733   0.01944696            6 
  731000   0.94613303   -7.8362942    171.36913  0.019535924  0.019431986            6 
  732000   0.93618525   -7.8723316     171.2274  0.019493101  0.019417095            3 
  733000   0.96503746    -7.875287    171.11171  0.019453355  0.019402247            2 
  734000   0.95103775   -7.8320702    172.13772  0.019543338  0.019387513            2 
  735000   0.95012798   -7.8569089    171.82098  0.019480837  0.019372666            5 
  736000   0.96591352   -7.8207782    172.35393  0.019514711  0.019357903            2 
  737000   0.96955914   -7.8463868    171.92915  0.019440202  0.019343125           10 
  738000   0.98236491   -7.8652548    171.59093   0.01937567  0.019328069            2 
  739000   0.97531396   -7.9113746    172.08766  0.019405465  0.019313188            2 
  740000   0.96122234   -7.8850034    172.20647  0.019392621  0.019298472            7 
  741000   0.97424654   -7.8636786    173.01063  0.019456886  0.019283907            3 
  742000    0.9506837   -7.8705574    172.92157  0.019420661  0.019269353            9 
  743000   0.92672699    -7.881039    172.60449  0.019358961  0.019254742            2 
  744000      0.96126   -7.8383045     172.9233  0.019368649  0.019240116            5 
  745000   0.96151177   -7.8226878    173.12623   0.01936535  0.019225668            4 
  746000   0.96063261   -7.8837974    173.05904  0.019331886  0.019211197            7 
  747000   0.94965305   -7.8540631    172.99255  0.019298589  0.019196722            3 
  748000    0.9431178    -7.888832    173.19307  0.019295128  0.019181851            3 
  749000   0.93676395   -7.8577763    173.11696  0.019260899  0.019167041            3 
  750000   0.95267889   -7.8905077    173.67559  0.019297288  0.019152223            4 
  751000   0.97757279   -7.8396341    173.96416  0.019303613  0.019137524            2 
  752000   0.96622708   -7.8980663    173.41461  0.019217045   0.01912284            4 
  753000   0.93670974   -7.8782762    173.83032  0.019237529  0.019108245            4 
  754000   0.94091136   -7.9111992    173.92246  0.019222199  0.019093536            4 
  755000   0.93487934   -7.8727419    173.98208  0.019203321  0.019078982            2 
  756000   0.95536309   -7.8742377     174.3124   0.01921433  0.019064414           16 
  757000   0.95356408   -7.8744351    173.89007  0.019142456  0.019049803            3 
  758000   0.94859251   -7.8730271    173.79207  0.019106428  0.019034879            6 
  759000   0.94116842   -7.9126959    174.58773  0.019168613  0.019020105            2 
  760000   0.94059373   -7.8903592    174.50831  0.019134684  0.019005567            3 
  761000   0.93994938   -7.8624172    174.95587  0.019158549  0.018991162            2 
  762000   0.95501578   -7.8949984    174.69872  0.019105284  0.018976622            4 
  763000   0.96710315   -7.8846364    174.94463  0.019107102   0.01896196            3 
  764000   0.95458983   -7.8975822     175.5053  0.019143248  0.018947408            4 
  765000   0.95901626   -7.9097866    175.00779   0.01906403  0.018932799            2 
  766000    0.9566264   -7.9048641    174.75734  0.019011895  0.018918131            4 
  767000   0.94312408   -7.9089559    174.65221  0.018975686  0.018903342            3 
  768000   0.96402172   -7.9023774    175.23107  0.019013788  0.018888581            6 
  769000   0.95008136   -7.9308197    174.84744   0.01894749   0.01887375            6 
  770000   0.95216624   -7.9346741    175.17291  0.018958107   0.01885915            9 
  771000   0.94356663   -7.9800616    175.44409  0.018962829  0.018844591            4 
  772000    0.9446253   -7.9207723    176.07335   0.01900619  0.018830163            2 
  773000   0.96233744    -7.932405    175.81023  0.018953237  0.018815924            7 
  774000   0.93359315   -7.9130565    176.52444  0.019005646  0.018801752            5 
  775000   0.93807335   -7.9540717    176.16799  0.018942794  0.018787323            3 
  776000    0.9546231   -7.8952181    175.98257  0.018898472  0.018773006            4 
  777000   0.92690629   -7.8959095    177.09684  0.018993655  0.018758938            6 
  778000   0.96254732   -7.9366158    176.87094  0.018945045  0.018744799            4 
  779000   0.94260943   -7.8879241    177.36533  0.018973612  0.018730612            3 
  780000   0.93997704   -7.9315195    176.99857  0.018910103  0.018716454            4 
  781000   0.95307346   -7.9091402     177.1824  0.018905506  0.018702176            5 
  782000   0.94745134   -7.9649892    176.86726  0.018847748  0.018687953           11 
  783000   0.97292583   -7.9629994    176.65305  0.018800878  0.018673528            3 
  784000   0.94372431   -7.9105393    176.45669  0.018756026  0.018659131            3 
  785000   0.93032526   -7.9148204    177.50741  0.018843674  0.018644802            2 
  786000   0.95239552   -7.9205295     177.4428   0.01881285  0.018630534            3 
  787000   0.91783138   -7.9176839    177.72838  0.018819184  0.018616211            4 
  788000   0.93158184   -7.9474067    177.56578  0.018778107   0.01860203            4 
  789000    0.9240596   -7.9607803    177.40712   0.01873755  0.018587634            7 
  790000   0.94601691   -7.9280432     177.8789  0.018763597  0.018573361            9 
  791000   0.93106044   -7.9397384    177.65798  0.018716602  0.018558985            4 
  792000   0.92092146   -7.9290318     177.6479  0.018691909  0.018544596            6 
  793000   0.92348018   -7.9395762    177.70789  0.018674642  0.018530215            5 
  794000   0.92455419   -7.9177464    177.74028  0.018654521  0.018515728            7 
  795000   0.94012269   -7.8920153    178.13777  0.018672723  0.018501322            4 
  796000   0.92816198   -7.9238181    177.57174  0.018590006  0.018486896            4 
  797000   0.94717728   -7.9351452    178.13771  0.018625858  0.018472362            4 
  798000   0.94465882   -7.9370888    178.21637  0.018610732  0.018457817            7 
  799000   0.96430602   -7.9395671     178.1943  0.018585138  0.018443379            3 
  800000   0.91519812   -7.9236863    179.00814  0.018646681  0.018428878            2 
  801000   0.93488111   -7.9216468     177.9642  0.018514794  0.018414293            2 
  802000   0.93783203    -7.936481    178.51802  0.018549254  0.018399826            6 
  803000    0.9150777   -7.9599939    178.75299  0.018550539  0.018385261            7 
  804000   0.94315312   -7.9873372     178.4782  0.018498984  0.018370682            3 
  805000   0.91925141   -7.9304957    178.77932  0.018507176  0.018356061            4 
  806000   0.92842088    -7.980222    178.39094   0.01844406  0.018341508            6 
  807000   0.94747543   -7.9839287    178.50745  0.018433235  0.018326831            6 
  808000   0.91417393   -7.9865973     178.6184  0.018421865  0.018312113            6 
[...]
 1800000   0.52499586   -9.5649087     185.9898 0.0086106389 0.0070683075         3715 
 1801000   0.52513975   -9.5688025    186.17721 0.0086145293 0.0070615065         3758 
 1802000   0.52858953   -9.5738374    186.10668 0.0086064872 0.0070547192         3741 
 1803000   0.52674941   -9.5796344    185.95357 0.0085946373 0.0070479293         3727 
 1804000   0.52454231   -9.5784936    186.08556 0.0085959702 0.0070411531         3744 
 1805000   0.53841261   -9.5826735    185.71434 0.0085740691 0.0070343908         3737 
 1806000    0.5176064   -9.5707686    186.09405 0.0085868424  0.007027633         3745 
 1807000   0.53923854   -9.5834687    185.75165 0.0085663002 0.0070208848         3739 
 1808000   0.54020466   -9.5989043    185.96412 0.0085713553 0.0070141483         3707 
 1809000   0.52927179   -9.5958216    186.07807  0.008571866  0.007007422         3725 
 1810000   0.52580611   -9.5987629    186.05529 0.0085660814 0.0070006969         3729 
 1811000   0.53171869    -9.607696    186.18665  0.008567396 0.0069939805         3750 
 1812000   0.53298455   -9.5822021    186.05167   0.00855646 0.0069872702         3724 
 1813000   0.53468013   -9.6083445     186.1103 0.0085544354 0.0069805725         3782 
 1814000   0.51960019   -9.5889216    186.05718 0.0085472796 0.0069738839         3747 
 1815000   0.53487826   -9.5950481    186.34784 0.0085559154 0.0069672023         3730 
 1816000   0.52685248   -9.5961023    186.11845 0.0085406777 0.0069605325         3732 
 1817000   0.52445822   -9.5850985    186.23854  0.008541485 0.0069538646         3749 
 1818000   0.53917512   -9.5896388    186.12321 0.0085315002 0.0069472099         3759 
 1819000   0.52936703   -9.5720487    185.80353 0.0085121645 0.0069405681         3723 
 1820000   0.51828547   -9.5907259    185.99655 0.0085163254 0.0069339299         3724 
 1821000   0.52029767    -9.603602    186.17265 0.0085197075 0.0069273014         3735 
 1822000     0.534274   -9.5968512    186.05605 0.0085096984 0.0069206766         3747 
 1823000   0.52246948   -9.5940853    186.09488 0.0085068055 0.0069140619         3732 
 1824000   0.52304298    -9.604596    186.32049 0.0085124494 0.0069074589         3747 
 1825000   0.51233347   -9.5771189    185.88137 0.0084877339 0.0069008626         3730 
 1826000   0.53312276    -9.596357    186.18768 0.0084970648 0.0068942708         3733 
 1827000   0.53298144   -9.5780359    186.00854 0.0084842429 0.0068876904         3727 
 1828000   0.51246281   -9.5925969    186.04886 0.0084814394 0.0068811167         3734 
 1829000   0.52480619   -9.5757582    186.17345 0.0084824791 0.0068745556         3736 
 1830000   0.51734335   -9.5957094    185.89646 0.0084652303  0.006867998         3733 
 1831000    0.5167494   -9.5820442     185.9001 0.0084607727 0.0068614497         3727 
 1832000   0.52220504   -9.6037996     186.1316 0.0084666849 0.0068549104         3727 
 1833000   0.52556535   -9.5868724    186.11872 0.0084614805 0.0068483796         3725 
 1834000   0.51922714   -9.6082348    186.00868 0.0084518666 0.0068418573         3745 
 1835000   0.52524106   -9.5983292    185.74375 0.0084352292 0.0068353427         3729 
 1836000   0.52541915   -9.6127117    185.88455 0.0084370256 0.0068288426         3741 
 1837000   0.52438129   -9.5963134    186.03236  0.008439138 0.0068223471         3731 
 1838000   0.51452733   -9.5837201    186.03656 0.0084347372 0.0068158578         3715 
 1839000   0.53055048   -9.6087745    185.79114 0.0084190294 0.0068093816         3722 
 1840000   0.52906345   -9.5951638    185.73023 0.0084116953 0.0068029064         3734 
 1841000   0.50969528   -9.6049235     185.7534 0.0084081751 0.0067964391         3722 
 1842000   0.51379606   -9.5964983    185.71827 0.0084020208 0.0067899851         3750 
 1843000   0.51320009   -9.5937462    186.01644 0.0084109443 0.0067835355         3737 
 1844000   0.52098222   -9.6005974    185.94128 0.0084029863 0.0067770977         3729 
 1845000   0.51126678   -9.5876028    186.03883 0.0084028378 0.0067706676         3714 
 1846000   0.51501588   -9.6027122    185.94046 0.0083938452 0.0067642446         3743 
 1847000   0.53184853    -9.617695    185.87448 0.0083863238 0.0067578338         3752 
 1848000   0.52846549   -9.6126524    185.93083 0.0083843269 0.0067514291         3721 
 1849000    0.5077746   -9.6048925    185.76903 0.0083724998 0.0067450292         3769 
 1850000   0.51398334   -9.5999267    185.60393 0.0083605374 0.0067386441         3744 
 1851000   0.50573798   -9.5921651    185.65404 0.0083582768  0.006732264         3736 
 1852000   0.50424843   -9.6087851    185.91673 0.0083655834 0.0067258902         3738 
 1853000   0.50847891   -9.6157237     185.8982 0.0083602356 0.0067195221         3759 
 1854000   0.51268894   -9.6142789    185.75327 0.0083492119 0.0067131638         3733 
 1855000   0.51668148   -9.6105995    186.00911 0.0083562043 0.0067068184         3707 
 1856000   0.50142585   -9.6252011    185.84456  0.008344314 0.0067004761         3740 
 1857000   0.50772866   -9.6093551    186.05499 0.0083492634 0.0066941435         3723 
 1858000   0.52217854   -9.6032296    185.88301 0.0083370566 0.0066878203         3723 
 1859000   0.51591744   -9.6010879    185.91575 0.0083340392 0.0066815031         3745 
 1860000   0.50876414   -9.6194129    185.61056 0.0083158852  0.006675192         3731 
 1861000    0.5164751   -9.6142433    185.65741 0.0083135147 0.0066688932         3725 
 1862000   0.50550295   -9.6204066    185.89167 0.0083195341  0.006662601         3721 
 1863000   0.49980581   -9.6032721     185.6373 0.0083036904 0.0066563142         3713 
 1864000   0.51205157   -9.6110695    185.83001  0.008307851 0.0066500341         3723 
 1865000    0.5042218   -9.6034954    185.83319 0.0083035386 0.0066437681         3702 
 1866000   0.51107157   -9.6098296    185.76851 0.0082962001 0.0066375013         3732 
 1867000   0.49696216   -9.6073406    185.85774 0.0082957393 0.0066312439         3755 
 1868000   0.51256082   -9.6214898    186.07195 0.0083008544 0.0066250003         3726 
 1869000   0.50774559   -9.6099184    185.75089  0.008282098 0.0066187648         3710 
 1870000   0.50705332   -9.6106429    185.59825 0.0082708665 0.0066125378         3727 
 1871000   0.49259498   -9.6138294    185.74354 0.0082729173 0.0066063168         3714 
 1872000   0.50643277   -9.6084836    185.74221  0.008268439 0.0066001038         3738 
 1873000   0.50546463   -9.6099576    185.47681  0.008252216 0.0065938969         3735 
 1874000   0.51148567   -9.6350491    185.71392 0.0082583567 0.0065876986         3736 
 1875000   0.49664106   -9.6096061    185.69098 0.0082529324 0.0065815098         3745 
 1876000   0.50530865   -9.6357907    185.89057 0.0082573992 0.0065753293         3704 
 1877000   0.51095445   -9.6224489    185.95666 0.0082559339 0.0065691532         3720 
 1878000   0.51159332   -9.6232543    185.87223 0.0082477914  0.006562986         3730 
 1879000   0.50077328   -9.6100457    185.59002 0.0082308859 0.0065568271         3719 
 1880000   0.50007812   -9.6336383    185.56245 0.0082252857 0.0065506722         3737 
 1881000   0.50439196   -9.6296677    185.66659 0.0082255268 0.0065445244         3741 
 1882000   0.50615888   -9.6216218     185.4742 0.0082126374  0.006538389         3718 
 1883000   0.51024352   -9.6224044     185.8027  0.008222814 0.0065322586         3743 
 1884000   0.50353777   -9.6326498    185.60924 0.0082098921 0.0065261367         3737 
 1885000   0.50240699   -9.6292275     185.7132 0.0082101324 0.0065200247         3765 
 1886000   0.49801815    -9.633862    185.72966 0.0082065068 0.0065139164         3734 
 1887000   0.48528813   -9.6173632    185.85806 0.0082078279 0.0065078113         3729 
 1888000   0.50649688   -9.6412406     185.5673 0.0081906471 0.0065017171         3718 
 1889000   0.49411055   -9.6274928    185.88063 0.0082001336 0.0064956369         3729 
 1890000   0.50079853   -9.6371078    185.65901 0.0081860232 0.0064895612         3717 
 1891000   0.49283006   -9.6343594    185.99307 0.0081964161 0.0064834914         3755 
 1892000    0.4962024   -9.6267578    185.64168 0.0081766067 0.0064774275         3747 
 1893000   0.49941271   -9.6364553    185.64069 0.0081722439 0.0064713739         3752 
 1894000   0.49648965   -9.6299002     185.7367 0.0081721534 0.0064653287         3747 
 1895000   0.50810761   -9.6432631    185.63299 0.0081632803 0.0064592926         3718 
 1896000   0.49708238   -9.6251135    185.73129 0.0081632953 0.0064532643         3753 
 1897000    0.5048569   -9.6362033    185.57459 0.0081521081 0.0064472438         3741 
 1898000   0.49351128   -9.6426831    185.76827 0.0081563165 0.0064412316         3768 
 1899000   0.49611386   -9.6299983    185.89785  0.008157708 0.0064352245         3732 
 1900000   0.48780016   -9.6314515    185.74246  0.008146599 0.0064292255         3737 
 1901000   0.49542708   -9.6240915    185.54442 0.0081336324 0.0064232338         3745 
 1902000   0.48489735   -9.6318727    185.62365 0.0081328274 0.0064172458         3734 
 1903000   0.49849808   -9.6310449    185.61847 0.0081283267 0.0064112673         3725 
 1904000   0.49570945   -9.6396189    185.81076 0.0081324739  0.006405302         3738 
 1905000   0.48116121   -9.6462517    185.79825 0.0081276573 0.0063993352         3731 
 1906000    0.5010842   -9.6322726    185.70516 0.0081193232 0.0063933816         3740 
 1907000   0.49009295   -9.6213655    185.59115 0.0081100836  0.006387435         3722 
 1908000   0.49291505   -9.6378067    185.47345  0.008100692 0.0063814953         3742 
 1909000   0.48865493   -9.6511719    185.45839 0.0080957916 0.0063755624         3736 
 1910000   0.48011691   -9.6490256    185.63185 0.0080991208 0.0063696373         3739 
 1911000   0.49559658   -9.6593468    185.62717 0.0080946787 0.0063637211         3746 
 1912000   0.49116416   -9.6302572    185.68642 0.0080930272 0.0063578122         3729 
 1913000   0.49569165   -9.6460289    185.57966 0.0080841461 0.0063519056         3710 
 1914000   0.48619044   -9.6642425    185.58754 0.0080802658  0.006346012         3724 
 1915000   0.48546778   -9.6563214    185.45237  0.008070164 0.0063401241         3738 
 1916000   0.49470071   -9.6511922    185.71604 0.0080774201 0.0063342447         3733 
 1917000   0.48065603   -9.6595176    185.50083 0.0080638512 0.0063283685         3741 
 1918000   0.47845977   -9.6566408    185.48969 0.0080591628 0.0063225003         3730 
 1919000   0.47860425   -9.6498551    185.66964 0.0080627776 0.0063166453         3726 
 1920000   0.48218675   -9.6488694    185.45516 0.0080492691 0.0063107945         3748 
 1921000   0.48408063   -9.6557745    185.41263 0.0080432341 0.0063049508         3766 
 1922000   0.48611263   -9.6404688    185.45317 0.0080408069 0.0062991125         3727 
 1923000   0.48094478   -9.6451345    185.58379 0.0080422858  0.006293278         3726 
 1924000   0.47235758   -9.6585371    184.91029 0.0080089349 0.0062874489         3756 
 1925000   0.48562263   -9.6582554    185.23446 0.0080188076 0.0062816326         3726 
 1926000   0.48121238   -9.6515913    185.65375  0.008032786  0.006275827         3748 
 1927000   0.48726749   -9.6595366    185.51532 0.0080226311 0.0062700267         3743 
 1928000   0.48687927   -9.6585416    185.29226 0.0080088285 0.0062642323         3718 
 1929000   0.47644894   -9.6715851    185.34828 0.0080070969 0.0062584444         3713 
 1930000   0.47616261    -9.655715    185.68881 0.0080176517 0.0062526632         3752 
 1931000   0.47956886   -9.6708175    185.38413 0.0080003511 0.0062468921         3756 
 1932000   0.47614555   -9.6731968    185.38134 0.0079960896 0.0062411277         3745 
 1933000   0.47478569   -9.6654105    185.60501 0.0080015955 0.0062353672         3738 
 1934000    0.4852153   -9.6597067    185.34315  0.007986175 0.0062296139         3738 
 1935000   0.47335709   -9.6466484    185.27584 0.0079791491 0.0062238692         3756 
 1936000   0.47911486   -9.6657178    185.11658 0.0079681722 0.0062181321         3753 
 1937000   0.48384065   -9.6579165    185.65411 0.0079871841 0.0062124001         3723 
 1938000   0.47921755   -9.6688914    185.33669 0.0079694139 0.0062066771         3742 
 1939000   0.46864314   -9.6592265    185.22092 0.0079603282 0.0062009622         3755 
 1940000   0.47861078   -9.6603083    185.24709  0.007957349 0.0061952524         3752 
 1941000   0.47614176   -9.6563324    185.55721 0.0079665642 0.0061895538         3736 
 1942000   0.49090204   -9.6661143    185.29798  0.007951338 0.0061838566         3755 
 1943000   0.48005288   -9.6487811    185.57859 0.0079592808 0.0061781738         3745 
 1944000    0.4760641   -9.6530613    185.21487 0.0079395949 0.0061725011         3755 
 1945000   0.46942163   -9.6494942    185.48693 0.0079471692 0.0061668301         3738 
 1946000   0.47354918   -9.6574305    185.44636 0.0079413481 0.0061611659         3738 
 1947000   0.48580422   -9.6638585    185.22035 0.0079275959 0.0061555068         3744 
 1948000   0.47504637   -9.6476304    185.39718 0.0079310908 0.0061498539         3727 
 1949000   0.46634912   -9.6774804    185.40942 0.0079275448 0.0061442075         3738 
 1950000   0.47369361   -9.6755423    185.12091 0.0079111502 0.0061385665         3741 
 1951000   0.47561296   -9.6697993    185.34421 0.0079166327 0.0061329327         3733 
 1952000   0.47366056   -9.6730542    185.28517 0.0079100568 0.0061273077         3742 
 1953000   0.46849314   -9.6661231    185.52798 0.0079163671 0.0061216956         3742 
 1954000   0.47732621   -9.6653421    185.50106 0.0079111677 0.0061160863         3737 
 1955000   0.47069114    -9.679151    185.40837 0.0079031699 0.0061104867         3759 
 1956000    0.4620831   -9.6651355    185.25428 0.0078925648 0.0061048928         3777 
 1957000   0.47166564   -9.6707246    185.28829   0.00788998 0.0060993078         3739 
 1958000   0.45939515   -9.6600312    185.15517 0.0078802845 0.0060937231         3758 
 1959000   0.46732048   -9.6762416    185.41676 0.0078873899 0.0060881474         3722 
 1960000   0.46294793   -9.6665839    185.10993   0.00787032 0.0060825831         3750 
 1961000   0.47385418   -9.6715924    185.19279 0.0078698277 0.0060770189         3748 
 1962000   0.46640078   -9.6695859    185.42877 0.0078758395 0.0060714654         3737 
 1963000   0.46126107   -9.6747687    185.20074 0.0078621472 0.0060659158         3755 
 1964000   0.48048797   -9.6872114    185.23728 0.0078596945 0.0060603756         3760 
 1965000    0.4751956   -9.6754958    185.31884 0.0078591535 0.0060548374         3720 
 1966000   0.46929368   -9.6833507    185.02609 0.0078427472 0.0060493063         3740 
 1967000   0.46255631   -9.6739683    185.30936  0.007850761 0.0060437856         3728 
 1968000   0.46711845   -9.6908437    185.21683 0.0078428537 0.0060382733         3759 
 1969000    0.4628751   -9.6779375    185.42346 0.0078476156 0.0060327642         3759 
 1970000   0.46627057   -9.6714891    185.13951 0.0078316205 0.0060272619         3750 
 1971000   0.45852464   -9.6814779    185.16852 0.0078288736 0.0060217679         3739 
 1972000    0.4660721   -9.6975817    185.20718 0.0078265372 0.0060162784         3741 
 1973000   0.46729106     -9.67051     184.9184 0.0078103732 0.0060107977         3755 
 1974000   0.46376947   -9.6628293    185.14091 0.0078158101 0.0060053212         3739 
 1975000   0.46246896   -9.6801819    185.37087 0.0078215559 0.0059998522         3753 
 1976000   0.46096363   -9.6730724    185.45796 0.0078212702 0.0059943903         3747 
 1977000   0.45633018   -9.6812056    185.19586 0.0078062661 0.0059889383         3754 
 1978000   0.46239387   -9.6751457    185.10695  0.007798574 0.0059834926         3727 
 1979000   0.45639548   -9.6928065    185.15344 0.0077965908 0.0059780542         3765 
 1980000   0.46589097   -9.6849146     185.2306 0.0077959008 0.0059726216         3734 
 1981000   0.46751948    -9.680052    185.15793 0.0077889085 0.0059671924         3737 
 1982000   0.46243591   -9.6792963    184.99214 0.0077780079  0.005961774         3743 
 1983000   0.45383694   -9.6867587    185.21408 0.0077834122 0.0059563639         3718 
 1984000    0.4607809   -9.6578905    185.15732 0.0077771053 0.0059509563         3725 
 1985000   0.45143204   -9.6958889     184.8999 0.0077623805 0.0059455586         3765 
 1986000    0.4682782   -9.6918563    184.92249 0.0077594196  0.005940164         3751 
 1987000   0.45769937   -9.7005707    185.31208 0.0077718537 0.0059347795         3751 
 1988000   0.47662517   -9.6768746     185.2499 0.0077653379 0.0059293975         3750 
 1989000   0.46198619   -9.6859166    185.37935 0.0077668572 0.0059240249         3754 
 1990000   0.46451361    -9.686476      184.933 0.0077442629 0.0059186587         3733 
 1991000   0.46400976   -9.6908018    185.16434 0.0077500562 0.0059132988         3758 
 1992000   0.46216048   -9.6951384    185.13713 0.0077450272 0.0059079482         3738 
 1993000   0.46015505   -9.6892098    184.97871 0.0077345171 0.0059025999         3769 
 1994000   0.44286726   -9.6893169    185.21821 0.0077406472  0.005897257         3750 
 1995000   0.45611159   -9.6813316    184.76936 0.0077180184 0.0058919215         3724 
 1996000   0.45821157   -9.6823969    185.42241 0.0077414167 0.0058865953         3755 
 1997000   0.44910009   -9.7000793    185.20036 0.0077282739  0.005881273         3758 
 1998000   0.44996295   -9.7040015    184.95653 0.0077142363 0.0058759545         3729 
 1999000   0.45081232   -9.6883909    184.97375 0.0077110951 0.0058706443         3736 
 2000000   0.45561655   -9.7088783    185.20003 0.0077166681 0.0058653442         3755 
 2001000   0.45044022   -9.6796151    185.05454 0.0077067526 0.0058600482         3750 
 2002000   0.45304979   -9.6969123    185.20394 0.0077091219 0.0058547586         3755 
 2003000    0.4458333   -9.6821822    185.08529 0.0077003366 0.0058494775         3749 
 2004000   0.45696874   -9.6943919    185.14605 0.0076990208 0.0058442005         3757 
 2005000   0.44954561   -9.7110366    184.94472 0.0076868128 0.0058389298         3723 
 2006000   0.45610902   -9.7091586    184.92113 0.0076820009 0.0058336644         3753 
 2007000   0.45037451   -9.7000203    185.12715 0.0076867278 0.0058284099         3757 
 2008000   0.44535406    -9.696354    185.13618 0.0076832742  0.005823157         3753 
 2009000   0.45394583   -9.7164832    185.05799 0.0076762068 0.0058179123         3756 
 2010000   0.44668219   -9.7038641    184.90245  0.007665939 0.0058126704         3756 
 2011000   0.44815925   -9.7097492    185.09007 0.0076699018 0.0058074386         3736 
 2012000   0.44494698   -9.7058773    185.06169 0.0076649143  0.005802213         3754 
Loop time of 5155.88 on 48 procs for 2000000 steps with 4000 atoms

Performance: 67030.264 tau/day, 387.907 timesteps/s
99.4% CPU use with 48 MPI tasks x no OpenMP threads

MPI task timing breakdown:
Section |  min time  |  avg time  |  max time  |%varavg| %total
---------------------------------------------------------------
Pair    | 355.36     | 404.31     | 444.76     |  91.6 |  7.84
Neigh   | 34.612     | 36.501     | 37.957     |  13.3 |  0.71
Comm    | 323.66     | 364.8      | 423.32     | 106.1 |  7.08
Output  | 5.6562     | 5.6584     | 5.7107     |   0.3 |  0.11
Modify  | 4279.2     | 4295.7     | 4316.3     |  13.5 | 83.32
Other   |            | 48.95      |            |       |  0.95

Nlocal:        83.3333 ave          90 max          76 min
Histogram: 1 2 7 3 6 11 5 9 1 3
Nghost:        2380.73 ave        2410 max        2359 min
Histogram: 5 6 7 5 7 6 6 2 2 2
Neighs:        16293.3 ave       18964 max       13832 min
Histogram: 3 2 8 4 11 6 4 4 5 1
FullNghs:      32586.2 ave       35923 max       28957 min
Histogram: 2 4 3 6 6 7 9 5 2 4

Total # of neighbors = 1564136
Ave neighs/atom = 391.03400
Neighbor list builds = 106429
Dangerous builds = 1

#clear
#
#next RN
#
#jump SELF
Total wall time: 1:25:59
