
units lj                  # Use reduced LJ style units
atom_style atomic         # Uncharged point particles
atom_modify map hash      # Needed for indexing of clusters etc
                          # Used to be able to find where atoms are in relation to each other.

# Define a lattice with which to populate the simulation cell. With units
# set to 'lj' the second argument to the lattice command is the reduced
# density rho* and the spacings are multiples of that required to acheive
# that density. Also define a simulation cell called 'box' in lattice units
# and fill it with atoms. Here we're creating a box which is ten lattice
# constants in each direction.
lattice fcc 1.0 spacing 1 1 1                 # All equal sizes - gives the right reduced density.
Lattice spacing in x,y,z = 1.5874011 1.5874011 1.5874011

region box block 0 10 0 10 0 10 units lattice # Defines a region, "box", in lattice units
create_box 1 box                              # Creates a simulation box as specified above,
Created orthogonal box = (0.0000000 0.0000000 0.0000000) to (15.874011 15.874011 15.874011)
  3 by 4 by 4 MPI processor grid
                                              # with one type of atom
create_atoms 1 box                            # Creates particles on lattice points
Created 4000 atoms
  using lattice units in orthogonal box = (0.0000000 0.0000000 0.0000000) to (15.874011 15.874011 15.874011)
  create_atoms CPU = 0.014 seconds


# Set the mass of the first (and only) atom type.
mass 1 1.0

# Lennard-Jones interactions between particles, 3.5 sigma cut-off. Apply
# long range tail corrections to energy and pressure and set all coefficients
# to unity since we work in reduced units here. Note that this doesn't shift
# the potential such that it goes to zero at the cutoff. That would require
# pair_modify('shift', 'yes').
pair_style lj/cut  3.5      # non-GPU version
pair_modify tail  yes
pair_coeff 1  1  1.0  1.0   # Intearaction between 1 and 1 set with epsilon = 1 and sigma = 1

write_data data.*
System init for write_data ...
Neighbor list info ...
  update every 1 steps, delay 10 steps, check yes
  max neighbors/atom: 2000, page size: 100000
  master list distance cutoff = 3.8
  ghost atom cutoff = 3.8
  binsize = 1.9, bins = 9 9 9
  1 neighbor lists, perpetual/occasional/extra = 1 0 0
  (1) pair lj/cut, perpetual
      attributes: half, newton on
      pair build: half/bin/atomonly/newton
      stencil: half/bin/3d
      bin: standard

#############################
#   M E L T   S Y S T E M   #
#############################

velocity all create 2.4 5300450 mom yes dist gaussian # Assign velocities
                                                    # Temperature 2.4, random number seed, zero linear momentum
						                                                        # Gaussian distribution

timestep 0.002   # simulation timestep
thermo 1000       # output thermodynamic data every 1000 steps

# Define a fix  in this case with index 1 applied to all
# particles in the simulation. This fix is for simulations
# in the anisotropic NPT ensemble. Note that we use the MTK
# correction.
fix 1 all npt temp 2.4 2.4 0.1 iso 5.68 5.68 0.5 mtk yes tchain 5 pchain 5 # Use NPT ensemble
                                                                         # Set temperature and pressure and damping
                                                                         # Numbers of thermostats in chain and in barostat
run 1000         # run for 10000 steps
Per MPI rank memory allocation (min/avg/max) = 3.642 | 3.644 | 3.648 Mbytes
Step Temp E_pair E_mol TotEng Press Volume 
       0          2.4   -8.3859253            0   -4.7868253   -2.2405722         4000 
    1000    2.3640359   -4.4632256            0  -0.91805834    5.6198419    5168.0104 
Loop time of 0.217213 on 48 procs for 1000 steps with 4000 atoms

Performance: 795530.723 tau/day, 4603.766 timesteps/s
99.4% CPU use with 48 MPI tasks x no OpenMP threads

MPI task timing breakdown:
Section |  min time  |  avg time  |  max time  |%varavg| %total
---------------------------------------------------------------
Pair    | 0.090363   | 0.099842   | 0.10707    |   1.0 | 45.96
Neigh   | 0.017704   | 0.018765   | 0.020081   |   0.4 |  8.64
Comm    | 0.067146   | 0.074435   | 0.083096   |   1.3 | 34.27
Output  | 2.4155e-05 | 2.5027e-05 | 3.2333e-05 |   0.0 |  0.01
Modify  | 0.02037    | 0.022575   | 0.024717   |   0.8 | 10.39
Other   |            | 0.001572   |            |       |  0.72

Nlocal:        83.3333 ave          91 max          76 min
Histogram: 2 3 4 4 15 2 8 5 4 1
Nghost:        1389.19 ave        1410 max        1367 min
Histogram: 4 3 1 5 6 7 12 6 3 1
Neighs:        7364.42 ave        8189 max        6588 min
Histogram: 7 3 3 4 8 6 5 5 4 3

Total # of neighbors = 353492
Ave neighs/atom = 88.373000
Neighbor list builds = 87
Dangerous builds = 23

# Equilibrate just above the melting temperature to avoid step fn in T

fix 1 all npt temp 1.25 1.25 0.1 iso 5.68 5.68 0.5 mtk yes tchain 5 pchain 5
run 1000
Per MPI rank memory allocation (min/avg/max) = 3.642 | 3.644 | 3.648 Mbytes
Step Temp E_pair E_mol TotEng Press Volume 
    1000    2.3640359   -4.4632256            0  -0.91805834    5.6198419    5168.0104 
    2000    1.2426751   -5.8285934            0   -3.9650468    5.7973576    4337.8193 
Loop time of 0.210909 on 48 procs for 1000 steps with 4000 atoms

Performance: 819310.640 tau/day, 4741.381 timesteps/s
99.6% CPU use with 48 MPI tasks x no OpenMP threads

MPI task timing breakdown:
Section |  min time  |  avg time  |  max time  |%varavg| %total
---------------------------------------------------------------
Pair    | 0.091678   | 0.09925    | 0.10409    |   1.0 | 47.06
Neigh   | 0.015488   | 0.016234   | 0.017003   |   0.3 |  7.70
Comm    | 0.064583   | 0.071702   | 0.080758   |   1.4 | 34.00
Output  | 2.3367e-05 | 2.4469e-05 | 3.1121e-05 |   0.0 |  0.01
Modify  | 0.019773   | 0.021752   | 0.023756   |   0.8 | 10.31
Other   |            | 0.001947   |            |       |  0.92

Nlocal:        83.3333 ave          90 max          78 min
Histogram: 3 3 6 9 6 12 4 1 0 4
Nghost:        1552.52 ave        1571 max        1535 min
Histogram: 1 2 7 6 9 9 7 4 2 1
Neighs:        8765.15 ave        9711 max        8085 min
Histogram: 3 2 10 10 8 7 2 3 2 1

Total # of neighbors = 420727
Ave neighs/atom = 105.18175
Neighbor list builds = 75
Dangerous builds = 5


# Small amount of linear quench

fix 1 all npt temp 1.25 ${temp} 0.1 iso 5.68 5.68 0.5 mtk yes tchain 5 pchain 5
fix 1 all npt temp 1.25 0.78 0.1 iso 5.68 5.68 0.5 mtk yes tchain 5 pchain 5
run 2000
Per MPI rank memory allocation (min/avg/max) = 3.643 | 3.645 | 3.648 Mbytes
Step Temp E_pair E_mol TotEng Press Volume 
    2000    1.2426751   -5.8285934            0   -3.9650468    5.7973576    4337.8193 
    3000    1.0320431   -6.1635903            0   -4.6159127    5.6674452    4198.5678 
    4000   0.79777348    -6.545894            0   -5.3495329    5.5298953    4050.7468 
Loop time of 0.449028 on 48 procs for 2000 steps with 4000 atoms

Performance: 769661.641 tau/day, 4454.060 timesteps/s
99.6% CPU use with 48 MPI tasks x no OpenMP threads

MPI task timing breakdown:
Section |  min time  |  avg time  |  max time  |%varavg| %total
---------------------------------------------------------------
Pair    | 0.20043    | 0.21676    | 0.23959    |   1.4 | 48.27
Neigh   | 0.026195   | 0.027361   | 0.030537   |   0.5 |  6.09
Comm    | 0.12865    | 0.15336    | 0.17203    |   2.1 | 34.15
Output  | 4.7596e-05 | 4.8759e-05 | 6.1095e-05 |   0.0 |  0.01
Modify  | 0.037851   | 0.046581   | 0.058286   |   2.5 | 10.37
Other   |            | 0.004919   |            |       |  1.10

Nlocal:        83.3333 ave          89 max          76 min
Histogram: 1 3 3 6 4 9 11 1 3 7
Nghost:        1627.38 ave        1647 max        1609 min
Histogram: 3 5 6 3 6 6 9 5 4 1
Neighs:        9443.92 ave       10132 max        8639 min
Histogram: 1 3 6 4 5 10 7 3 6 3

Total # of neighbors = 453308
Ave neighs/atom = 113.32700
Neighbor list builds = 120
Dangerous builds = 0

#############################
# F R E E Z E  S Y S T E M  #
#############################

# Define solid atoms. This closely follows ten Wolde  Ruiz-Montero and Frenkel  Faraday Discuss  1996  104  93-110
# Compute components of the per-atom q6 vector
compute q6 all orientorder/atom degrees 1 6 components 6 nnn NULL cutoff 1.3 # compute the Q6 parameter.
                                                                             # Use all neighbours within 1.3 unit cell.

# get number of connections
compute coord_number all coord/atom orientorder q6 0.5

# An atom is solid if it has 8 or more connections (of a possible 14)
variable is_solid atom c_coord_number>=8
group solid dynamic all var is_solid    # Must be dynamic to update
dynamic group solid defined

# do clustering
compute cluster solid cluster/atom 1.3 # Create a cluster where all atoms within are solid and max 1.3 units from another member

# define chunks one chunk per cluster
compute clus_chunks solid chunk/atom c_cluster nchunk every compress yes  # Says which atoms are in which chunk

# count the size of each chunk
compute size_chunks solid property/chunk clus_chunks count


# Find the maximum entry in the vector of chunk sizes
variable max_n equal max(c_size_chunks)


# Thermo style which includes this variable
thermo_style custom step temp pe vol v_max_n

thermo ${N}  # Print the thermo information every 100 steps
thermo 1000  

# Reset the npt fix at a lower temperature (below freezing)
fix 1  all npt temp  ${temp} ${temp}  0.1  iso  5.68  5.68  0.5  mtk yes tchain  5  pchain  5
fix 1  all npt temp  0.78 ${temp}  0.1  iso  5.68  5.68  0.5  mtk yes tchain  5  pchain  5
fix 1  all npt temp  0.78 0.78  0.1  iso  5.68  5.68  0.5  mtk yes tchain  5  pchain  5

dump dmp2 all dcd ${N} traj_${rand}.dcd
dump dmp2 all dcd 1000 traj_${rand}.dcd
dump dmp2 all dcd 1000 traj_462431.dcd


# fix rnuntil all halt ${N} v_max_n >= 3980 error soft message no   # Stop when solidified


run 1000000 # 5000000  # Run for this many steps
Neighbor list info ...
  update every 1 steps, delay 10 steps, check yes
  max neighbors/atom: 2000, page size: 100000
  master list distance cutoff = 3.8
  ghost atom cutoff = 3.8
  binsize = 1.9, bins = 9 9 9
  4 neighbor lists, perpetual/occasional/extra = 1 3 0
  (1) pair lj/cut, perpetual
      attributes: half, newton on
      pair build: half/bin/atomonly/newton
      stencil: half/bin/3d
      bin: standard
  (2) compute orientorder/atom, occasional
      attributes: full, newton on
      pair build: full/bin/atomonly
      stencil: full/bin/3d
      bin: standard
  (3) compute coord/atom, occasional
      attributes: full, newton on
      pair build: full/bin/atomonly
      stencil: full/bin/3d
      bin: standard
  (4) compute cluster/atom, occasional
      attributes: full, newton on
      pair build: full/bin/atomonly
      stencil: full/bin/3d
      bin: standard
Per MPI rank memory allocation (min/avg/max) = 9.372 | 9.375 | 9.379 Mbytes
Step Temp PotEng Volume v_max_n 
    4000   0.79777348    -6.545894    4050.7468           15 
    5000   0.78046241   -6.6747046    3999.1127           13 
    6000   0.77969473   -6.6763603    3990.5907           19 
    7000   0.78737515   -6.7039529    4001.8898            7 
    8000   0.75892515   -6.6839346    3983.7976           18 
    9000    0.7737882   -6.6703329    3985.5595           15 
   10000   0.77570724   -6.6747087    3982.5118           51 
   11000   0.79237347   -6.7074762     3994.504           35 
   12000   0.79243811   -6.6835471    4002.6269           27 
   13000   0.76769539   -6.6524759    3997.4107           62 
   14000   0.77032155   -6.6719133    3990.3158           40 
   15000   0.78072435   -6.7161492    3984.7873           31 
   16000   0.77940287   -6.6649454    3990.8177           33 
   17000   0.80593184   -6.7171779    3989.8762           53 
   18000   0.76881938   -6.7043498      3982.76           29 
   19000   0.76736968   -6.7310884    3974.2791           38 
   20000   0.76476056   -6.7288271      3971.86           53 
   21000   0.77329152   -6.7133434    3977.5426           91 
   22000   0.78491888   -6.6766698    3983.4284           62 
   23000   0.77316627   -6.7008498    3992.5411           21 
   24000   0.78097976   -6.6774056    3981.4834           55 
   25000   0.76108729   -6.6822095    3981.4573           17 
   26000   0.77421723   -6.6760366    3997.0195           26 
   27000   0.78653409   -6.7270362    3990.4896           34 
   28000   0.78422077    -6.690075    3974.6814           27 
   29000   0.77698634   -6.7274636    3981.2776           10 
   30000   0.76437297   -6.7266888     3996.984           18 
   31000   0.77959584   -6.6911585    3986.6061           24 
   32000   0.78346274    -6.678667    3977.1831           18 
   33000   0.77995738   -6.6913735    3992.7254           25 
   34000   0.76647783   -6.6769071    3991.5826           44 
   35000   0.78591386   -6.6639634    3993.9081           87 
   36000   0.78391993   -6.6962768    3990.7094           70 
   37000   0.76871052   -6.6746862    3993.7734           24 
   38000   0.77646588   -6.7047807    3979.5857           32 
   39000   0.78274649   -6.6897663    3978.0079           47 
   40000    0.7810092   -6.6886379    3981.3576           18 
   41000   0.78535021      -6.6745    3988.6228           18 
   42000   0.79431107   -6.7449967    3982.8589           54 
   43000   0.78721028   -6.7018448    3979.8323           38 
   44000   0.78052447   -6.7003909    3984.2418           69 
   45000    0.7743723   -6.6973458    3991.7775           20 
   46000   0.77209324    -6.694931    3992.3362           16 
   47000   0.78015273   -6.7133113    3986.1693           23 
   48000   0.79019678   -6.6704422    4001.3589           20 
   49000   0.79350099   -6.6762586    3984.4141           62 
   50000   0.77109516   -6.6833574    3987.3226           26 
   51000   0.80912305   -6.6756042    3985.4689           57 
   52000   0.76932972   -6.6991473    3991.3008           26 
   53000   0.77931181    -6.680931    3992.0218           23 
   54000   0.79262604   -6.6891456    3971.7112           21 
   55000     0.783299   -6.6722398     3991.355           16 
   56000   0.76793285   -6.6479737    4000.7841           12 
   57000   0.77021469   -6.6818352    3969.8978           24 
   58000   0.75778876   -6.6779415    3998.6312           22 
   59000   0.78603228   -6.7139743    3983.7381           17 
   60000   0.79273651   -6.6670226    3986.6652           22 
   61000   0.77822567    -6.708103    3999.5487           30 
   62000   0.79416138   -6.7209023    3981.3631           54 
   63000   0.80231213   -6.7047014    3984.4433           18 
   64000   0.79132998   -6.6783249    3988.1719           19 
   65000    0.7741055     -6.68166    3986.0543           16 
   66000   0.77105063   -6.6992245    4009.6239           12 
   67000   0.77965065   -6.7053139    3979.1279           56 
   68000   0.77350311   -6.6560297    4000.7255           25 
   69000   0.80286056   -6.6840453    3987.2551           30 
   70000   0.79076312   -6.6940778    3997.5924           37 
   71000   0.81297154   -6.6864063    3991.8458           41 
   72000    0.7946621   -6.6923479    3985.4768           30 
   73000   0.78502684   -6.6774105    3996.8331          118 
   74000   0.76526094   -6.7194257    3980.7372           40 
   75000   0.77902095    -6.698863     3979.666           50 
   76000   0.76759585   -6.6953131    3983.8283           11 
   77000   0.75912905   -6.7180818    3980.9462           28 
   78000   0.77324387    -6.723128    3974.3132           20 
   79000   0.77755693   -6.7168776    3981.9881           30 
   80000   0.77387832   -6.6761175    3979.7081           24 
   81000   0.78933166   -6.6733409    3988.1042           17 
   82000   0.77780908   -6.7095875    3975.3177           32 
   83000   0.77359779   -6.6793893    3996.9645           20 
   84000    0.7723636   -6.7026969    3978.1755           27 
   85000   0.77748834   -6.6989027    3982.1281           26 
   86000   0.78172771   -6.6919302    3985.6288           15 
   87000   0.78070768   -6.6915821    3979.6905           22 
   88000   0.78989884   -6.7078793    3984.0389           32 
   89000   0.77721362    -6.674827    3986.1151           23 
   90000   0.78265583   -6.7119143    3988.7225           29 
   91000   0.77218383   -6.6983356    3973.2526           31 
   92000   0.79076748   -6.6969663    3978.7423           26 
   93000   0.77578687    -6.691029    3996.7871           30 
   94000    0.7696354   -6.6792823    3988.2245           15 
   95000   0.76573472   -6.6702139    3993.4779           27 
   96000   0.78392069   -6.6820553    3981.6358           64 
   97000   0.78302821   -6.7327007     3981.274           96 
   98000   0.75234095   -6.6842339    3991.7564           33 
   99000   0.79718293    -6.705244    3972.7466           99 
  100000   0.76708835   -6.7080548    3971.4875          107 
  101000   0.77403228   -6.6986387    3978.0916           92 
  102000   0.79115075   -6.7121379    3968.7841          124 
  103000   0.76324441    -6.703707    3986.6713          147 
  104000   0.76554396   -6.6799108    3992.1876          116 
  105000   0.79905328   -6.7311117    3992.4418          159 
  106000   0.77715563   -6.6896803     3991.386           67 
  107000   0.77122841   -6.6810856    3986.4022           91 
  108000   0.78173923   -6.6839316     3990.721           61 
  109000   0.77589197   -6.7161116     3982.353           42 
  110000   0.78185784   -6.7151007    3989.4363           25 
  111000   0.77995657   -6.6965117    3985.5696           18 
  112000   0.77304755   -6.7175733    3983.4003           20 
  113000   0.78170083   -6.6708403    3993.4209           19 
  114000   0.78271874   -6.6657312    3996.5728           13 
  115000   0.78070483   -6.6915411    3973.9617           24 
  116000   0.78579268   -6.6814381    3995.6889           30 
  117000   0.79126729   -6.6975852    3992.9258           17 
  118000   0.79770145   -6.7075752    3978.2869           41 
  119000   0.77835147   -6.7099804     3983.027           24 
  120000    0.7771418   -6.6818029    3978.1057           29 
  121000   0.76998812    -6.690681    3983.0067           64 
  122000   0.79895611   -6.6741509    4002.0089           41 
  123000    0.7939497   -6.6995778    3985.2682           26 
  124000   0.78471299   -6.6787477    3977.5926           14 
  125000   0.77299193   -6.6940814    3989.4922           16 
  126000   0.77639433   -6.6900375    3996.1871           23 
  127000   0.77324189   -6.6648625    3984.1191           11 
  128000   0.78774874   -6.6556964    3988.8136           18 
  129000    0.7715671   -6.6619535    3990.2442           26 
  130000   0.79142581   -6.6664619    3986.8074           20 
  131000   0.78237397   -6.6858807    3989.2627           15 
  132000   0.78214226   -6.6697634    3998.5737           14 
  133000   0.76488442   -6.6887285    3990.0952           22 
  134000   0.79739646   -6.7028091    3988.5726            9 
  135000   0.77526583   -6.6774627    3984.6428           25 
  136000   0.77894384   -6.6988525    3978.6031           16 
  137000   0.77255203   -6.7278258    3984.5853           33 
  138000   0.77704606   -6.6581045    3998.9473           26 
  139000   0.77222071   -6.6711722    3994.8345           44 
  140000   0.79256385   -6.6771485    3991.0602           44 
  141000   0.79283695   -6.6558294    3988.5415           36 
  142000   0.78047285   -6.7139367    3982.0662           58 
  143000   0.75689523   -6.6883859    3981.5935           78 
  144000   0.79639814   -6.6949883    3985.5245           40 
  145000    0.7870081    -6.711407    3996.1367           30 
  146000   0.76530112    -6.652018    3994.0653           42 
  147000   0.77247985    -6.717005    3989.7378           25 
  148000   0.77353759   -6.6782683    3989.1536           42 
  149000    0.7643514   -6.6856647    3992.9074           62 
  150000   0.78872068   -6.6969722    3987.0045           62 
  151000   0.75482603   -6.6836055    3992.8486           65 
  152000    0.8106178    -6.721406    3981.6311           35 
  153000   0.78063999   -6.6890715    3981.1974           56 
  154000   0.79974711   -6.7001407    4000.6084           46 
  155000   0.77631326   -6.6937808    3986.7125           50 
  156000   0.76586041   -6.6887333    3983.3241           56 
  157000   0.76420202   -6.6795483     3994.141           79 
  158000   0.77169778   -6.6794058    3989.4479           27 
  159000    0.7845264   -6.6926802    3987.9915           14 
  160000   0.77935104   -6.6839077    3983.9454           25 
  161000   0.76767413   -6.6591615    3994.9133           18 
  162000   0.79808999   -6.6771399    3988.0319           21 
  163000   0.77529226   -6.6742996     3993.156           20 
  164000   0.80025544   -6.6870789    3998.1948           29 
  165000   0.78225965   -6.6717021    3986.9871           20 
  166000   0.77492431   -6.7031905    3983.8215           56 
  167000   0.78184091   -6.7055713    3978.5832           43 
  168000    0.7841191     -6.71084    3977.6787           23 
  169000   0.78360154   -6.6843326    3981.1851           22 
  170000   0.77447549   -6.6783347    3971.9007           21 
  171000   0.78580361    -6.674665    3989.5007           25 
  172000   0.78612277   -6.6816575    3994.9401           16 
  173000   0.78164565   -6.6740599    3992.8988           14 
  174000   0.78486957   -6.6919725    3988.9127           19 
  175000   0.79142929   -6.7092145    3980.2017           19 
  176000   0.78896326   -6.7320793    3975.6538           38 
  177000    0.7757626   -6.7100104    3971.9954           76 
  178000   0.77201949   -6.7025447    3976.4436           62 
  179000   0.77399069   -6.6865267    3984.2585          113 
  180000   0.77244726   -6.7154081    3986.7554           62 
  181000   0.76316567   -6.7086578    3981.0958          146 
  182000   0.77336291   -6.7061306    3984.6626          256 
  183000   0.77348772   -6.6984263    3989.2909          176 
  184000   0.78627634   -6.7189756    3987.0729          115 
  185000   0.78565069    -6.716479    3965.3152          170 
  186000   0.77278238    -6.677458     3997.131          141 
  187000   0.77655001   -6.6909034     3990.297          160 
  188000   0.77860051   -6.6967957    3978.3315          171 
  189000   0.77370087   -6.6881283    3980.6937          189 
  190000   0.76469502   -6.7040037     3979.962          267 
  191000    0.7716411   -6.7163806    3984.6952          238 
  192000   0.77463396   -6.7154092    3978.5019          129 
  193000   0.77034805   -6.7121682    3992.1239          163 
  194000   0.78146787   -6.6849279    3984.0339          198 
  195000    0.7591696    -6.701215    3965.2942          215 
  196000   0.78002422    -6.715123    3985.0161          144 
  197000    0.7685528   -6.7352857    3981.9261          318 
  198000   0.77822739   -6.7109688    3985.4388          274 
  199000   0.78397215   -6.7335576    3962.6121          295 
  200000   0.76514784    -6.718546     3969.575          372 
  201000   0.77990486   -6.7247361    3977.3401          224 
  202000   0.77547273   -6.7430174    3963.7339          400 
  203000   0.76528407   -6.7072164    3977.3479          456 
  204000   0.78892181   -6.7364933    3975.1002          485 
  205000   0.79251965   -6.7253434     3991.275          545 
  206000   0.77516011   -6.7394325    3959.1844          590 
  207000   0.77585815   -6.7275178    3974.1141          605 
  208000   0.78500052   -6.7274395    3968.1331          680 
  209000   0.78731049   -6.7447567    3966.4082          693 
  210000   0.78969454   -6.7774391     3954.582          859 
  211000    0.7825938   -6.7722276    3955.4486          822 
  212000   0.77173442   -6.7473357    3950.5953          886 
  213000   0.78456931   -6.7477192    3963.9873          934 
  214000   0.79496142   -6.7990107    3955.7134         1120 
  215000    0.7732643   -6.7903954    3952.0607         1183 
  216000     0.772073   -6.8335374    3952.6944         1267 
  217000   0.77769213   -6.7950347    3948.9244         1249 
  218000   0.78349629   -6.8637237    3949.5674         1282 
  219000   0.78731558   -6.8306246    3924.4576         1354 
  220000   0.78999211   -6.8247108    3939.3072         1506 
  221000   0.78690907   -6.8534055    3938.2921         1511 
  222000    0.7828445   -6.8718679    3929.4456         1624 
  223000   0.77423899   -6.8964961    3934.2833         1813 
  224000   0.79949955   -6.9030908    3917.6362         1921 
  225000   0.79680754    -6.903837    3909.3472         2050 
  226000   0.78693722   -6.9396997    3917.5393         2252 
  227000   0.77274867   -6.9601999    3897.7498         2426 
  228000   0.78650754   -6.9710883    3887.3369         2605 
  229000   0.77659439   -6.9880404    3893.1865         2721 
  230000   0.77535499   -7.0311045    3883.2198         2917 
  231000   0.78013227   -7.0628545    3857.7543         3085 
  232000   0.77287724   -7.0545707    3868.2448         3166 
  233000    0.8012986   -7.0832735     3855.026         3202 
  234000   0.78448768   -7.0895602    3855.7151         3331 
  235000   0.78316385   -7.1084377    3841.0244         3365 
  236000   0.77368125   -7.1147079    3858.1384         3346 
  237000   0.75285169   -7.1278757    3843.1864         3364 
  238000   0.78574528   -7.1015042    3844.9869         3391 
  239000   0.76656232   -7.1629033    3834.1186         3464 
  240000    0.7769486   -7.1452774    3831.3741         3561 
  241000   0.79004847   -7.1604533    3836.1529         3533 
  242000   0.77326787   -7.1619461    3830.5781         3544 
  243000   0.78325944   -7.1687427    3830.8606         3589 
  244000   0.78108488   -7.1973407    3832.1225         3629 
  245000   0.75633791    -7.187858    3833.0346         3635 
  246000   0.77063195   -7.1768599    3829.1713         3623 
  247000   0.76364533   -7.1787408    3821.7859         3638 
  248000   0.78848584   -7.1929728    3833.3474         3635 
  249000   0.76461215   -7.2126513    3828.3527         3679 
  250000   0.79218606   -7.1607042    3814.0906         3695 
  251000   0.77089798   -7.2060015    3826.9571         3688 
  252000    0.7814612    -7.194605    3826.0236         3702 
  253000   0.78123926   -7.2306786     3825.071         3634 
  254000   0.78224078   -7.2293592    3818.5737         3707 
  255000   0.77944175    -7.227924     3819.013         3718 
  256000   0.78984211   -7.2448395    3809.3139         3771 
  257000    0.7699875   -7.2401686    3827.0468         3688 
  258000   0.78458512   -7.2199947    3807.1267         3710 
  259000   0.76692176   -7.2193085    3818.2905         3730 
  260000   0.78285047   -7.2150012    3825.0918         3754 
  261000   0.78074716    -7.267725    3817.4786         3808 
  262000   0.76587037   -7.2231281    3818.1548         3789 
  263000    0.7905783   -7.2476422    3809.4466         3798 
  264000   0.77272562   -7.2307573    3822.6728         3777 
  265000   0.77505464   -7.2377322    3823.5096         3818 
  266000   0.78060308   -7.2646171    3811.1972         3811 
  267000   0.76649758   -7.2642266     3817.626         3840 
  268000   0.77336918   -7.2486713    3805.5344         3823 
  269000   0.79302408   -7.2687743    3810.7052         3823 
  270000   0.77788538    -7.260409    3803.2707         3829 
  271000   0.78030826   -7.2634555    3806.5591         3861 
  272000   0.77935458   -7.2671979     3802.764         3822 
  273000   0.77270552    -7.257734    3799.7032         3841 
  274000   0.76853121   -7.2643156    3810.3916         3838 
  275000   0.77848946   -7.2686287    3797.3681         3865 
  276000   0.76011001   -7.2951499    3797.7942         3894 
  277000   0.77861561   -7.2647839    3808.2058         3881 
  278000   0.77067592   -7.2861611    3801.6243         3880 
  279000   0.78255566   -7.2852881    3802.3466         3884 
  280000   0.77351377   -7.2902741    3793.9778         3903 
  281000   0.78450455   -7.3199884    3795.8023         3901 
  282000   0.76945953   -7.2945544    3790.8723         3887 
  283000   0.77218959   -7.3344414    3781.2309         3885 
  284000   0.77131093   -7.3247023    3794.5499         3897 
  285000   0.77955845    -7.322588    3787.4179         3928 
  286000   0.78060791   -7.3428388    3790.8983         3899 
  287000   0.79156019   -7.2991479    3792.6553         3939 
  288000   0.77650093   -7.3443495    3786.2787         3921 
  289000   0.78520867   -7.3205874     3775.367         3925 
  290000   0.76504436   -7.3317482    3787.9754         3938 
  291000   0.76482951   -7.3064984    3787.5165         3923 
  292000   0.78331974   -7.3481912    3779.0966         3909 
  293000   0.77652325   -7.3554224    3778.5708         3923 
  294000   0.78767719   -7.3484497    3784.4902         3929 
  295000   0.78830319   -7.3568904    3779.3046         3943 
  296000   0.79898053   -7.3594677    3782.5926         3961 
  297000    0.7853482   -7.3872057    3769.0167         3965 
  298000   0.77256093   -7.4203324    3748.5461         3967 
  299000   0.77369451   -7.4005776    3762.3423         3980 
  300000   0.79359877   -7.4449221    3756.1595         3984 
  301000   0.77053056    -7.394405    3758.3842         3993 
  302000     0.780258   -7.4178954    3757.6434         3990 
  303000    0.7750223   -7.4248755    3752.7518         3990 
  304000   0.75047098   -7.4650262    3749.5788         3991 
  305000   0.77865655   -7.4463873     3756.423         3987 
  306000   0.77698022   -7.4420206    3744.1116         3991 
  307000   0.78320929    -7.448935    3742.6591         3992 
  308000   0.76079217   -7.4267663    3751.9103         3996 
  309000   0.77999951   -7.4470101    3757.4777         3989 
  310000   0.77669909   -7.4351421    3752.9527         3991 
  311000   0.78009123   -7.4534685    3754.1517         3993 
  312000   0.75805189   -7.4691917    3751.3886         3987 
  313000   0.78736232   -7.4524992    3755.6934         3998 
  314000   0.77680851   -7.4297243    3747.9602         3994 
  315000   0.77654733   -7.4416856    3736.0397         3996 
  316000   0.77513857   -7.4598791    3762.8198         3991 
  317000   0.80093915   -7.4518423    3764.8271         3988 
  318000   0.76928307   -7.4519223    3752.3722         3995 
  319000   0.78007499   -7.4572873    3748.0112         3997 
  320000   0.77564985   -7.4518735    3757.9914         3996 
  321000   0.80464672   -7.4338755    3743.7749         3994 
  322000   0.77359458   -7.4557564    3746.5488         3996 
  323000   0.78050965   -7.4261645    3759.1582         3995 
  324000   0.78514591   -7.4602613    3751.8278         3991 
  325000     0.780538   -7.4357645    3753.5919         3995 
  326000   0.78050614   -7.4350243    3761.2354         3995 
  327000   0.78512011   -7.4328132    3745.2412         3992 
  328000   0.76732616   -7.4530148    3754.3425         3995 
  329000   0.77285874   -7.4644468    3740.5681         3996 
  330000   0.78260051   -7.4496024    3760.2465         3994 
  331000    0.7700433   -7.4441973    3744.9687         3994 
  332000   0.76781609   -7.4349657    3760.5538         3996 
  333000   0.78312376   -7.4544274     3748.664         3999 
  334000   0.76275437   -7.4286437    3744.5476         3996 
  335000   0.79372086    -7.435411    3748.6137         3994 
  336000   0.76683281   -7.4237498    3755.6656         3996 
  337000   0.78064349   -7.4738866    3739.8818         3994 
  338000   0.78307029   -7.4502014    3753.3168         3993 
  339000   0.78573822   -7.4583909    3764.5925         3997 
  340000   0.77227662   -7.4410729    3751.4724         3996 
  341000   0.78091348    -7.475255    3736.5273         3995 
  342000   0.78352407   -7.4580935    3762.7077         3995 
  343000   0.74944003   -7.4551541    3758.4891         3997 
  344000   0.77287193   -7.4346427    3748.6222         3993 
  345000   0.77087044   -7.4399744    3750.6048         3996 
  346000   0.78888053   -7.4551857    3742.7017         3996 
  347000   0.78271661   -7.4519877     3741.896         3996 
  348000   0.80082346   -7.4190164    3741.3901         3999 
  349000    0.7846281    -7.431314    3741.7497         3993 
  350000   0.76336769   -7.4673887    3744.5811         3999 
  351000    0.7592467   -7.4365451    3749.9446         3997 
  352000   0.80086743    -7.454214    3745.5663         3996 
  353000   0.78681925   -7.4174441    3760.0098         3996 
  354000   0.79038685   -7.4508566    3761.0794         3998 
  355000   0.79653175   -7.4352933    3749.8253         3998 
  356000   0.76865772   -7.4459381    3753.1541         3997 
  357000   0.76315379   -7.4648281    3742.6393         3997 
  358000    0.7660242   -7.4699882    3748.4272         4000 
  359000   0.79204727   -7.4321322    3749.4289         3997 
  360000   0.80766679   -7.4335161    3756.8901         3993 
  361000    0.7754839   -7.4561136    3755.2733         3997 
  362000    0.7788955   -7.4493421     3756.202         3994 
  363000   0.76868565   -7.4531284    3757.6944         3997 
  364000    0.7764949   -7.4494842    3751.9745         4000 
  365000   0.78165812   -7.4434729    3755.0322         3998 
  366000   0.77710251   -7.4674982    3747.1227         3998 
  367000   0.77924912    -7.439311    3753.9329         3999 
  368000   0.77561876   -7.4383231    3738.1794         3997 
  369000   0.77708821   -7.4550393    3744.9623         3995 
  370000   0.77781629   -7.4267092    3754.5304         3998 
  371000    0.7786167   -7.4364843    3739.4449         3999 
  372000   0.77873498   -7.4313941     3746.219         3999 
  373000    0.7864345   -7.4422455    3754.3342         3996 
  374000   0.78553589   -7.4518464    3754.6652         3998 
  375000   0.77457418   -7.4757147    3748.7421         4000 
  376000   0.77060312    -7.435787    3741.9219         3995 
  377000   0.77950898   -7.4358156    3750.6575         4000 
  378000   0.78310992   -7.4448369    3744.9801         3996 
  379000   0.77475195   -7.4309301    3765.6195         3997 
  380000   0.77976753   -7.4514137    3737.3571         3995 
  381000   0.78491552   -7.4684174     3750.998         3997 
  382000   0.77599521   -7.4686741    3759.6101         3996 
  383000   0.77043329   -7.4333186    3747.2625         3993 
  384000   0.77726123   -7.4791669    3741.2351         3999 
  385000   0.78996798   -7.4359731    3750.9867         3996 
  386000   0.78612638   -7.4348467    3757.7431         3999 
  387000   0.77090185   -7.4498105    3755.0387         3995 
  388000   0.79613711   -7.4450495    3753.7779         3997 
  389000   0.77350983   -7.4462578    3755.4876         3995 
  390000   0.77002691   -7.4496468    3756.8486         3990 
  391000   0.76895085   -7.4468147    3744.6934         3999 
  392000   0.77702684   -7.4520186    3760.4302         3996 
  393000    0.7785656   -7.4338448    3754.1741         3996 
  394000   0.79112234   -7.4564747     3766.681         3998 
  395000   0.79081442   -7.4026851     3746.525         3996 
  396000   0.77377819   -7.4381916    3758.0584         3996 
  397000   0.77397387    -7.432852    3754.4552         3999 
  398000   0.77064706   -7.4434138    3746.8111         3995 
  399000   0.78206378   -7.4545211    3742.7961         3997 
  400000   0.77351494   -7.4520035    3746.6803         3998 
  401000   0.77346226   -7.4603134    3750.2726         3997 
  402000   0.79456481   -7.4534205    3742.9344         3998 
  403000   0.78235235   -7.4597276     3757.234         3995 
  404000   0.78537898   -7.4498758    3745.2751         3997 
  405000   0.77185568   -7.4548498     3741.485         3996 
  406000    0.7718933   -7.4278739    3753.2172         3995 
  407000   0.76951916   -7.4488464     3759.781         3998 
  408000   0.77462558   -7.4548078    3745.0266         3998 
  409000   0.77641034   -7.4385703     3747.297         4000 
  410000   0.78375846   -7.4461927    3757.5229         3994 
  411000   0.77079155   -7.4850099    3755.0938         3997 
  412000   0.78095947   -7.4396232    3756.5261         3998 
  413000   0.77051879   -7.4441914    3742.8162         3997 
  414000   0.78454117   -7.4722302    3750.9583         3996 
  415000   0.79274705   -7.4625698     3744.222         3997 
  416000   0.78286713   -7.4492616    3749.0587         3998 
  417000   0.77959219    -7.467223    3748.4899         3997 
  418000   0.77939424   -7.4370296    3758.5143         3997 
  419000   0.77037007   -7.4488887    3741.2225         3997 
  420000   0.78678012   -7.4523999     3755.938         3995 
  421000   0.77838591   -7.4756491    3749.0982         3998 
  422000   0.79008798   -7.4611232    3748.0455         3997 
  423000   0.78412341   -7.4505354     3761.097         3997 
  424000   0.79174104   -7.4311991    3743.6133         3998 
  425000   0.77955431    -7.441599    3754.4034         3999 
  426000   0.77661059   -7.4599552    3754.5571         3999 
  427000   0.76935295   -7.4604199    3750.3745         3994 
  428000   0.77895783   -7.4156029    3743.7892         3997 
  429000   0.76188003   -7.4043559    3745.4572         3997 
  430000   0.79396025   -7.4501851    3751.2162         3997 
  431000   0.78536026    -7.471212    3752.2341         3994 
  432000    0.7725285   -7.4738924    3755.8616         3999 
  433000   0.77574357   -7.4384497     3748.466         3997 
  434000   0.79796729    -7.430092    3749.1029         3996 
  435000   0.77555861   -7.4558169    3744.1498         3997 
  436000   0.78750624   -7.4304373    3750.5243         3990 
  437000   0.79215971   -7.4496202    3753.4119         3996 
  438000   0.78393195   -7.4321297    3749.4751         3999 
  439000   0.79409397   -7.4760671    3738.3236         3997 
  440000     0.793539   -7.4732966    3757.3477         3999 
  441000   0.78553437   -7.4369581    3747.2562         3995 
  442000   0.79631828   -7.4436156    3746.7848         3998 
  443000   0.78776685   -7.4433852    3750.7633         3994 
  444000   0.77530909   -7.4605769    3742.6813         3995 
  445000   0.77834178   -7.4442556    3745.2022         3998 
  446000   0.77287692   -7.4402051    3756.9074         3996 
  447000    0.7773091   -7.4649139    3743.5064         3999 
  448000   0.76676829   -7.4531997    3750.9692         3998 
  449000    0.7843766   -7.4429102    3741.1449         3997 
  450000   0.77431992   -7.4598919    3754.7284         3995 
  451000   0.78168483   -7.4217876    3746.0913         3992 
  452000   0.75683066   -7.4717962    3763.1361         3996 
  453000   0.78380536   -7.4454967    3746.0451         3995 
  454000   0.77594214   -7.4456242    3752.7508         3997 
  455000    0.7774512   -7.4208839    3750.4806         3997 
  456000   0.77753077   -7.4438774    3743.9906         3998 
  457000   0.79213213    -7.423643    3764.3843         3997 
  458000   0.78099498   -7.4385706    3745.8978         3999 
  459000   0.78824833    -7.434797    3746.1589         3996 
  460000   0.77201917   -7.4738024    3747.2013         3998 
  461000   0.77996768   -7.4240018    3754.0959         3999 
  462000   0.79274083   -7.4495735    3743.7839         3995 
  463000   0.78097443   -7.4295779    3750.3709         3997 
  464000   0.78429874   -7.4489663    3750.9992         3999 
  465000   0.77470826   -7.4312671    3754.8719         3996 
  466000   0.77513234   -7.4507546    3749.6608         3997 
  467000   0.77764266   -7.4555216    3739.5248         3997 
  468000   0.78244528   -7.4744005    3753.5097         4000 
  469000    0.7899691    -7.449513    3755.7608         3998 
  470000   0.76589065   -7.4624346    3746.6153         3999 
  471000   0.79262513   -7.4352564    3749.4382         3998 
  472000   0.77021146   -7.4323085    3742.3349         4000 
  473000   0.78579132   -7.4426291     3749.081         3995 
  474000   0.78027563   -7.4462827    3748.5845         3996 
  475000   0.77255295   -7.4375947    3754.0305         3994 
  476000   0.77599969   -7.4558372    3756.5138         3993 
  477000   0.80244358   -7.4395772    3757.5528         3993 
  478000   0.77801001   -7.4501124    3747.7154         3995 
  479000   0.78317791   -7.4561898     3743.187         3998 
  480000   0.78521712   -7.4330738    3763.2053         3997 
  481000   0.77186282   -7.4596943    3742.1818         3996 
  482000   0.78507143   -7.4674205    3742.6325         3999 
  483000   0.77836404   -7.4490424    3760.9913         3995 
  484000   0.77450229   -7.4382844    3753.6371         4000 
  485000   0.77384649   -7.4383682    3745.3986         3999 
  486000   0.78729679   -7.4628232    3759.5598         3999 
  487000   0.77014858   -7.4482406    3760.7854         3993 
  488000   0.78793756   -7.4522396    3750.1115         3997 
  489000   0.78965754   -7.4345273    3740.8367         3999 
  490000   0.78415733   -7.4343628    3755.6653         3998 
  491000   0.77666042   -7.4393025    3740.1069         3999 
  492000   0.76551013   -7.4446505    3747.7794         3997 
  493000   0.76241077   -7.4180067    3762.6818         3997 
  494000   0.74980935    -7.437165    3742.8752         3997 
  495000   0.78604627   -7.4624918     3756.331         3999 
  496000    0.7697044   -7.4474615    3742.6764         3998 
  497000   0.78388257   -7.4433245    3743.4712         3997 
  498000   0.78097277    -7.445408    3757.6637         3998 
  499000   0.76405373   -7.4317653    3744.0798         3996 
  500000   0.77716543   -7.4571465    3751.5531         3996 
  501000     0.778031   -7.4664065    3752.1439         3998 
  502000   0.77792688   -7.4531234    3752.9715         3997 
  503000   0.77842865   -7.4485426    3748.7764         4000 
  504000   0.78402934   -7.4333425    3755.9093         3995 
  505000    0.7787175   -7.4572884    3747.9356         3997 
  506000   0.80371253    -7.452756    3747.3417         3995 
  507000   0.78965558   -7.4700526     3743.188         3996 
  508000   0.77425549   -7.4748256     3751.184         3997 
  509000   0.78966338   -7.4367203    3748.5736         3997 
  510000   0.77253651   -7.4581637    3747.8115         3996 
  511000    0.7895639   -7.4594795    3754.2571         3997 
  512000   0.78357523   -7.4211442    3744.3381         3997 
  513000   0.79431203   -7.4363197    3749.8492         3997 
  514000   0.79612536   -7.4622781    3754.2348         3998 
  515000   0.78406771   -7.4629876    3757.7968         3999 
  516000   0.76687766   -7.4499118    3741.2686         3997 
  517000   0.79132598   -7.4496122    3757.6632         3997 
  518000   0.77643629   -7.4484126     3753.103         4000 
  519000   0.77320389   -7.4567881    3741.4156         3996 
  520000   0.79216495   -7.4515874    3742.1153         3998 
  521000   0.78483731   -7.4540338    3745.1775         3998 
  522000   0.79174351   -7.4397847    3742.7871         4000 
  523000   0.75922238   -7.4336366    3759.1653         4000 
  524000   0.77944345   -7.4594782    3750.2989         3995 
  525000   0.77495182   -7.4238164    3756.8459         3998 
  526000   0.78359321   -7.4513507    3741.0949         3999 
  527000   0.77416485   -7.4420382     3762.529         3994 
  528000   0.77752732   -7.4543797    3749.0132         3995 
  529000   0.76868888   -7.4387724    3747.0227         3997 
  530000   0.77186059   -7.4449844    3744.6038         3999 
  531000   0.76219931   -7.4515187    3741.8761         3998 
  532000   0.77956696    -7.456796     3745.127         3997 
  533000   0.79481359   -7.4627097    3756.4804         4000 
  534000   0.77876696   -7.4555641    3736.8101         3997 
  535000   0.77247246   -7.4464339    3744.7046         3997 
  536000      0.78813   -7.4545862    3753.3961         3994 
  537000   0.75721852   -7.4363533    3746.5932         3998 
  538000   0.79959613   -7.4487556    3741.9063         3997 
  539000   0.77213303   -7.4397393    3747.9567         3998 
  540000   0.79515022   -7.4303868    3744.4262         3999 
  541000   0.76512233   -7.4654546    3754.9703         3998 
  542000   0.79400112   -7.4493967     3743.369         3995 
  543000   0.78245799    -7.442562    3751.9753         3992 
  544000   0.79351279   -7.4133996    3748.8401         3994 
  545000   0.78467516   -7.4163015    3746.8225         3999 
  546000   0.77446256   -7.4430343    3754.6272         3998 
  547000   0.77479873   -7.4570732    3746.7082         3998 
  548000   0.76846155   -7.4300991    3748.6699         3996 
  549000   0.78168597    -7.429379    3751.4721         3993 
  550000   0.77229393   -7.4494246    3751.5012         3999 
  551000    0.7735073   -7.4445249    3744.4769         3997 
  552000   0.78271208   -7.4398636    3761.5048         3994 
  553000   0.76804089   -7.4408342    3762.9296         3996 
  554000   0.78380949   -7.4508051    3750.9986         4000 
  555000   0.80110981   -7.4577668    3751.7141         3993 
  556000   0.78197293   -7.4461744    3748.7398         3998 
  557000   0.76477907   -7.4353152    3748.1656         3997 
  558000   0.78737597   -7.3961282    3756.9783         3994 
  559000   0.77053979   -7.4583101    3736.7476         3993 
  560000   0.77548483   -7.4653424    3752.7921         3997 
  561000   0.78626069   -7.4525922    3751.1392         3998 
  562000   0.78271903   -7.4759703    3756.8963         3998 
  563000   0.78206242   -7.4495117    3751.9059         3997 
  564000   0.77590846   -7.4590967    3749.3341         3994 
  565000   0.78690496   -7.4438439    3757.0944         3996 
  566000   0.77027723    -7.416637    3756.3425         3993 
  567000   0.76672745   -7.4320291    3755.8824         3997 
  568000   0.78082563   -7.4476158    3744.6901         3999 
  569000   0.78769593   -7.4500961    3745.4011         3997 
  570000   0.76085078   -7.4328465    3765.5557         3995 
  571000   0.78592561   -7.4416893    3743.9327         3998 
  572000    0.7873372   -7.4561661    3749.2305         3998 
  573000    0.7809639   -7.4350537    3748.8155         3996 
  574000   0.78343142   -7.4518554    3742.0302         3996 
  575000   0.78365583   -7.4481615    3762.7165         3993 
  576000   0.79089175   -7.4162662    3746.5592         3995 
  577000   0.77623703   -7.4549941    3745.3342         3996 
  578000   0.78343221   -7.4734807    3746.6204         3998 
  579000   0.77258155   -7.4282975    3763.0419         3996 
  580000   0.76962092    -7.425581    3742.9759         3994 
  581000   0.77651889   -7.4539504    3746.9097         3998 
  582000   0.78446991   -7.4574959    3747.6017         3997 
  583000   0.78675231   -7.4473446    3749.7687         4000 
  584000   0.77843384   -7.4506861    3747.0792         3996 
  585000    0.7771603   -7.4334385    3758.2272         3997 
  586000   0.79173754   -7.4506168    3754.4238         3998 
  587000   0.77505117   -7.4290784     3757.385         3997 
  588000   0.77588469   -7.4440863    3755.1395         4000 
  589000   0.78758835   -7.4756098    3753.4648         3996 
  590000   0.76208694   -7.4439851    3748.6084         3999 
  591000   0.77311098   -7.4422238    3749.4858         3998 
  592000   0.76080177   -7.4388353    3756.7136         3997 
  593000   0.79350928   -7.4677682     3751.675         3999 
  594000   0.78955586    -7.436029    3741.6369         3999 
  595000    0.7920582   -7.4666975    3744.5387         4000 
  596000   0.79498218   -7.4715324    3751.3829         3999 
  597000   0.76797163   -7.4414373    3746.5228         4000 
  598000   0.77506757    -7.457431    3738.3782         3996 
  599000   0.79897869   -7.4426222    3742.5665         3997 
  600000    0.7496701   -7.4584362    3748.7205         3998 
  601000   0.78021026   -7.4444212     3741.571         3997 
  602000   0.75707551   -7.4518093    3758.6785         3998 
  603000   0.76971838   -7.4570284    3746.4288         3999 
  604000   0.77420211   -7.4569436    3749.9681         4000 
  605000   0.78354946   -7.4411745    3747.4992         3997 
  606000   0.77674492   -7.4371645    3758.4487         3993 
  607000   0.76998239   -7.4222837    3733.4223         3997 
  608000   0.76818021   -7.4720075    3745.4624         3995 
  609000   0.78264637   -7.4416667    3746.2487         3995 
  610000   0.78449286   -7.4331859    3747.0695         3987 
  611000   0.77839325   -7.4370844    3740.1305         3997 
  612000    0.8009045   -7.4437765      3760.27         3998 
  613000   0.78882782   -7.4449473    3741.5206         3998 
  614000   0.76473671   -7.4485245    3753.6242         3997 
  615000   0.77700362   -7.4394953    3742.3976         3996 
  616000   0.79389272   -7.4464918    3741.8414         3997 
  617000   0.78581826    -7.450392    3747.0001         3995 
  618000   0.77270969   -7.4393547    3747.1014         3997 
  619000   0.78202229   -7.4459113    3750.1216         3995 
  620000   0.76491866    -7.457661    3739.9373         3995 
  621000    0.7931328   -7.4748714    3748.9479         3998 
  622000   0.77949487   -7.4477322    3747.6284         3999 
  623000   0.78985533   -7.4449471    3744.2722         3993 
  624000   0.75890896   -7.4540708    3745.7226         3997 
  625000   0.77224001   -7.4589432    3759.9105         3996 
  626000   0.78275568   -7.4557645    3746.4757         3998 
  627000   0.77164284   -7.4361949    3753.5231         3998 
  628000   0.78713178   -7.4414428    3744.6641         3997 
  629000   0.76611416   -7.4511267    3741.0567         3996 
  630000   0.77066229   -7.4608186    3741.4187         3996 
  631000   0.77836525   -7.4453987    3752.0638         3993 
  632000   0.78417083   -7.4399946    3743.0905         3997 
  633000   0.78119008   -7.4111361    3751.1092         3998 
  634000   0.78419841   -7.4325055    3751.5036         3998 
  635000   0.80504682   -7.4567456    3757.2249         3995 
  636000   0.79009621   -7.4404519    3754.0862         3995 
  637000   0.77493306   -7.4457698    3752.9431         3998 
  638000   0.78701334   -7.4491901    3741.1446         3995 
  639000   0.76751139   -7.4389029    3751.7405         3997 
  640000    0.7731578   -7.4113692    3739.5665         3997 
  641000   0.77420291   -7.4334536    3755.6332         3998 
  642000   0.77424894   -7.4534862    3750.1303         3999 
  643000   0.76250882   -7.4154332    3751.2833         3999 
  644000    0.7847202    -7.447399    3754.5478         3998 
  645000   0.77848358   -7.4507801    3743.8058         3998 
  646000   0.77565529   -7.4615889    3750.5661         3997 
  647000   0.79228502   -7.4674649    3740.1261         3997 
  648000   0.78551926   -7.4569505    3754.0478         3998 
  649000   0.76183605   -7.4204747    3758.7168         3995 
  650000   0.78403842   -7.4555319    3752.2314         3995 
  651000   0.77261679     -7.42614    3751.8637         3997 
  652000   0.78049685    -7.462509    3750.8339         3996 
  653000   0.75710651   -7.4370588    3746.0496         3999 
  654000   0.76387355   -7.4763139    3752.1111         3999 
  655000   0.75857156   -7.4210114    3744.7619         4000 
  656000   0.77518133   -7.4369719    3753.9699         3995 
  657000   0.78726247   -7.4711611    3747.7626         3997 
  658000   0.77840095   -7.4380567     3744.148         3995 
  659000   0.77245561   -7.4438619    3745.6658         4000 
  660000   0.77991037   -7.4359249    3756.7904         3994 
  661000   0.77753876   -7.4474715    3756.1461         3996 
  662000   0.79066901   -7.4509217    3752.5186         3998 
  663000   0.78020245   -7.4441058    3751.7666         3998 
  664000   0.77992855   -7.4370805    3755.2835         3997 
  665000   0.77741707   -7.4599609    3736.4867         4000 
  666000   0.77240996   -7.4424385    3752.4787         3997 
  667000   0.75955022   -7.4555613    3756.0356         3997 
  668000   0.76475436   -7.4461272    3767.0289         3997 
  669000   0.78504295   -7.4387427     3758.554         3994 
  670000   0.78078777   -7.4533456    3749.7837         3999 
  671000   0.78578777   -7.4383917    3753.0098         3999 
  672000   0.77669442   -7.4341999    3743.6795         3997 
  673000   0.79597802   -7.4445512    3756.4852         3997 
  674000   0.78474831   -7.4497488    3739.2233         3998 
  675000   0.76285151   -7.4538265    3748.7506         3996 
  676000   0.77839455   -7.4416394    3750.6511         3997 
  677000   0.78105608   -7.4311841    3759.2825         3997 
  678000   0.78402226   -7.4729048     3758.314         3996 
  679000   0.77757055   -7.4441129     3749.934         3999 
  680000   0.78236254   -7.4613025    3752.5085         3996 
  681000   0.76495781   -7.4491762     3746.065         3997 
  682000   0.78300651    -7.450466    3739.0946         3991 
  683000   0.76786176   -7.4369273    3745.6628         3995 
  684000   0.78935611   -7.4355259     3746.899         3998 
  685000   0.78505555   -7.4302903    3761.7001         3997 
  686000   0.77726088   -7.4303216    3754.9967         3999 
  687000   0.76746447    -7.404423    3752.5937         3999 
  688000   0.78480067   -7.4652437    3747.0766         3997 
  689000    0.7766657   -7.4242216    3754.3666         3998 
  690000   0.78870184   -7.4611079    3754.2344         3997 
  691000   0.80515983   -7.4533858    3754.4622         3995 
  692000   0.78326966   -7.4609253      3754.46         3998 
  693000    0.7954808   -7.4503245    3738.4955         3999 
  694000   0.76569817   -7.4479624    3758.0091         3996 
  695000   0.79870456   -7.4712937    3746.4405         3997 
  696000   0.78563609   -7.4175754    3747.3473         3996 
  697000   0.78842258   -7.4378434    3752.2763         3997 
  698000   0.78509193   -7.4564645     3745.896         3999 
  699000   0.79797412    -7.448593    3746.8651         3994 
  700000   0.78901327   -7.4682255    3747.2445         3999 
  701000   0.78477516    -7.458096    3753.4384         4000 
  702000   0.77628591   -7.4452007    3752.6104         3993 
  703000   0.76871547   -7.4568225     3759.007         3994 
  704000   0.77214186   -7.4394326    3764.2118         3993 
  705000   0.77809392   -7.4507233     3747.531         3999 
  706000   0.77623321   -7.4191711     3744.694         3998 
  707000    0.7824316   -7.4229347    3756.8655         3998 
  708000   0.77043332   -7.4608592    3753.4327         3998 
  709000   0.77646308   -7.4777354    3747.5866         3997 
  710000   0.78562991   -7.4575162    3752.7935         3996 
  711000   0.77880789   -7.4516031    3759.9724         3995 
  712000   0.78865124   -7.4286296     3758.559         3999 
  713000   0.77695819   -7.4568156    3760.0989         3996 
  714000   0.78191002   -7.4571915    3751.4275         3999 
  715000   0.79948537   -7.4286583    3742.5364         3997 
  716000   0.77666304   -7.4635043     3753.929         3995 
  717000   0.78544284   -7.4493222    3743.3439         3997 
  718000   0.77648954   -7.4669536    3749.8986         3997 
  719000   0.77487782   -7.4536638    3752.4633         3997 
  720000   0.79645045   -7.4481958    3761.1623         3998 
  721000   0.75899604    -7.432231    3757.5581         3995 
  722000   0.77353429   -7.4174129    3750.9215         3998 
  723000   0.77547617   -7.4488998     3755.837         3998 
  724000   0.78368377    -7.437248     3760.842         3997 
  725000    0.7641064   -7.4301543    3745.9172         3995 
  726000   0.78087487   -7.4560511    3756.5036         3993 
  727000   0.78974056   -7.4526514    3743.1466         3994 
  728000   0.79415562    -7.451831    3743.8808         3999 
  729000   0.77370682   -7.4372692    3753.6893         3992 
  730000   0.75850848   -7.4479325     3763.006         3996 
  731000   0.77451412   -7.4362149    3750.6218         3995 
  732000   0.77545319   -7.4400107    3746.5472         3995 
  733000   0.81092663   -7.4131789    3751.9529         3993 
  734000   0.79718606   -7.4371158    3754.9128         3995 
  735000   0.77050781   -7.4293286    3759.5341         3998 
  736000   0.76778255   -7.4598338    3757.7778         3999 
  737000    0.7864309    -7.432915     3743.929         3996 
  738000   0.77834464   -7.4598751     3751.604         3996 
  739000   0.79087158   -7.4502047     3754.849         3999 
  740000   0.77813523   -7.4551348    3753.3458         3999 
  741000   0.78098248    -7.451513    3767.4125         3998 
  742000   0.77261831   -7.4616052    3751.7086         3997 
  743000   0.77827153   -7.4448426    3756.6312         3997 
  744000   0.77425897   -7.4541894    3751.2607         4000 
  745000   0.76637541   -7.4343956    3738.1392         4000 
  746000   0.77837283   -7.4466337    3750.4065         3997 
  747000   0.80032289   -7.4478977    3749.5319         3999 
  748000   0.78893172   -7.4712363    3747.2715         3998 
  749000   0.78485998   -7.4634909    3738.6924         3994 
  750000   0.77196004   -7.4521933     3761.091         3998 
  751000   0.78343081   -7.4536133    3756.7893         3998 
  752000   0.75118762   -7.4333938    3755.1467         3995 
  753000   0.78935129   -7.4305838    3749.3574         3999 
  754000   0.77283805   -7.4446097    3753.7329         3999 
  755000   0.78753845   -7.4466802    3755.8037         3994 
  756000   0.78316556   -7.4515182    3752.9186         3994 
  757000   0.78456802   -7.4511688    3756.1003         3998 
  758000   0.77775244   -7.4359077    3744.8928         3997 
  759000   0.78364054   -7.4305934    3764.2875         3998 
  760000   0.77445011    -7.437191    3742.8095         3996 
  761000   0.76766509   -7.4715702    3754.1362         3997 
  762000   0.80183231   -7.4278606    3744.0689         3998 
  763000   0.80097765   -7.4434137    3744.4753         4000 
  764000   0.77201026   -7.4428722    3745.0636         3998 
  765000   0.76389859   -7.4415239     3740.491         3997 
  766000    0.7925436   -7.4602874    3746.1529         3998 
  767000    0.7707097     -7.42701    3741.9531         3999 
  768000   0.77743369   -7.4538457     3746.474         3999 
  769000   0.77334694   -7.4417718    3758.8061         3996 
  770000   0.77554578   -7.4182569    3748.1584         3998 
  771000   0.78298125   -7.4254672    3754.8548         3998 
  772000   0.77103796   -7.4607545    3756.0002         3996 
  773000   0.77158959   -7.4663293    3750.2562         3993 
  774000   0.76035748   -7.4368792    3748.6461         3998 
  775000    0.7887918   -7.4557785    3750.9401         3996 
  776000   0.77970659   -7.4390593    3764.9861         3992 
  777000   0.77550142    -7.450443    3749.2858         3996 
  778000    0.7858861   -7.4344498    3752.3678         3998 
  779000   0.78094786   -7.4189809    3759.5181         3997 
  780000   0.76414086   -7.4519702    3752.1857         3998 
  781000   0.79866192   -7.4499459    3754.1066         3996 
  782000   0.76524971   -7.4133744    3753.7804         3997 
  783000   0.79190067   -7.4415056    3758.5758         3998 
  784000   0.78857491   -7.4479087    3765.5761         3994 
  785000   0.77186529    -7.440403    3760.8465         3997 
  786000   0.77831764      -7.4549     3757.102         3998 
  787000   0.77155149   -7.4450332    3753.5237         3998 
  788000   0.77345329   -7.4193194     3745.863         3999 
  789000   0.78849268   -7.4650013    3764.5632         3998 
  790000    0.7874471   -7.4357722    3741.9897         3997 
  791000   0.78583256    -7.459649    3753.2675         3998 
  792000   0.79049881   -7.4490609    3746.0837         3998 
  793000   0.78654235    -7.437169    3735.6542         3998 
  794000   0.78905315   -7.4368468    3750.9273         3995 
  795000   0.76868577   -7.4684841    3752.2793         3998 
  796000   0.76831576    -7.428295    3751.1014         3997 
  797000   0.77841356   -7.4311512    3748.8987         3997 
  798000   0.76901991   -7.4488831    3757.7302         3999 
  799000   0.78063425   -7.4304812    3757.1282         3997 
  800000   0.78589939   -7.4540538    3763.4119         3995 
  801000   0.78326344   -7.4586921    3745.4077         3994 
  802000    0.7984964   -7.4243805     3753.101         3993 
  803000   0.78742584   -7.4557807    3742.8863         3998 
  804000   0.76631021   -7.4411468    3755.9144         3996 
  805000   0.78061435   -7.4363539     3758.299         3999 
  806000   0.77591802    -7.432179    3754.6875         3997 
  807000   0.77453569   -7.4589945    3741.9249         3996 
  808000   0.80037223   -7.4327889    3758.2399         3994 
  809000   0.77942058   -7.4568711    3740.6292         3998 
  810000   0.79787801   -7.4500161    3756.2012         3998 
  811000   0.78955532   -7.4603942    3751.1373         3998 
  812000   0.77126814   -7.4142784    3771.0191         3997 
  813000   0.75684857   -7.4596757    3753.9741         4000 
  814000   0.76690886   -7.4530218    3748.4044         3999 
  815000   0.75669401   -7.4372145    3758.0253         3996 
  816000    0.7821395   -7.4370889    3752.4521         3995 
  817000   0.77155102    -7.442864    3746.9354         3999 
  818000   0.77185439   -7.4400355    3744.8356         3998 
  819000   0.77567573   -7.4599152     3755.711         3998 
  820000   0.77968608   -7.4428214      3762.04         3994 
  821000   0.79492131   -7.4490828     3755.013         3998 
  822000   0.77871598   -7.4190909    3747.0407         3998 
  823000   0.78852798   -7.4328029    3741.4545         3999 
  824000   0.79093714    -7.444019    3746.0305         4000 
  825000   0.76720118   -7.4431586    3746.5286         3997 
  826000   0.78151369   -7.4463266    3753.7944         3998 
  827000   0.77375992   -7.4512355     3750.289         3995 
  828000    0.7700219   -7.4591949    3752.3395         3999 
  829000   0.79462015     -7.45051    3749.5121         3996 
  830000   0.77674328   -7.4587495    3753.2683         3995 
  831000   0.75938697   -7.4621642    3751.9798         3999 
  832000   0.78264363   -7.4533031    3741.5008         3999 
  833000   0.77579006   -7.4384777    3762.3814         3998 
  834000   0.77355593   -7.4593804    3743.6146         3996 
  835000   0.76207495   -7.4776973    3757.6659         3996 
  836000   0.77998483   -7.4600391     3738.204         3995 
  837000   0.77210732   -7.4658333    3754.0701         3999 
  838000   0.77484534   -7.4401811    3756.9001         3999 
  839000   0.77088856   -7.4686027    3750.0624         3995 
  840000   0.77343111   -7.4532426    3766.4271         3997 
  841000   0.77407248   -7.4342379    3749.6362         4000 
  842000   0.79051878   -7.4590068    3759.1855         3997 
  843000   0.78845993   -7.4495533    3742.1672         3995 
  844000   0.79425802   -7.4287438    3754.5386         3998 
  845000   0.78117719   -7.4351666    3755.1305         3997 
  846000   0.77061417   -7.4338801    3750.4978         3996 
  847000   0.77897755   -7.4509614    3754.4775         3998 
  848000   0.78036645   -7.4323594    3753.3218         3993 
  849000   0.78373724   -7.4546614    3749.0952         3995 
  850000   0.80353729   -7.4391728    3744.3152         3993 
  851000   0.77866652   -7.4349945    3746.6428         3996 
  852000   0.79315389   -7.4272333     3757.234         3995 
  853000   0.80179534   -7.4656643    3748.9973         3997 
  854000   0.78291094   -7.4686483    3741.4019         3995 
  855000   0.78190801    -7.448786    3755.5461         3997 
  856000   0.78662085   -7.4688029     3751.026         3997 
  857000   0.76210091   -7.4630686    3745.3684         3997 
  858000   0.78364028   -7.4603236    3755.1451         3999 
  859000   0.76315609   -7.4460784    3744.8633         3992 
  860000   0.78177994   -7.4515853    3749.5809         3996 
  861000   0.77911549   -7.4454532    3759.7841         3999 
  862000   0.77429479   -7.4479089    3750.5781         3996 
  863000   0.80020093   -7.4145585    3742.6879         4000 
  864000   0.78177125    -7.457783    3742.0958         3999 
  865000    0.7729454   -7.4591498    3751.0414         3998 
  866000   0.78687079   -7.4319744    3755.2502         3997 
  867000   0.78691789   -7.4380611    3750.9209         3995 
  868000   0.77827915   -7.4449291    3743.1837         3995 
  869000   0.77212632   -7.4579605    3752.2984         4000 
  870000   0.78208988   -7.4512731    3750.3073         3995 
  871000   0.79373094   -7.4565735    3755.8668         3995 
  872000    0.7660774   -7.4452182    3744.0563         3995 
  873000   0.79167083   -7.4360748    3760.7584         3994 
  874000   0.78857878   -7.4548549    3742.4668         3998 
  875000   0.79360012   -7.4578023    3753.9796         3996 
  876000   0.78789901   -7.4398647    3749.6161         3995 
  877000   0.78754286    -7.471282    3756.8285         3999 
  878000   0.79201509   -7.4479743    3748.0893         3998 
  879000   0.81193933   -7.4712188    3754.4301         3999 
  880000   0.77987995   -7.4380538    3755.7557         3999 
  881000   0.77583697     -7.43325     3754.541         3994 
  882000   0.79682697   -7.4642721    3752.6244         4000 
  883000   0.77874975   -7.4408405    3763.6495         3994 
  884000   0.77172455   -7.4227587    3759.9636         3998 
  885000   0.75958425   -7.4290267    3754.0087         3995 
  886000   0.75515485   -7.4718775    3752.3066         3997 
  887000   0.78274753   -7.4443043    3760.4743         3993 
  888000   0.79284258    -7.432398    3753.5312         3995 
  889000   0.80633404    -7.452394    3753.2442         3997 
  890000   0.75938529   -7.4283615    3757.8397         3995 
  891000   0.77986173   -7.4743888    3751.3551         3995 
  892000   0.76960554   -7.4502292    3760.5691         3996 
  893000   0.77366096   -7.4224025    3738.9958         3990 
  894000   0.78048758   -7.4690083    3759.3993         3998 
  895000   0.79291176   -7.4520637    3761.7836         3995 
  896000   0.79094927   -7.4352393    3747.1555         3997 
  897000   0.78153079    -7.422862    3747.5102         3995 
  898000   0.77980865   -7.4414166    3736.2261         3997 
  899000   0.78478738   -7.4469444    3752.9339         3999 
  900000   0.75916475   -7.4376245    3749.6067         3997 
  901000   0.78040991   -7.4403674    3756.9635         3996 
  902000    0.7802562   -7.4148721    3763.7137         3989 
  903000    0.7919674   -7.4356356    3748.1139         3996 
  904000   0.78386257   -7.4909969    3761.1004         3994 
  905000   0.76665071   -7.4502571    3746.7361         3995 
  906000   0.78684575   -7.4421122    3755.0654         3994 
  907000   0.76976143   -7.4519638    3754.5566         3998 
  908000   0.78339438   -7.4358782    3756.3087         3998 
  909000   0.79872775   -7.4529206    3759.1983         3998 
  910000   0.77916832   -7.4495499    3750.9856         3997 
  911000      0.77828   -7.4639613    3763.0112         3993 
  912000   0.78362362    -7.474249    3749.0977         3996 
  913000   0.78089453   -7.4397376     3742.236         3998 
  914000   0.78454653   -7.4583268    3760.9364         3996 
  915000   0.77552537   -7.4296138    3751.0331         3995 
  916000   0.78660847   -7.4696098    3746.8433         4000 
  917000   0.79248688   -7.4252221    3741.2666         3998 
  918000   0.78394015   -7.4521207      3746.25         3997 
  919000   0.78893501   -7.4723825     3745.893         3997 
  920000   0.77193691   -7.4367996    3750.1438         3997 
  921000   0.78051673   -7.4319094    3753.7229         3994 
  922000   0.78520769   -7.4263747    3761.6286         3994 
  923000   0.77264527   -7.4652774    3738.9802         3997 
  924000   0.77076616   -7.4231431     3763.118         3998 
  925000   0.78150329   -7.4556742    3745.9258         3994 
  926000   0.78336719    -7.451331    3749.8376         3996 
  927000   0.78736642   -7.4287659    3750.6345         3997 
  928000   0.78311771   -7.4519472    3760.8691         3999 
  929000   0.77688274   -7.4639987     3752.173         3992 
  930000   0.80003385   -7.4558818    3754.7787         3994 
  931000   0.78595351   -7.4697125    3751.5641         3997 
  932000   0.78820933   -7.4653449     3745.567         3993 
  933000    0.7779151   -7.4379616     3748.789         3992 
  934000   0.77562817   -7.4419964    3755.1642         3995 
  935000   0.79308412   -7.4609726    3751.7099         3997 
  936000   0.77844482    -7.463306    3748.5109         3998 
  937000   0.79046086   -7.4680831    3749.7784         3995 
  938000   0.76616591   -7.4496861    3752.9841         3998 
  939000   0.79523372   -7.4496715    3733.4945         3993 
  940000   0.78076507   -7.4600508    3741.5204         3999 
  941000   0.78175884   -7.4326796    3747.3447         3995 
  942000   0.77764785   -7.4293078    3751.3861         3997 
  943000   0.77881303   -7.4243353    3747.6924         3992 
  944000   0.78652249   -7.4645192    3756.3614         3994 
  945000   0.78850115   -7.4300094    3751.0116         3996 
  946000   0.80165946    -7.430033    3746.8559         3998 
  947000   0.76871194   -7.4650235    3750.4838         3997 
  948000   0.78505188    -7.437799    3746.0915         3992 
  949000   0.77517501    -7.453869    3748.0197         3999 
  950000    0.7760378    -7.462163     3743.291         3993 
  951000   0.78347127   -7.4190318     3753.835         3999 
  952000   0.78075928   -7.4523924    3760.3579         3991 
  953000   0.77550386   -7.4636765       3759.6         3997 
  954000   0.76111873   -7.4413586    3757.7629         3999 
  955000   0.77788673   -7.4378515    3751.6384         3996 
  956000   0.76957721   -7.4427501    3753.6495         3993 
  957000   0.78416099   -7.4302811     3748.408         3996 
  958000   0.77235247    -7.437575    3740.7943         4000 
  959000   0.78195286   -7.4225628    3746.8622         3996 
  960000   0.78708273   -7.4404641    3756.0475         3994 
  961000   0.78100072   -7.4398538    3760.6389         3997 
  962000   0.77068359    -7.434125    3746.7891         3995 
  963000   0.79587538    -7.412941    3760.0769         3994 
  964000   0.76759437   -7.4669858    3749.7324         3993 
  965000   0.79779949   -7.4450646    3740.3002         3992 
  966000    0.7913953   -7.4428471    3746.3912         3993 
  967000   0.79752705   -7.4468365    3749.3408         3996 
  968000   0.76712739   -7.4545069    3741.0439         3996 
  969000   0.77860715   -7.4581616    3754.6316         3995 
  970000   0.79324649   -7.4242012    3739.6049         3998 
  971000   0.77554908   -7.4378073    3746.8769         3995 
  972000   0.76882192   -7.4497986    3736.1101         3997 
  973000   0.77585663   -7.4340031    3756.6713         3996 
  974000   0.78622127    -7.446674    3753.7174         3996 
  975000   0.78028927   -7.4424946    3755.5235         3997 
  976000   0.77726321   -7.4242468    3749.6008         3995 
  977000   0.77502249   -7.4559607      3751.91         3996 
  978000   0.78642117   -7.4422338     3757.726         3998 
  979000   0.78638172   -7.4263924    3757.3574         3998 
  980000   0.79690848   -7.4607229    3740.2333         3994 
  981000   0.77974472   -7.4411638    3747.5994         3996 
  982000   0.78947308   -7.4579336    3736.4476         3993 
  983000   0.77128473   -7.4654273    3753.7121         3993 
  984000   0.76954498   -7.4589307    3747.0759         3994 
  985000   0.76949204     -7.42484    3751.0108         3998 
  986000   0.77813992   -7.4585605    3747.3696         3997 
  987000   0.79320568   -7.4594374    3754.2174         3993 
  988000   0.77970411   -7.4517713    3745.9075         3997 
  989000   0.78499004   -7.4507332    3744.8805         3995 
  990000   0.78002871   -7.4630454    3753.4012         3996 
  991000   0.78929145   -7.4522924    3752.5803         3992 
  992000   0.78896418    -7.444641    3743.6693         3997 
  993000    0.7917893   -7.4531513    3747.1205         3999 
  994000   0.75950017   -7.4710696    3745.3438         3997 
  995000   0.78192793   -7.4323148    3754.5326         3994 
  996000   0.77751023   -7.4387836    3743.7446         3997 
  997000   0.78385734   -7.4408292    3745.4747         3996 
  998000   0.78046645   -7.4536237    3748.9386         3995 
  999000   0.77885276   -7.4299013    3757.2635         3993 
 1000000   0.77587593   -7.4586856    3743.6427         3995 
 1001000   0.78293409   -7.4539686    3744.6881         3998 
 1002000   0.78716674   -7.4569848    3760.2494         3996 
 1003000    0.7720194     -7.46401    3741.6086         3998 
 1004000   0.77859961   -7.4410359    3739.4465         3997 
Loop time of 2135.46 on 48 procs for 1000000 steps with 4000 atoms

Performance: 80919.257 tau/day, 468.283 timesteps/s
99.4% CPU use with 48 MPI tasks x no OpenMP threads

MPI task timing breakdown:
Section |  min time  |  avg time  |  max time  |%varavg| %total
---------------------------------------------------------------
Pair    | 129.39     | 142.5      | 154.58     |  57.1 |  6.67
Neigh   | 12.904     | 13.161     | 13.472     |   3.6 |  0.62
Comm    | 111.27     | 123.99     | 140.54     |  56.8 |  5.81
Output  | 2.295      | 2.2959     | 2.3135     |   0.2 |  0.11
Modify  | 1817.8     | 1829.2     | 1839.9     |  13.7 | 85.66
Other   |            | 24.28      |            |       |  1.14

Nlocal:        83.3333 ave          87 max          80 min
Histogram: 1 4 10 0 15 7 0 7 0 4
Nghost:        1714.42 ave        1728 max        1701 min
Histogram: 2 3 7 4 10 7 4 5 3 3
Neighs:        10006.3 ave       10772 max        9391 min
Histogram: 3 2 8 6 10 11 4 1 2 1
FullNghs:      20012.2 ave       21331 max       18856 min
Histogram: 1 2 9 8 5 12 6 2 1 2

Total # of neighbors = 960585
Ave neighs/atom = 240.14625
Neighbor list builds = 52660
Dangerous builds = 0

#clear
#
#next RN
#
#jump SELF
Total wall time: 0:35:36
