
units lj                  # Use reduced LJ style units
atom_style atomic         # Uncharged point particles
atom_modify map hash      # Needed for indexing of clusters etc
                          # Used to be able to find where atoms are in relation to each other.

# Define a lattice with which to populate the simulation cell. With units
# set to 'lj' the second argument to the lattice command is the reduced
# density rho* and the spacings are multiples of that required to acheive
# that density. Also define a simulation cell called 'box' in lattice units
# and fill it with atoms. Here we're creating a box which is ten lattice
# constants in each direction.
lattice fcc 1.0 spacing 1 1 1                 # All equal sizes - gives the right reduced density.
Lattice spacing in x,y,z = 1.5874011 1.5874011 1.5874011

region box block 0 10 0 10 0 10 units lattice # Defines a region, "box", in lattice units
create_box 1 box                              # Creates a simulation box as specified above,
Created orthogonal box = (0.0000000 0.0000000 0.0000000) to (15.874011 15.874011 15.874011)
  2 by 3 by 4 MPI processor grid
                                              # with one type of atom
create_atoms 1 box                            # Creates particles on lattice points
Created 4000 atoms
  using lattice units in orthogonal box = (0.0000000 0.0000000 0.0000000) to (15.874011 15.874011 15.874011)
  create_atoms CPU = 0.002 seconds


# Set the mass of the first (and only) atom type.
mass 1 1.0

# Lennard-Jones interactions between particles, 3.5 sigma cut-off. Apply
# long range tail corrections to energy and pressure and set all coefficients
# to unity since we work in reduced units here. Note that this doesn't shift
# the potential such that it goes to zero at the cutoff. That would require
# pair_modify('shift', 'yes').
pair_style lj/cut  3.5      # non-GPU version
pair_modify tail  yes
pair_coeff 1  1  1.0  1.0   # Intearaction between 1 and 1 set with epsilon = 1 and sigma = 1

write_data data.*
System init for write_data ...
Neighbor list info ...
  update every 1 steps, delay 10 steps, check yes
  max neighbors/atom: 2000, page size: 100000
  master list distance cutoff = 3.8
  ghost atom cutoff = 3.8
  binsize = 1.9, bins = 9 9 9
  1 neighbor lists, perpetual/occasional/extra = 1 0 0
  (1) pair lj/cut, perpetual
      attributes: half, newton on
      pair build: half/bin/atomonly/newton
      stencil: half/bin/3d
      bin: standard

#############################
#   M E L T   S Y S T E M   #
#############################

velocity all create 2.4 1741580 mom yes dist gaussian # Assign velocities
                                                    # Temperature 2.4, random number seed, zero linear momentum
						                                                        # Gaussian distribution

timestep 0.002   # simulation timestep
thermo 100       # output thermodynamic data every 100 steps

# Define a fix  in this case with index 1 applied to all
# particles in the simulation. This fix is for simulations
# in the anisotropic NPT ensemble. Note that we use the MTK
# correction.
fix 1 all npt temp 2.4 2.4 0.1 iso 5.68 5.68 0.5 mtk yes tchain 5 pchain 5 # Use NPT ensemble
                                                                         # Set temperature and pressure and damping
                                                                         # Numbers of thermostats in chain and in barostat
run 1000         # run for 10000 steps
Per MPI rank memory allocation (min/avg/max) = 3.676 | 3.679 | 3.684 Mbytes
Step Temp E_pair E_mol TotEng Press Volume 
       0          2.4   -8.3859253            0   -4.7868253   -2.2405722         4000 
     100    1.2552531   -6.5115672            0   -4.6291582     5.497081    4088.0579 
     200    1.4628633    -6.289567            0   -4.0958206    6.0903972    4138.0466 
     300    1.5904925   -6.0345783            0   -3.6494359    5.7376042    4272.4771 
     400    1.6850752   -5.7072351            0   -3.1802542    5.9705826    4399.2373 
     500    1.7895599   -5.4225046            0   -2.7388358     5.865757    4546.8704 
     600    1.8965854   -5.1442855            0   -2.3001186     5.865539    4691.2751 
     700    2.0304439     -4.92263            0   -1.8777256    5.8141752    4830.4151 
     800    2.1710171   -4.7567122            0   -1.5010006    5.6106115    4968.6247 
     900    2.2247838   -4.5230698            0   -1.1867284    5.8051376    5086.8715 
    1000     2.364264   -4.4348938            0  -0.88938446    5.9115751    5144.0032 
Loop time of 0.321476 on 24 procs for 1000 steps with 4000 atoms

Performance: 537520.195 tau/day, 3110.649 timesteps/s
99.3% CPU use with 24 MPI tasks x no OpenMP threads

MPI task timing breakdown:
Section |  min time  |  avg time  |  max time  |%varavg| %total
---------------------------------------------------------------
Pair    | 0.17593    | 0.18654    | 0.19845    |   1.2 | 58.03
Neigh   | 0.03371    | 0.035305   | 0.037505   |   0.5 | 10.98
Comm    | 0.062691   | 0.075048   | 0.085447   |   2.1 | 23.34
Output  | 0.00020555 | 0.00021132 | 0.00028169 |   0.0 |  0.07
Modify  | 0.020027   | 0.02217    | 0.024892   |   1.0 |  6.90
Other   |            | 0.0022     |            |       |  0.68

Nlocal:        166.667 ave         176 max         152 min
Histogram: 1 0 2 0 3 4 6 4 3 1
Nghost:        1840.88 ave        1857 max        1826 min
Histogram: 3 1 3 4 1 2 4 4 0 2
Neighs:        14784.9 ave       15702 max       13755 min
Histogram: 2 1 1 5 1 3 5 0 4 2

Total # of neighbors = 354837
Ave neighs/atom = 88.709250
Neighbor list builds = 86
Dangerous builds = 16

# Equilibrate just above the melting temperature to avoid step fn in T

fix 1 all npt temp 1.25 1.25 0.1 iso 5.68 5.68 0.5 mtk yes tchain 5 pchain 5
run 1000
Per MPI rank memory allocation (min/avg/max) = 3.677 | 3.680 | 3.685 Mbytes
Step Temp E_pair E_mol TotEng Press Volume 
    1000     2.364264   -4.4348938            0  -0.88938446    5.9115751    5144.0032 
    1100    1.9499649   -4.6617779            0   -1.7375618    5.8205171    4978.7844 
    1200    1.7213197   -4.9482774            0   -2.3669434    5.7402188    4808.4294 
    1300    1.5721809   -5.1954201            0   -2.8377383    5.7003773    4667.9329 
    1400    1.4692769   -5.4052033            0   -3.2018389    5.6740098     4560.708 
    1500    1.3897296   -5.5637068            0   -3.4796336    5.6667574    4476.2103 
    1600    1.2963572   -5.6470084            0   -3.7029588    5.6441736    4434.9383 
    1700    1.2716936   -5.7363737            0   -3.8293102    5.7159049    4387.6158 
    1800    1.2561313   -5.8008832            0   -3.9171572    5.6027564    4366.0004 
    1900     1.242552   -5.8327759            0   -3.9694139    5.6800198    4347.3872 
    2000    1.2686809   -5.8614487            0   -3.9589031    5.5394068    4347.1855 
Loop time of 0.313653 on 24 procs for 1000 steps with 4000 atoms

Performance: 550928.031 tau/day, 3188.241 timesteps/s
99.7% CPU use with 24 MPI tasks x no OpenMP threads

MPI task timing breakdown:
Section |  min time  |  avg time  |  max time  |%varavg| %total
---------------------------------------------------------------
Pair    | 0.18068    | 0.18534    | 0.19354    |   0.8 | 59.09
Neigh   | 0.030726   | 0.031318   | 0.032574   |   0.2 |  9.98
Comm    | 0.063833   | 0.072762   | 0.078835   |   1.4 | 23.20
Output  | 0.00020148 | 0.00020747 | 0.00026881 |   0.0 |  0.07
Modify  | 0.020491   | 0.021549   | 0.022423   |   0.3 |  6.87
Other   |            | 0.002475   |            |       |  0.79

Nlocal:        166.667 ave         176 max         159 min
Histogram: 1 1 7 1 4 5 1 3 0 1
Nghost:        2035.25 ave        2048 max        2013 min
Histogram: 1 0 2 0 4 2 5 1 6 3
Neighs:        17526.7 ave       18387 max       16728 min
Histogram: 3 2 3 3 2 3 1 2 2 3

Total # of neighbors = 420641
Ave neighs/atom = 105.16025
Neighbor list builds = 76
Dangerous builds = 5


# Small amount of linear quench

fix 1 all npt temp 1.25 ${temp} 0.1 iso 5.68 5.68 0.5 mtk yes tchain 5 pchain 5
fix 1 all npt temp 1.25 0.44 0.1 iso 5.68 5.68 0.5 mtk yes tchain 5 pchain 5
run 2000
Per MPI rank memory allocation (min/avg/max) = 3.677 | 3.680 | 3.685 Mbytes
Step Temp E_pair E_mol TotEng Press Volume 
    2000    1.2686809   -5.8614487            0   -3.9589031    5.5394068    4347.1855 
    2100    1.2135191   -5.8521189            0   -4.0322953    5.6373979    4338.2553 
    2200    1.1899992   -5.9039619            0   -4.1194094    5.5415169    4325.9015 
    2300    1.1694286   -5.9500444            0     -4.19634     5.521684    4307.0595 
    2400    1.1456352   -5.9900127            0   -4.2719895    5.7076365    4271.5311 
    2500    1.1077603   -6.0383913            0   -4.3771663    5.7848801    4244.5125 
    2600    1.0626413   -6.1041279            0   -4.5105644    5.6123058    4225.6079 
    2700    1.0172092   -6.1832112            0   -4.6577788    5.2797865    4219.8075 
    2800   0.98041137   -6.2455575            0   -4.7753081    5.3071599    4190.0683 
    2900   0.95078455   -6.3004618            0   -4.8746415    5.5263389    4151.4402 
    3000   0.91882952   -6.3692939            0   -4.9913942    5.6840549    4112.3669 
    3100   0.86803995   -6.4205981            0   -5.1188637    5.7426665    4085.6632 
    3200    0.8281952    -6.489412            0   -5.2474297    5.6918538    4063.5524 
    3300   0.78831006   -6.5381738            0   -5.3560043    5.7290859    4038.3525 
    3400   0.74689681   -6.6108975            0   -5.4908324    5.5912431    4021.1744 
    3500   0.71351815   -6.6848901            0   -5.6148805    5.5809134    3992.1809 
    3600   0.66703057   -6.7377085            0   -5.7374128    5.6776806     3966.446 
    3700   0.62538589   -6.7979024            0   -5.8600581    5.6855997    3943.2434 
    3800    0.5982553   -6.8629137            0   -5.9657551    5.8719235    3909.1637 
    3900   0.55978889   -6.9219241            0   -6.0824507    5.8787152    3886.7468 
    4000   0.51709335   -6.9840273            0   -6.2085812    5.8216806    3868.9978 
Loop time of 0.659631 on 24 procs for 2000 steps with 4000 atoms

Performance: 523928.975 tau/day, 3031.996 timesteps/s
99.7% CPU use with 24 MPI tasks x no OpenMP threads

MPI task timing breakdown:
Section |  min time  |  avg time  |  max time  |%varavg| %total
---------------------------------------------------------------
Pair    | 0.39811    | 0.41172    | 0.43111    |   1.3 | 62.42
Neigh   | 0.047283   | 0.048529   | 0.049605   |   0.2 |  7.36
Comm    | 0.13365    | 0.14947    | 0.16687    |   2.2 | 22.66
Output  | 0.00042008 | 0.00042962 | 0.00056236 |   0.0 |  0.07
Modify  | 0.038477   | 0.043219   | 0.046757   |   1.1 |  6.55
Other   |            | 0.006265   |            |       |  0.95

Nlocal:        166.667 ave         175 max         159 min
Histogram: 2 1 1 7 2 2 4 2 2 1
Nghost:        2196.08 ave        2210 max        2182 min
Histogram: 2 0 5 1 2 5 3 4 1 1
Neighs:        19791.1 ave       20731 max       18224 min
Histogram: 1 0 1 3 1 4 5 3 3 3

Total # of neighbors = 474986
Ave neighs/atom = 118.74650
Neighbor list builds = 113
Dangerous builds = 0

#############################
# F R E E Z E  S Y S T E M  #
#############################

# Define solid atoms. This closely follows ten Wolde  Ruiz-Montero and Frenkel  Faraday Discuss  1996  104  93-110
# Compute components of the per-atom q6 vector
compute q6 all orientorder/atom degrees 1 6 components 6 nnn NULL cutoff 1.3 # compute the Q6 parameter.
                                                                             # Use all neighbours within 1.3 unit cell.

# get number of connections
compute coord_number all coord/atom orientorder q6 0.5

# An atom is solid if it has 8 or more connections (of a possible 14)
variable is_solid atom c_coord_number>=8
group solid dynamic all var is_solid    # Must be dynamic to update
dynamic group solid defined

# do clustering
compute cluster solid cluster/atom 1.3 # Create a cluster where all atoms within are solid and max 1.3 units from another member

# define chunks one chunk per cluster
compute clus_chunks solid chunk/atom c_cluster nchunk every compress yes  # Says which atoms are in which chunk

# count the size of each chunk
compute size_chunks solid property/chunk clus_chunks count


# Find the maximum entry in the vector of chunk sizes
variable max_n equal max(c_size_chunks)


# Thermo style which includes this variable
thermo_style custom step temp pe vol v_max_n

thermo ${N}  # Print the thermo information every 100 steps
thermo 100  

# Reset the npt fix at a lower temperature (below freezing)
fix 1  all npt temp  ${temp} ${temp}  0.1  iso  5.68  5.68  0.5  mtk yes tchain  5  pchain  5
fix 1  all npt temp  0.44 ${temp}  0.1  iso  5.68  5.68  0.5  mtk yes tchain  5  pchain  5
fix 1  all npt temp  0.44 0.44  0.1  iso  5.68  5.68  0.5  mtk yes tchain  5  pchain  5

dump dmp2 all dcd ${N} traj_${rand}.dcd
dump dmp2 all dcd 100 traj_${rand}.dcd
dump dmp2 all dcd 100 traj_462431.dcd


# fix rnuntil all halt ${N} v_max_n >= 3980 error soft message no   # Stop when solidified


run 100000 # 5000000  # Run for this many steps
Neighbor list info ...
  update every 1 steps, delay 10 steps, check yes
  max neighbors/atom: 2000, page size: 100000
  master list distance cutoff = 3.8
  ghost atom cutoff = 3.8
  binsize = 1.9, bins = 9 9 9
  4 neighbor lists, perpetual/occasional/extra = 1 3 0
  (1) pair lj/cut, perpetual
      attributes: half, newton on
      pair build: half/bin/atomonly/newton
      stencil: half/bin/3d
      bin: standard
  (2) compute orientorder/atom, occasional
      attributes: full, newton on
      pair build: full/bin/atomonly
      stencil: full/bin/3d
      bin: standard
  (3) compute coord/atom, occasional
      attributes: full, newton on
      pair build: full/bin/atomonly
      stencil: full/bin/3d
      bin: standard
  (4) compute cluster/atom, occasional
      attributes: full, newton on
      pair build: full/bin/atomonly
      stencil: full/bin/3d
      bin: standard
Per MPI rank memory allocation (min/avg/max) = 9.518 | 9.520 | 9.524 Mbytes
Step Temp PotEng Volume v_max_n 
    4000   0.51709335   -6.9840273    3868.9978           15 
    4100   0.48512152   -7.0459525     3868.444           32 
    4200   0.47414683   -7.0768206    3833.8748           26 
    4300   0.45292431    -7.115732    3833.5103           35 
    4400   0.44847036   -7.1402965    3823.1566           48 
    4500   0.43899737   -7.1488894    3825.2657           30 
    4600   0.44739461   -7.1503379    3823.1362           54 
    4700   0.43556794   -7.1579583    3822.7114           60 
    4800     0.445071   -7.1546386    3812.7781           47 
    4900   0.43460484   -7.1515446    3824.5738           40 
    5000   0.43977947   -7.1583018    3818.4821           42 
    5100   0.43626711   -7.1565456    3812.7926           65 
    5200   0.43711182    -7.163044    3820.0009          116 
    5300   0.43619374   -7.1686869    3809.3916          102 
    5400   0.43520605   -7.1718079    3815.5353          131 
    5500   0.45127801   -7.1788132     3818.475           59 
    5600   0.44026327   -7.1746076    3805.5509           82 
    5700   0.43862138   -7.1882205    3813.3582           62 
    5800   0.44199936   -7.1892026    3815.0838          105 
    5900   0.43858762   -7.1813071     3804.786           99 
    6000   0.43001722   -7.1849337    3804.2876           92 
    6100   0.44001272   -7.1986153    3816.9047           94 
    6200   0.44486528   -7.1828544    3805.2878           61 
    6300   0.43429104   -7.2025855    3807.8125          178 
    6400    0.4459083   -7.1962815    3808.7381          159 
    6500   0.44473244   -7.2037266    3809.7195           54 
    6600   0.43043869   -7.1934727    3806.2762          128 
    6700   0.43828141   -7.1858943    3798.9135           86 
    6800    0.4330695   -7.2118388    3811.8816          159 
    6900    0.4377042   -7.2192022    3798.6831           96 
    7000     0.438525    -7.216919    3799.1604          118 
    7100   0.44118884   -7.2131894    3812.3603           79 
    7200   0.43558433   -7.1910057    3794.3591          123 
    7300   0.43547965   -7.2181356    3801.9404          186 
    7400   0.43757369   -7.2079514    3802.1154          209 
    7500   0.43709279   -7.2002573    3799.9218          177 
    7600   0.43074682   -7.2211008    3803.9703          192 
    7700    0.4444184   -7.2131753    3793.4938          237 
    7800   0.44586742   -7.2128953    3801.9473          132 
    7900   0.44089106   -7.2190415    3798.4582          136 
    8000   0.43633025   -7.2216345    3796.5721           58 
    8100   0.45089823   -7.2267705    3799.6988          100 
    8200   0.44382728   -7.2237362    3797.5408          155 
    8300   0.42136583   -7.2184933    3801.9165           96 
    8400   0.43760769   -7.2290946    3793.1652          157 
    8500    0.4411306   -7.2092988    3797.7174          208 
    8600   0.44034619   -7.2213938    3792.7515          186 
    8700   0.43722828   -7.2402614    3803.7199          240 
    8800   0.44521822   -7.2197735     3794.929          231 
    8900   0.43597134   -7.2128657    3795.8058          254 
    9000   0.43411311   -7.2393111    3795.2235          150 
    9100   0.44071126   -7.2429673    3794.1524          234 
    9200   0.43215616    -7.221593    3797.6182          264 
    9300   0.44879872    -7.214289    3796.6854          249 
    9400   0.43550266   -7.2155667    3798.6493          206 
    9500   0.44591254   -7.2250826    3789.4647          256 
    9600   0.42740948   -7.2341434    3800.4927          194 
    9700   0.44239666   -7.2291539    3795.2565          332 
    9800    0.4433857   -7.2449168    3788.7715          343 
    9900   0.43984197   -7.2428468    3796.3324          333 
   10000   0.44904178   -7.2297531    3790.9528          293 
   10100   0.44123629    -7.248588    3801.7979          213 
   10200   0.43432082   -7.2261462    3790.4882          217 
   10300   0.44415221   -7.2232316    3798.5542          141 
   10400    0.4369276   -7.2308343    3799.0413          260 
   10500   0.43004117   -7.2409458    3793.7758          278 
   10600   0.44193277   -7.2352205    3786.5688          201 
   10700   0.44673733   -7.2457933    3794.0245          283 
   10800   0.43582802   -7.2301213    3794.6066          312 
   10900   0.44140172   -7.2371539    3797.0798          170 
   11000   0.44894313    -7.237537    3792.2341          340 
   11100   0.44132539   -7.2487273    3792.3599          166 
   11200   0.44075312   -7.2283522      3795.28          177 
   11300   0.43971587   -7.2350332    3797.0786          259 
   11400   0.43768038   -7.2334202    3793.1199          179 
   11500   0.43124251   -7.2434236    3793.7103          289 
   11600   0.44224901   -7.2531968     3801.112          158 
   11700   0.44904273   -7.2190263    3786.6409          267 
   11800   0.43631605   -7.2507302    3799.1461          235 
   11900   0.44425394   -7.2455036    3796.1012          268 
   12000   0.45372203   -7.2317681    3791.3908          166 
   12100   0.43735211   -7.2494593    3799.3971          228 
   12200   0.42677372   -7.2234952    3786.1491          269 
   12300    0.4380128   -7.2452297    3793.2455          121 
   12400   0.45062801   -7.2484002    3798.3565          206 
   12500   0.43923347   -7.2402259    3790.0815          235 
   12600   0.43751112   -7.2424443    3789.6165          171 
   12700    0.4411363   -7.2320252    3797.1801          189 
   12800    0.4395174   -7.2295754    3784.3227          158 
   12900   0.43782673   -7.2528462    3793.9427           91 
   13000   0.43869081   -7.2457267    3792.2211          101 
   13100   0.44101856   -7.2324405    3793.9576          231 
   13200   0.45165709   -7.2244937    3793.1519          340 
   13300    0.4368831   -7.2337692    3794.3571          375 
   13400   0.44087643   -7.2502823    3785.5373          331 
   13500   0.43713683   -7.2573985    3793.4566          295 
   13600   0.44376777   -7.2423356    3789.4853          216 
   13700   0.43281601   -7.2524295     3796.802          270 
   13800   0.44378534    -7.235729    3776.4045          358 
   13900    0.4375625   -7.2404766    3796.8216          384 
   14000   0.43324492   -7.2542725    3788.7152          459 
   14100    0.4412272   -7.2490407    3784.8673          449 
   14200   0.44077127   -7.2478813    3792.4344          389 
   14300   0.43816919   -7.2326552    3789.7035          404 
   14400   0.43045586   -7.2424402    3792.8532          349 
   14500    0.4321343   -7.2324736    3789.2943          451 
   14600    0.4476392   -7.2352028    3791.1874          481 
   14700   0.43928733   -7.2538617    3792.3551          533 
   14800   0.43221274   -7.2570929    3790.5756          404 
   14900    0.4354758   -7.2393227    3791.3039          511 
   15000   0.43847141   -7.2331513    3787.2277          372 
   15100   0.44344427   -7.2568616    3782.5438          328 
   15200   0.43320446   -7.2525623    3790.0938          501 
   15300   0.44089941   -7.2488074    3791.1897          432 
   15400   0.44353256   -7.2595716    3784.2221          519 
   15500   0.44033555   -7.2775958    3791.0192          496 
   15600   0.43993588   -7.2493817     3792.752          384 
   15700   0.44451406   -7.2449181    3785.1802          596 
   15800   0.43326144   -7.2605768    3788.7438          436 
   15900   0.44339703   -7.2548538    3792.4853          399 
   16000   0.44149955   -7.2506825     3788.689          334 
   16100   0.44722271   -7.2765384    3785.0173          520 
   16200   0.44413911   -7.2667112     3789.929          429 
   16300   0.43271446   -7.2427958    3790.6249          581 
   16400    0.4501162   -7.2402669    3787.7079          450 
   16500   0.43768407   -7.2553775     3788.396          468 
   16600   0.44397297   -7.2572742    3788.3144          503 
   16700   0.44149562   -7.2431601    3787.0798          518 
   16800   0.44179875    -7.263599    3783.6914          480 
   16900   0.44493438   -7.2511937    3787.2812          550 
   17000   0.44017454   -7.2412422    3786.0628          553 
   17100   0.42849806   -7.2575801    3796.7113          514 
   17200   0.43590557   -7.2363154    3782.5797          531 
   17300   0.44501002   -7.2516272    3794.4189          543 
   17400    0.4414079   -7.2624176    3790.3117          544 
   17500    0.4401369   -7.2515797    3782.9855          526 
   17600   0.44155235   -7.2749112    3790.0943          477 
   17700   0.44433731   -7.2521032    3788.8657          528 
   17800   0.44206154   -7.2620577    3790.1717          490 
   17900   0.43750981   -7.2624608       3787.7          489 
   18000    0.4394564   -7.2443334     3788.399          514 
   18100   0.44252343   -7.2564918    3790.9215          570 
   18200    0.4411786   -7.2584245    3779.9443          462 
   18300   0.44333372   -7.2479429    3786.9828          395 
   18400   0.44312895   -7.2626458    3796.8549          524 
   18500     0.429998   -7.2469576    3786.7555          526 
   18600   0.43190613   -7.2521441     3787.665          491 
   18700   0.44771081   -7.2527031    3785.5786          545 
   18800   0.43954105   -7.2488997    3790.8379          561 
   18900    0.4328888   -7.2444816    3777.5552          539 
   19000   0.44265972   -7.2629172     3793.435          554 
   19100   0.43812057   -7.2547282    3790.5063          565 
   19200   0.44185528   -7.2579724    3787.5533          511 
   19300   0.44026381   -7.2766141    3783.2058          572 
   19400   0.43418101   -7.2658992    3789.7132          469 
   19500   0.44997924   -7.2554888     3776.722          530 
   19600   0.43800201    -7.260202    3801.5245          517 
   19700    0.4513924   -7.2545653    3775.4018          525 
   19800   0.43827847   -7.2691783    3792.4328          550 
   19900   0.44439855   -7.2581684    3783.6562          567 
   20000   0.44789893   -7.2506521    3786.3034          546 
   20100   0.43938914   -7.2625776    3782.9473          550 
   20200   0.45033102   -7.2724615    3781.2637          587 
   20300   0.44779187   -7.2713621    3787.3088          607 
   20400   0.43758925   -7.2618324    3783.7349          635 
   20500    0.4421801    -7.267824    3787.1077          606 
   20600   0.44040015   -7.2622126    3787.4838          624 
   20700   0.43989952   -7.2737565    3779.7255          536 
   20800   0.43467917   -7.2682727    3787.0228          508 
   20900   0.44365514    -7.259041    3784.4985          613 
   21000   0.44782962   -7.2716528    3792.9052          609 
   21100   0.43444049   -7.2685033    3780.6386          592 
   21200   0.44109914   -7.2665434    3788.7497          553 
   21300   0.44042505    -7.264161    3790.1344          601 
   21400   0.43966426   -7.2711239    3780.7175          624 
   21500   0.43743836   -7.2725056     3781.096          666 
   21600   0.43571396   -7.2675369    3783.6165          606 
   21700   0.45074337   -7.2682415    3785.4748          632 
   21800   0.43384327    -7.251581    3782.4496          642 
   21900   0.43594103   -7.2631205    3785.8106          668 
   22000    0.4256487   -7.2668956    3782.7827          671 
   22100   0.44272915   -7.2556382    3780.4112          586 
   22200   0.44115515   -7.2730132     3794.178          591 
   22300   0.43220004   -7.2621697    3775.7417          580 
   22400   0.43834353   -7.2642784    3788.3988          591 
   22500   0.43733743   -7.2617982    3789.0931          557 
   22600   0.44013418   -7.2672846    3785.3863          610 
   22700   0.43099489   -7.2720644    3781.7412          541 
   22800   0.44438651   -7.2631553    3785.9608          547 
   22900    0.4377865   -7.2539803     3784.359          437 
   23000   0.44873778   -7.2581773    3793.6642          624 
   23100   0.43823104   -7.2592455     3785.568          598 
   23200   0.43826275   -7.2517648    3781.6882          615 
   23300   0.44030083   -7.2602698    3797.7512          656 
   23400   0.43890119   -7.2600928    3775.3186          656 
   23500   0.43599578   -7.2647046    3790.7593          624 
   23600   0.45176578   -7.2669916    3791.8208          542 
   23700   0.44220799   -7.2589782    3777.9609          619 
   23800   0.44803773   -7.2779397    3784.6487          625 
   23900   0.44458239   -7.2615546    3788.8284          564 
   24000   0.44241119   -7.2761255     3782.148          662 
   24100   0.43359022   -7.2728998    3783.9244          597 
   24200   0.43992439   -7.2584422    3786.4759          599 
   24300   0.44348483   -7.2710175    3788.2482          569 
   24400   0.42320675   -7.2567545    3782.3162          541 
   24500   0.43985924     -7.26068    3782.8158          615 
   24600   0.44167264   -7.2751077    3793.0196          625 
   24700   0.43460544   -7.2718842    3777.3575          636 
   24800   0.43732581   -7.2671772    3788.7794          647 
   24900   0.45033321   -7.2633355    3781.6382          681 
   25000   0.43403777   -7.2767065    3784.0664          640 
   25100   0.44039607   -7.2718199    3789.0756          682 
   25200   0.44761594   -7.2615508    3782.6858          604 
   25300   0.44495545   -7.2634822    3785.4738          634 
   25400   0.43416088    -7.267628     3787.976          654 
   25500   0.44425327   -7.2561074    3784.3245          645 
   25600   0.44976053   -7.2586517    3788.7889          685 
   25700   0.43472651   -7.2608994    3785.1732          656 
   25800   0.43824028   -7.2690594     3783.483          596 
   25900   0.43333044   -7.2668464     3781.516          658 
   26000   0.44646122   -7.2703686    3788.2434          664 
   26100   0.44211754   -7.2722665    3780.4717          690 
   26200   0.43302484   -7.2913083    3785.7201          735 
   26300   0.43795679   -7.2501574    3778.9476          725 
   26400   0.43293196   -7.2684812    3791.0323          704 
   26500   0.43981736   -7.2735835    3783.1066          718 
   26600   0.43740572   -7.2476771     3786.319          734 
   26700     0.436484    -7.268319    3786.8225          763 
   26800   0.43804463   -7.2632967    3779.1908          781 
   26900   0.44587943   -7.2716185    3787.1274          795 
   27000   0.44932926   -7.2682531    3781.5354          792 
   27100   0.44371333   -7.2722068    3784.2102          714 
   27200   0.43682613   -7.2752891    3782.5096          699 
   27300   0.42961012   -7.2696607    3780.3768          764 
   27400   0.44481584   -7.2695768    3784.5558          756 
   27500   0.43969975   -7.2759495    3780.5024          773 
   27600   0.42885691   -7.2808836    3785.0552          715 
   27700   0.44148336   -7.2584072    3780.7268          695 
   27800     0.442181   -7.2740231     3786.791          808 
   27900   0.43528267   -7.2810732    3774.8314          826 
   28000   0.43965248   -7.2811764    3785.0593          891 
   28100   0.44489477   -7.2736352    3789.1772          787 
   28200   0.44467226    -7.247076    3776.6533          741 
   28300   0.44374458   -7.2697329    3789.5912          751 
   28400   0.43423113   -7.2601094     3779.715          763 
   28500   0.44126932   -7.2546649    3783.4626          734 
   28600   0.43838644   -7.2701945    3789.6989          765 
   28700   0.43784467    -7.265641    3776.0534          799 
   28800    0.4269004   -7.2679108    3779.1855          817 
   28900   0.44195547   -7.2705143    3783.4597          780 
   29000   0.44793506   -7.2728131    3779.7107          763 
   29100   0.43640255   -7.2814726    3781.0559          750 
   29200   0.44348434   -7.2776019    3784.4574          838 
   29300   0.44521021    -7.276119    3775.0286          777 
   29400   0.44605278   -7.2864681    3790.0638          786 
   29500   0.44024737   -7.2588769    3780.8588          820 
   29600   0.44016613   -7.2869641    3782.1087          820 
   29700     0.449023   -7.2871339    3784.4614          789 
   29800   0.44437764   -7.2605999      3782.78          820 
   29900   0.43583276   -7.2712842    3782.1382          824 
   30000   0.43453107   -7.2750156     3778.781          879 
   30100   0.43896605   -7.2714761    3785.7973          833 
   30200   0.43745846   -7.2605572    3780.9278          827 
   30300   0.42681962   -7.2723165    3786.3719          734 
   30400   0.43607521   -7.2814811    3783.4004          741 
   30500   0.43731846   -7.2701944    3775.5966          815 
   30600    0.4454713   -7.2761623      3788.63          728 
   30700   0.44168409   -7.2796229     3787.088          735 
   30800   0.44164165   -7.2780581    3777.6532          779 
   30900   0.45161974   -7.2790578    3788.9941          777 
   31000   0.43922478    -7.272313    3780.0345          746 
   31100   0.44107236   -7.2871856    3779.9234          760 
   31200   0.43769987    -7.279777     3786.757          791 
   31300   0.44439572   -7.2641461    3784.1386          816 
   31400   0.43357414   -7.2661742    3781.3828          768 
   31500   0.42617058   -7.2675447    3784.3086          800 
   31600   0.44711809   -7.2686647     3779.977          819 
   31700    0.4442175   -7.2727924    3786.2131          775 
   31800   0.43734818   -7.2685515    3779.6106          788 
   31900   0.43693957   -7.2796186    3787.4493          756 
   32000   0.43794209   -7.2754212    3779.6193          755 
   32100   0.43523433   -7.2601072     3785.646          806 
   32200   0.44172022   -7.2721298    3779.3913          802 
   32300   0.43729334   -7.2863986    3781.1152          865 
   32400    0.4387063   -7.2678999    3785.7256          783 
   32500   0.43668307   -7.2568688    3775.5212          801 
   32600   0.44629924   -7.2806417    3788.6983          808 
   32700   0.44729592   -7.2763975    3786.8643          793 
   32800   0.43334326     -7.27393    3781.3135          771 
   32900   0.45046651   -7.2765149    3781.7118          807 
   33000   0.43445949   -7.2608381    3779.3643          788 
   33100   0.43433009   -7.2586129    3783.0744          805 
   33200   0.43613535   -7.2839528    3789.9505          834 
   33300   0.44211317   -7.2748395    3771.5254          792 
   33400   0.44511996   -7.2809684    3791.1731          816 
   33500   0.44210191   -7.2816854    3774.2199          840 
   33600   0.43373893   -7.2759343    3784.0155          872 
   33700   0.44632562   -7.2746967    3781.7551          882 
   33800   0.44238587    -7.260809    3781.9382          867 
   33900   0.44009954   -7.2799127    3783.5966          832 
   34000   0.43803666   -7.2746629    3777.2728          887 
   34100   0.44636038    -7.267084    3786.3132          896 
   34200   0.44302682   -7.2745302    3784.4026          805 
   34300    0.4475777   -7.2841366     3775.538          826 
   34400   0.43952814   -7.2916048    3785.6462          809 
   34500    0.4323177   -7.2761224    3772.9909          843 
   34600   0.44578804   -7.2866645    3786.4718          815 
   34700   0.44098307   -7.2849452    3785.3549          790 
   34800    0.4422118   -7.2710888    3776.0501          811 
   34900   0.44224039    -7.269547    3780.1189          851 
   35000   0.43738071   -7.2743514    3776.9818          854 
   35100   0.44408585   -7.2704271    3793.0863          805 
   35200   0.44518346    -7.272746    3777.3398          823 
   35300   0.44058159   -7.2742741    3776.7403          772 
   35400   0.42606506   -7.2830551    3783.2718          885 
   35500   0.43534231   -7.2858722    3785.1064          847 
   35600   0.45143673   -7.2768867    3777.8206          909 
   35700   0.43688189   -7.2860305    3782.4236          902 
   35800   0.43953374    -7.284245    3780.5625          869 
   35900   0.44827167   -7.2875378    3786.2299          881 
   36000   0.43500731   -7.2683211    3778.7343          918 
   36100   0.43457153   -7.2673146    3778.7313          918 
   36200   0.43905762   -7.2916344    3776.1752          905 
   36300   0.43492602   -7.2766091    3780.0238          860 
   36400   0.43972188   -7.2652859    3774.7071          837 
   36500   0.44316758   -7.2854105    3785.4072          793 
   36600   0.43723613   -7.2775762    3784.3337          892 
   36700   0.44302928    -7.260414    3781.9148          974 
   36800   0.44632725   -7.2779382    3780.2492          907 
   36900   0.44275722   -7.2815534    3779.9155          888 
   37000   0.44618913   -7.2767411    3783.2417          903 
   37100   0.44314831   -7.2765859     3787.082          860 
   37200   0.43457892   -7.2730988    3775.2137          895 
   37300   0.43930215   -7.2839603     3784.845          922 
   37400   0.44208613   -7.2746301    3778.7581          897 
   37500   0.42778336   -7.2858393    3786.3054          917 
   37600   0.45053478   -7.2841431      3776.72          911 
   37700   0.44649951   -7.2618765     3786.143          868 
   37800   0.43639319   -7.2623234    3779.8247          862 
   37900   0.42965068   -7.2730243    3783.5467          814 
   38000   0.44620041    -7.274993    3779.3581          836 
   38100   0.43930983   -7.2769846      3781.06          825 
   38200   0.44502989   -7.2896503     3781.414          879 
   38300   0.44209978   -7.2763276    3776.1557          943 
   38400   0.44161557    -7.263374    3785.2002          853 
   38500   0.44576914   -7.2704369    3774.4961          868 
   38600   0.44161008   -7.2981129    3796.9594          867 
   38700   0.42451677     -7.26128    3773.7147          913 
   38800   0.44726263   -7.2761776    3782.7155          896 
   38900   0.44580136   -7.2827101    3782.1717          873 
   39000   0.43229603   -7.2711469    3778.5854          841 
   39100   0.43694472   -7.2722125    3781.3483          908 
   39200   0.44528901    -7.273815    3786.0484          920 
   39300   0.43825049   -7.2739703     3780.396          832 
   39400   0.43743493   -7.2861258     3779.873          865 
   39500    0.4368987   -7.2872509    3780.1313          852 
   39600   0.43969563   -7.2703924    3779.8338          846 
   39700   0.43573869   -7.2865292    3783.3472          887 
   39800   0.42955031   -7.2766596    3772.4397          850 
   39900   0.43512025   -7.2833383    3791.2153          875 
   40000   0.44247364   -7.2689419    3775.3704          861 
   40100   0.44028795   -7.2731564    3780.7318          869 
   40200   0.44054625   -7.2793974     3785.468          956 
   40300   0.44221973   -7.2785006    3771.5784          935 
   40400   0.44290523   -7.2800723    3777.7021          908 
   40500   0.45215933   -7.2684794    3778.7582          933 
   40600   0.44262939   -7.2813942     3780.457          900 
   40700    0.4405868   -7.2813216    3774.7328          876 
   40800   0.43831067   -7.2895391    3785.3766          953 
   40900   0.44787124   -7.2719061    3778.8299          924 
   41000   0.43610823   -7.2647549    3780.6463          925 
   41100    0.4395118   -7.2907648    3783.4913          966 
   41200   0.43250271   -7.2818983    3777.6611          935 
   41300   0.43372538    -7.273796    3782.6024          931 
   41400    0.4369005   -7.2709189     3782.055          914 
   41500   0.44110507   -7.2822787    3777.9371          923 
   41600   0.44152375   -7.2779777    3792.4485          946 
   41700    0.4330004   -7.2718254    3779.8336          895 
   41800   0.43752757   -7.2696653    3767.7885          966 
   41900   0.43677296   -7.2836385     3784.465          956 
   42000   0.44051879   -7.2738763    3778.5413          976 
   42100   0.43275547   -7.2648923    3784.5288          956 
   42200   0.42926867   -7.2815126     3781.158          975 
   42300   0.43422076   -7.2824142    3785.2506          959 
   42400   0.44058119    -7.270441    3777.2862          975 
   42500   0.43611031   -7.2808353    3783.2688         1048 
   42600   0.43518767   -7.2840696    3771.8661         1014 
   42700   0.45042319    -7.288812    3781.7131         1011 
   42800   0.43796536   -7.2841385    3784.7627         1010 
   42900   0.43576102   -7.2817529    3772.2704          993 
   43000   0.43458922   -7.2936081     3779.588         1001 
   43100   0.43590891   -7.2727502    3781.1553         1031 
   43200   0.44179289     -7.28396    3785.5171         1036 
   43300   0.44135334   -7.2936939    3773.8721         1061 
   43400   0.44274246   -7.2844939    3779.0127         1036 
   43500   0.44763308   -7.2875988    3782.3937         1080 
   43600    0.4382994   -7.2897447    3778.3253         1074 
   43700    0.4357467   -7.2814734    3779.3566         1051 
   43800   0.44770152   -7.2761864    3783.8231         1005 
   43900   0.43245665   -7.2866172    3785.9964         1041 
   44000   0.45068136    -7.286532    3775.2694         1009 
   44100    0.4334072   -7.2849688    3781.6902         1071 
   44200   0.44330459   -7.2754739    3781.4197         1161 
   44300   0.43336274   -7.2934365      3783.13         1069 
   44400   0.43769778   -7.2788449    3782.5372         1044 
   44500    0.4417165   -7.2803567    3783.1934         1034 
   44600   0.44320146   -7.2799672    3774.9203         1064 
   44700   0.43817528   -7.2840446    3776.2451         1095 
   44800   0.43832412   -7.2788531    3778.4788         1072 
   44900   0.43584031   -7.2748115    3776.9724         1084 
   45000    0.4373805   -7.2914666    3785.3635         1042 
   45100   0.43598604   -7.2719147     3776.701         1034 
   45200   0.45675157    -7.291496    3783.2372          996 
   45300   0.43656829   -7.2846719    3780.6643         1070 
   45400   0.43190096    -7.279154    3775.8831         1135 
   45500   0.44216308   -7.2802655     3784.416         1108 
   45600   0.43730595   -7.2713449    3773.4418         1066 
   45700   0.43624594   -7.3065828    3780.3428         1087 
   45800   0.44010309   -7.2762617    3777.3411         1107 
   45900    0.4376828   -7.2737874    3777.3242         1039 
   46000   0.43263389   -7.2935609    3776.8883         1053 
   46100   0.44050845   -7.2912977    3783.3671         1090 
   46200   0.44101335   -7.2801643    3775.9437         1026 
   46300   0.43884894   -7.2777702    3775.7158         1049 
   46400   0.44026216   -7.2703424    3780.6779          983 
   46500   0.44296882   -7.2675172    3781.4127         1028 
   46600   0.42515861   -7.2771049    3784.7911         1080 
   46700   0.44713441   -7.2888876    3770.7115         1080 
   46800   0.44412034   -7.3164523    3782.9535         1040 
   46900   0.44750502   -7.2798737    3775.1036         1020 
   47000   0.44450761   -7.2874181    3783.1565         1085 
   47100   0.44434573   -7.2876357    3771.3167         1076 
   47200   0.44492535   -7.2858869    3778.2405         1031 
   47300   0.43768766   -7.2978169    3772.2113         1047 
   47400   0.43719756   -7.2928094    3780.3829         1063 
   47500   0.43750158   -7.2739438    3776.5526         1014 
   47600   0.43692273   -7.2730102    3774.7457         1018 
   47700   0.43158998   -7.2930679    3792.0471         1070 
   47800   0.45203188   -7.2820682    3769.0191         1105 
   47900   0.43217224   -7.2926172    3784.0067         1064 
   48000   0.43932794   -7.2804446    3780.1316         1063 
   48100   0.44351381   -7.2638016    3775.9037         1123 
   48200   0.43779615   -7.2901756    3778.9312         1188 
   48300   0.44318918   -7.2903032    3774.5564         1099 
   48400   0.44834766   -7.2789146    3774.4237         1088 
   48500   0.43605734   -7.2999496    3784.6138         1119 
   48600   0.44264598   -7.2855274    3770.6564         1120 
   48700   0.44661397   -7.2914091    3783.4572         1124 
   48800   0.45195732   -7.2867491    3782.5398         1083 
   48900   0.43787211   -7.2824588    3774.0141         1074 
   49000   0.44366234   -7.2861392    3776.8624         1070 
   49100   0.44727183   -7.2888231     3782.133         1176 
   49200   0.43710655   -7.2878902    3776.2937         1135 
   49300   0.44047271    -7.286064    3776.1277         1151 
   49400   0.44711812    -7.284312     3781.019         1186 
   49500   0.43455217   -7.2775896    3776.0652         1169 
   49600   0.43811261   -7.3062278    3772.3024         1117 
   49700   0.43237276   -7.2848769    3778.4205         1129 
   49800   0.43436581   -7.2782671    3773.7488         1162 
   49900   0.44353676   -7.2941897    3781.1443         1193 
   50000   0.44297646   -7.2759014    3777.6188         1135 
   50100   0.43197248   -7.2832789     3777.356         1162 
   50200   0.43952751   -7.2815098     3772.782         1192 
   50300   0.43779618   -7.2750997    3784.2865         1181 
   50400   0.44285509   -7.2901267    3781.0234         1194 
   50500   0.43340001   -7.2867074    3777.1822         1138 
   50600    0.4318509   -7.2865101    3777.7878         1154 
   50700   0.44630321   -7.2923829    3775.4653         1170 
   50800   0.44697785   -7.2893861    3788.0737         1102 
   50900   0.43898427   -7.2925119    3774.1162         1072 
   51000   0.44993325   -7.2948538    3775.7518         1159 
   51100     0.454772   -7.2996099    3773.2957         1186 
   51200   0.44094086   -7.2977938    3777.2891         1166 
   51300   0.44801468   -7.2912301    3786.0544         1183 
   51400   0.44320001   -7.2916859    3774.9385         1141 
   51500   0.43388631   -7.2966674    3780.6926         1156 
   51600   0.43596207   -7.2943315    3784.3982         1129 
   51700    0.4421405   -7.2743771    3766.8576         1221 
   51800   0.43111499   -7.3011608    3784.8765         1175 
   51900    0.4428767   -7.2769857    3771.2833         1209 
   52000   0.44135483   -7.2877047    3786.0533         1190 
   52100   0.43780393   -7.2950371      3778.59         1188 
   52200   0.44661555   -7.2860706    3773.9376         1199 
   52300   0.44503366   -7.2913393    3784.5373         1207 
   52400    0.4476282   -7.3002837    3781.6215         1158 
   52500   0.43502022   -7.2696905    3770.6566         1202 
   52600   0.45035544   -7.2848642    3780.0804         1217 
   52700   0.43698061   -7.2879666     3780.299         1160 
   52800   0.42916944   -7.2765674    3773.3263         1146 
   52900   0.44610592   -7.2936956    3778.6797         1140 
   53000   0.44166702   -7.3034369    3772.1721         1199 
   53100    0.4287303   -7.2951964    3779.9838         1220 
   53200   0.43778641   -7.2849751    3774.9965         1194 
   53300   0.44507826   -7.2856968    3783.0968         1213 
   53400   0.44089386   -7.2844996    3777.3756         1157 
   53500    0.4561686   -7.3004239    3768.8391         1235 
   53600   0.43933209   -7.3077397    3781.9368         1239 
   53700      0.44981   -7.2976263    3777.7914         1218 
   53800   0.44747516   -7.2966581    3769.3497         1249 
   53900    0.4325189   -7.3072142    3782.3241         1203 
   54000    0.4465428   -7.2868524    3772.0543         1204 
   54100   0.43001073   -7.2945452    3782.5012         1188 
   54200   0.44668632   -7.2894297    3776.1257         1255 
   54300   0.43718744   -7.2959364    3778.2247         1283 
   54400   0.43814885   -7.2998788    3774.8335         1298 
   54500   0.44197043   -7.2908436    3777.6104         1292 
   54600   0.43380811   -7.2775631    3781.4969         1324 
   54700   0.43652653   -7.3014034    3773.5261         1294 
   54800   0.44356239   -7.2963878    3772.8107         1267 
   54900    0.4404295   -7.2874165     3769.808         1273 
   55000    0.4404943   -7.3044017    3781.5123         1340 
   55100   0.44176051   -7.2898568    3768.8469         1253 
   55200   0.43445015   -7.2907629     3773.166         1247 
   55300   0.43978907   -7.2918141    3782.1581         1250 
   55400   0.44515459   -7.2855767    3777.3058         1257 
   55500   0.44010542   -7.2926194    3774.5862         1276 
   55600   0.42957611   -7.3059661    3786.2691         1300 
   55700   0.43961119   -7.2819399     3765.246         1296 
   55800     0.444302   -7.2908146    3778.3226         1273 
   55900   0.44500224   -7.2972153    3772.1932         1267 
   56000   0.44349114    -7.302718    3776.4728         1352 
   56100   0.43310921   -7.2941248    3773.9788         1299 
   56200   0.43378965   -7.2890374    3768.8019         1327 
   56300   0.44164599   -7.2978874    3781.5368         1277 
   56400   0.43540992   -7.2846651    3769.7846         1279 
   56500   0.44282301   -7.3138223    3776.4097         1295 
   56600   0.44103798   -7.3021264    3775.6725         1392 
   56700   0.44346514   -7.2774125    3773.5402         1343 
   56800   0.44062023   -7.3017363    3774.2868         1327 
   56900   0.44180047   -7.3066701    3774.9846         1325 
   57000   0.44416522   -7.2888744     3778.755         1371 
   57100   0.43476789   -7.2949517    3778.5902         1386 
   57200   0.44199143   -7.3023665    3772.4225         1362 
   57300   0.44949768   -7.2945576    3770.9954         1387 
   57400   0.43230329   -7.3071897    3786.5551         1320 
   57500   0.45082765    -7.303943    3768.2696         1325 
   57600   0.43958821   -7.3078085    3773.9092         1341 
   57700   0.43868062   -7.2867321    3775.6627         1339 
   57800   0.43430571   -7.2862541    3773.4226         1281 
   57900   0.43089296   -7.2960945    3774.0499         1305 
   58000    0.4441761   -7.2837695    3774.9172         1296 
   58100   0.45104125   -7.2984524    3780.1493         1310 
   58200   0.43884396   -7.2934949    3770.5231         1357 
   58300   0.43165768   -7.2987583    3776.1051         1299 
   58400   0.43710971   -7.2834875    3779.4259         1268 
   58500   0.43669452   -7.2890553    3780.6257         1203 
   58600   0.43365064   -7.3019786    3771.2095         1275 
   58700   0.43831469   -7.2981037    3767.8072         1358 
   58800    0.4403152   -7.3059223    3779.0383         1319 
   58900   0.44709246   -7.2939291    3775.1968         1338 
   59000   0.44353564   -7.3014207     3769.139         1416 
   59100   0.43290732   -7.3031752    3777.4106         1422 
   59200   0.44247851     -7.29429    3770.2987         1435 
   59300   0.44163766   -7.2959812    3783.1172         1389 
   59400   0.43734681   -7.2881766    3768.2695         1434 
   59500   0.43772637   -7.3098855    3776.1101         1401 
   59600   0.44465058   -7.2899105    3773.3744         1443 
   59700   0.44489788   -7.2991154    3772.7408         1419 
   59800   0.43658757   -7.3078698     3783.626         1413 
   59900   0.44000809   -7.2924288     3772.269         1458 
   60000   0.44262126   -7.2988153    3774.9006         1403 
   60100   0.44947918   -7.2997043    3775.8976         1459 
   60200   0.43659618   -7.3016661    3776.1692         1409 
   60300   0.43555558   -7.3041545    3774.8949         1452 
   60400   0.43796202   -7.2904638     3779.485         1440 
   60500   0.43681741   -7.3063324    3777.9442         1477 
   60600   0.43854252   -7.3009392     3769.631         1458 
   60700    0.4537698   -7.3144021    3779.4502         1447 
   60800   0.44743538   -7.3081671    3766.5335         1440 
   60900   0.44119066   -7.3111297    3774.6544         1459 
   61000   0.44717657   -7.2947007    3778.0772         1464 
   61100   0.44139604   -7.2830757    3769.5723         1486 
   61200   0.43934323    -7.302323    3774.2841         1515 
   61300   0.44250769   -7.2999205    3777.1688         1478 
   61400   0.44768147   -7.3024902     3778.484         1482 
   61500   0.43762739   -7.3009023    3769.4429         1526 
   61600   0.44647676   -7.3024688    3776.0462         1492 
   61700   0.44036982   -7.2925941    3776.5012         1493 
   61800     0.433228   -7.2928661    3764.7851         1541 
   61900   0.43850143   -7.3090144    3780.5082         1505 
   62000    0.4549271   -7.2975588    3773.5999         1526 
   62100   0.44064145    -7.307064    3773.7558         1472 
   62200   0.44419177   -7.3078797    3774.7097         1558 
   62300   0.44946143   -7.3036852    3774.9579         1536 
   62400   0.42851976   -7.2916891    3775.8064         1558 
   62500   0.43808628   -7.3085876    3765.7268         1549 
   62600   0.43362337   -7.3194952    3771.4321         1519 
   62700   0.43716553   -7.3032973    3774.7323         1480 
   62800   0.44661218   -7.2974927    3769.3953         1560 
   62900   0.43725067   -7.3131975    3769.1712         1557 
   63000   0.43808642    -7.302887    3771.5795         1576 
   63100   0.44696767   -7.3096219    3774.6203         1537 
   63200      0.44782   -7.3070482    3763.2712         1564 
   63300   0.44031157   -7.3200958    3783.7996         1540 
   63400   0.45416419   -7.2797984    3763.4869         1589 
   63500   0.44148865   -7.3187161    3779.4229         1606 
   63600   0.44078341   -7.3189259    3768.4249         1614 
   63700   0.44412237   -7.3030579    3775.0446         1590 
   63800   0.44327529   -7.3068813    3773.6036         1555 
   63900   0.43849812   -7.3089023    3770.4955         1617 
   64000   0.43909834   -7.3171715    3771.7335         1569 
   64100    0.4393419   -7.3011202    3774.7898         1631 
   64200   0.44068003   -7.2954154    3768.2026         1582 
   64300   0.43711989   -7.3345959    3778.6145         1569 
   64400   0.44388435    -7.314746    3763.9533         1573 
   64500   0.43843618   -7.2996206     3769.478         1611 
   64600   0.44257393   -7.3026225    3778.7326         1600 
   64700   0.43919663   -7.3133204    3772.7754         1589 
   64800   0.43834237   -7.3115116    3769.2568         1576 
   64900   0.43334375   -7.3218652    3777.5806         1554 
   65000   0.43956594   -7.3221775    3770.6091         1501 
   65100   0.44026628   -7.2981432    3774.8525         1532 
   65200   0.43466566   -7.3084622    3774.1092         1526 
   65300   0.43579755   -7.2977211    3765.4402         1461 
   65400   0.44685075   -7.3187899    3782.6477         1510 
   65500   0.44217905    -7.303526    3771.0969         1521 
   65600   0.43947049   -7.3121562    3766.8571         1607 
   65700   0.44187457   -7.3182159    3773.2628         1611 
   65800   0.44178264   -7.3009904    3770.7271         1616 
   65900   0.43624409    -7.306352    3768.7685         1615 
   66000   0.44744155   -7.3225299    3771.7777         1610 
   66100   0.43794126   -7.3224224    3765.7094         1622 
   66200   0.43582447   -7.3142658    3772.6533         1628 
   66300    0.4501074   -7.3204088      3772.47         1605 
   66400   0.44345532   -7.3164874    3776.9629         1581 
   66500   0.43939747   -7.3099086    3763.0122         1605 
   66600   0.43912205   -7.3177019    3780.3947         1641 
   66700   0.43206409   -7.3043614    3763.6412         1655 
   66800   0.43896881   -7.3177514    3774.2041         1607 
   66900   0.43522294   -7.3143507    3766.7689         1659 
   67000   0.43104895   -7.3289423    3768.7557         1731 
   67100   0.44569061   -7.3105542    3769.1319         1668 
   67200   0.43273133   -7.3081506    3764.9188         1640 
   67300   0.44210656    -7.326883    3772.4906         1623 
   67400   0.44253122   -7.3261823    3773.3463         1687 
   67500   0.44926878    -7.311066    3768.7254         1662 
   67600   0.43919816   -7.3215107    3767.2692         1649 
   67700   0.44033654   -7.3210262    3771.4754         1682 
   67800    0.4444979   -7.2974587    3757.5775         1682 
   67900   0.42892807   -7.3249044    3773.2936         1681 
   68000   0.44611309    -7.315678    3766.5459         1677 
   68100   0.43500024   -7.3104601    3772.1899         1701 
   68200   0.43903331   -7.3071718    3764.5374         1713 
   68300   0.43368024   -7.3250864    3773.1422         1741 
   68400   0.44065587   -7.3259571    3763.0373         1758 
   68500   0.43981727   -7.3108001    3768.2337         1768 
   68600   0.43976262   -7.3153775    3774.9155         1751 
   68700   0.43878977    -7.315761    3762.9745         1716 
   68800   0.44230471   -7.3234186    3758.4831         1813 
   68900   0.43900414   -7.3270885    3771.5917         1804 
   69000   0.43929223   -7.3179322    3766.2633         1751 
   69100   0.43639163    -7.330434    3777.1522         1779 
   69200   0.44866653   -7.3122976    3763.1719         1801 
   69300    0.4332964   -7.3219457    3771.9972         1811 
   69400   0.43158305   -7.3266809    3766.7973         1836 
   69500   0.43425209   -7.3013325    3766.3824         1825 
   69600   0.44121753   -7.3213773    3773.3441         1839 
   69700   0.42977624     -7.31217    3763.5421         1839 
   69800    0.4359906   -7.3209893    3776.7017         1854 
   69900   0.43586373   -7.3158965    3765.3184         1885 
   70000   0.43537772   -7.3251191    3766.5314         1858 
   70100    0.4388914   -7.3172315    3776.4577         1826 
   70200   0.44756197   -7.3072541    3764.8781         1828 
   70300   0.43125781   -7.3171314     3772.293         1823 
   70400   0.43529408   -7.3271587    3771.2192         1862 
   70500   0.42969377   -7.3229797    3757.3619         1875 
   70600    0.4348545   -7.3240866    3772.6055         1895 
   70700   0.43848145   -7.3151279    3764.2242         1901 
   70800   0.44770751   -7.3079823    3764.9357         1857 
   70900   0.44702027   -7.3297183    3768.8233         1799 
   71000   0.43346057   -7.3088267    3763.2404         1853 
   71100    0.4384397   -7.3226119    3769.3521         1878 
   71200   0.43485669   -7.3178229    3769.7587         1874 
   71300   0.44404672   -7.3188322    3763.5218         1832 
   71400   0.42766417   -7.3137749    3771.5546         1855 
   71500   0.43537532   -7.3171364    3775.8766         1850 
   71600   0.44065001   -7.3131147    3761.8379         1889 
   71700   0.43684649   -7.3342346    3764.3415         1870 
   71800   0.43673895   -7.3233477    3776.8433         1836 
   71900   0.44641894   -7.3185117     3765.267         1862 
   72000   0.43326771   -7.3256192    3773.0335         1873 
   72100    0.4380665   -7.3244562    3756.7799         1898 
   72200   0.43516462   -7.3240865    3772.0776         1949 
   72300   0.44226294   -7.3060948    3762.2525         1897 
   72400   0.43101023   -7.3271215    3772.9627         1927 
   72500   0.43535112   -7.3418852     3758.013         1965 
   72600   0.43323232   -7.3275264    3768.9049         1946 
   72700   0.43817343   -7.3222239    3771.6382         1917 
   72800   0.44717043   -7.3192271    3767.0622         1933 
   72900   0.43984269   -7.3199536    3764.7677         1907 
   73000   0.44157754   -7.3386628    3769.5883         1998 
   73100     0.436249   -7.3274556    3763.6516         1896 
   73200     0.439815   -7.3166752     3767.002         1897 
   73300   0.44518341   -7.3296789    3767.6429         1967 
   73400   0.43529809   -7.3261168    3758.9865         1913 
   73500   0.44337133   -7.3281819     3767.082         1954 
   73600   0.43991147   -7.3321955    3768.8705         1933 
   73700   0.42844946   -7.3271179    3760.6469         1976 
   73800   0.44398487   -7.3494656     3774.486         1959 
   73900   0.44896832    -7.317338    3758.0111         1986 
   74000   0.44273745   -7.3242529    3775.3657         1952 
   74100   0.43601439   -7.3246571    3761.0045         2000 
   74200   0.44132111   -7.3356338    3771.5148         1928 
   74300   0.45151915   -7.3246088    3768.7579         1984 
   74400   0.43789224   -7.3197033    3761.2152         1999 
   74500   0.44151246   -7.3357026     3770.414         2032 
   74600   0.45032634   -7.3167407    3769.0237         2004 
   74700   0.43295028   -7.3244565    3767.4571         1996 
   74800   0.44349556    -7.333299    3763.6021         1962 
   74900    0.4392432   -7.3508392    3769.5029         1958 
   75000    0.4484004   -7.3294417    3757.5679         1961 
   75100   0.44060915   -7.3345501    3768.8427         1943 
   75200    0.4435022   -7.3462876    3771.8382         1910 
   75300   0.44155011   -7.3495751    3765.2022         1980 
   75400   0.44599527   -7.3278152    3767.0752         1995 
   75500   0.44600053   -7.3348474    3766.6848         1922 
   75600   0.44398436   -7.3386887    3763.2904         2000 
   75700   0.43692926   -7.3345694    3766.5208         2028 
   75800   0.44683088   -7.3291263    3762.4552         2024 
   75900   0.43672775   -7.3362289    3768.7685         2000 
   76000   0.44267593   -7.3410539    3763.8143         1950 
   76100   0.44087749    -7.330337    3774.8155         1967 
   76200   0.43701475   -7.3231924    3763.2941         1978 
   76300   0.43140975   -7.3361307    3765.7638         1971 
   76400   0.45222892    -7.339294    3765.8604         1972 
   76500   0.44637969    -7.345009    3765.2518         1962 
   76600   0.43837373   -7.3377263    3758.2679         1996 
   76700   0.43989188   -7.3239889    3768.1578         2021 
   76800   0.44585154   -7.3399126    3765.8475         2022 
   76900    0.4402514   -7.3360946    3764.4668         2043 
   77000   0.44061877   -7.3315747    3758.7719         2064 
   77100     0.435902   -7.3501394    3770.0362         2014 
   77200   0.44306457   -7.3338018    3765.5788         2013 
   77300   0.44743547     -7.34364     3762.485         2064 
   77400   0.43554084    -7.365873    3769.0743         2048 
   77500   0.43406359   -7.3183544    3758.4484         2003 
   77600    0.4342781   -7.3317288    3767.2652         2021 
   77700   0.43752225   -7.3362288    3756.5023         2014 
   77800   0.43377569   -7.3512539    3763.9224         2035 
   77900    0.4437034    -7.335626    3764.2113         2011 
   78000   0.43591621   -7.3289526    3763.2197         2069 
   78100   0.42759673   -7.3495643    3764.6926         2023 
   78200   0.44450757   -7.3415994    3763.1851         2057 
   78300   0.43974212   -7.3396682    3762.5175         2079 
   78400   0.44382749    -7.329791    3771.7864         2043 
   78500   0.44484873   -7.3312329     3761.211         2058 
   78600   0.43851599   -7.3487251    3766.1196         2047 
   78700   0.44464418   -7.3427507     3760.783         2065 
   78800    0.4436758   -7.3362276    3763.2165         1993 
   78900   0.44907787   -7.3314178    3758.8683         2072 
   79000   0.43902636   -7.3458997    3764.3556         2038 
   79100   0.43133588   -7.3452734    3755.8661         2033 
   79200   0.44143878   -7.3393399    3765.7541         1986 
   79300   0.44398871   -7.3305398    3768.5751         2027 
   79400   0.44508388   -7.3340569    3761.6762         2057 
   79500   0.43930604    -7.360095    3774.6472         2027 
   79600   0.43578905   -7.3337267    3750.8749         2042 
   79700   0.43936417   -7.3435184    3763.7565         2027 
   79800   0.43638949   -7.3429025    3769.6616         1978 
   79900   0.44285472   -7.3196684    3759.0029         1971 
   80000   0.44018606   -7.3490285    3768.9818         2001 
   80100   0.43993651    -7.343875    3760.9273         2015 
   80200    0.4463491   -7.3359696    3765.5087         2075 
   80300   0.44582817    -7.344261    3771.1683         2027 
   80400   0.43814018   -7.3368444    3758.7322         2021 
   80500   0.45375072   -7.3473528    3765.0054         2023 
   80600   0.45220602   -7.3491906     3762.834         2109 
   80700   0.44638657   -7.3513404    3759.9866         2088 
   80800   0.44250642   -7.3441053     3770.891         2071 
   80900     0.441562   -7.3261035    3762.9858         2066 
   81000   0.44313695   -7.3426458    3764.2411         2070 
   81100   0.44047548   -7.3538291    3759.1639         2029 
   81200    0.4474845    -7.340481    3760.2937         2027 
   81300   0.44636386   -7.3424112    3760.8041         2006 
   81400   0.42842225    -7.341392    3760.0182         2117 
   81500   0.43598756   -7.3317129    3767.1613         2059 
   81600   0.44532452   -7.3378234    3760.3732         2047 
   81700   0.44043427    -7.345658    3764.0665         2013 
   81800   0.44967334   -7.3419455    3766.3048         2088 
   81900   0.44843201   -7.3455283    3765.4398         2077 
   82000   0.43768535   -7.3450844     3764.484         2094 
   82100   0.43955259   -7.3325602    3760.7277         2058 
   82200   0.45117126    -7.335294    3766.0262         2031 
   82300    0.4420442   -7.3444573     3762.058         2086 
   82400    0.4421214   -7.3519436    3767.1168         2101 
   82500    0.4468564    -7.330486    3758.4241         2072 
   82600   0.42633481   -7.3392903    3768.1089         2104 
   82700   0.43752522   -7.3391653    3755.4748         2090 
   82800   0.44519752    -7.335325    3762.7212         2087 
   82900     0.429497   -7.3273422    3763.4468         2002 
   83000    0.4341971    -7.337214    3761.0667         2056 
   83100   0.44840506   -7.3379392    3764.5282         2062 
   83200   0.43743401   -7.3452526    3765.5743         2026 
   83300   0.43001143    -7.337916    3761.1474         1989 
   83400   0.44208018   -7.3274322    3760.2807         1992 
   83500   0.44411281   -7.3526229    3768.5143         2027 
   83600   0.43832855    -7.344572    3758.2964         2113 
   83700   0.44175671   -7.3400999    3760.5086         2106 
   83800   0.44206511   -7.3348084     3768.162         2115 
   83900   0.43479875   -7.3466559    3758.6796         2135 
   84000   0.44073609   -7.3480342    3769.7619         2092 
   84100   0.44567839   -7.3398159    3755.7024         2103 
   84200   0.43416504   -7.3624001    3764.3329         2118 
   84300   0.44786783   -7.3496944    3761.3144         2115 
   84400   0.44987364   -7.3427792     3761.114         2184 
   84500   0.44061587   -7.3520841    3757.3363         2131 
   84600   0.43340939   -7.3459571    3763.5077         2099 
   84700   0.43969006   -7.3293976    3761.8986         2088 
   84800   0.43603219   -7.3385866    3762.1486         2103 
   84900   0.44100255   -7.3396099      3756.93         2113 
   85000   0.43263251   -7.3494856    3761.9107         2105 
   85100   0.44090317    -7.351304    3755.9879         2116 
   85200   0.44653941    -7.342675    3763.9177         2161 
   85300   0.43496045   -7.3456938    3764.0665         2118 
   85400   0.44498187   -7.3470932    3757.7621         2167 
   85500   0.43785478   -7.3510085    3763.2008         2129 
   85600   0.44282845   -7.3364057     3756.613         2140 
   85700   0.44408885   -7.3495572    3762.1475         2144 
   85800   0.43905623   -7.3634015    3764.6105         2170 
   85900   0.44258339   -7.3174961    3751.4602         2189 
   86000   0.43667756   -7.3519626    3770.8901         2183 
   86100   0.44316519   -7.3594935    3761.5856         2179 
   86200    0.4475359   -7.3492993    3757.9174         2196 
   86300   0.44251522   -7.3604813    3764.7426         2199 
   86400   0.43138309   -7.3398519    3753.1162         2167 
   86500   0.43145258   -7.3354833    3763.5777         2206 
   86600   0.44828804   -7.3366811    3756.7012         2260 
   86700   0.44063602   -7.3524581    3764.6584         2195 
   86800   0.43173805   -7.3520062    3762.5363         2163 
   86900   0.43280787   -7.3553729    3749.1377         2234 
   87000   0.43610982   -7.3501275    3764.7045         2191 
   87100   0.43607911    -7.347144    3762.0224         2195 
   87200   0.44715119   -7.3407463    3757.3899         2189 
   87300   0.43300136    -7.338331    3759.3888         2154 
   87400   0.43835319   -7.3644246    3762.2715         2187 
   87500   0.44138455   -7.3497416    3756.6733         2193 
   87600   0.43145112   -7.3370924    3763.8444         2196 
   87700   0.43563931   -7.3500757    3760.1938         2232 
   87800   0.43986879   -7.3626795    3753.1673         2281 
   87900   0.43747031   -7.3604965    3765.3817         2238 
   88000   0.44402215   -7.3462541    3754.8378         2261 
   88100   0.43311341    -7.360559     3760.857         2267 
   88200    0.4214327   -7.3588058    3753.6393         2252 
   88300   0.44023189   -7.3588262    3756.5265         2272 
   88400   0.44600844   -7.3553124    3761.6504         2288 
   88500   0.43320754   -7.3424675       3752.7         2298 
   88600   0.44489401   -7.3697424    3761.2067         2257 
   88700    0.4477106   -7.3430462    3761.5662         2255 
   88800   0.44411568   -7.3532234    3759.7245         2294 
   88900   0.43901149   -7.3619569    3755.6827         2304 
   89000   0.44491192    -7.358798    3759.1412         2316 
   89100   0.44507163   -7.3471603    3760.0886         2225 
   89200   0.44060131   -7.3523251    3757.2789         2241 
   89300   0.43176852   -7.3510014    3760.0841         2264 
   89400   0.44292902   -7.3606679    3766.6189         2307 
   89500   0.43857489    -7.345019    3742.1111         2279 
   89600    0.4503224   -7.3752278    3763.1643         2297 
   89700   0.43659989   -7.3585387    3759.8496         2296 
   89800   0.44447718   -7.3447422    3751.0976         2268 
   89900   0.45342595   -7.3548368    3765.6846         2243 
   90000   0.44294545   -7.3711625    3762.9586         2282 
   90100   0.43715212   -7.3517503    3750.8402         2298 
   90200   0.45239879   -7.3611196    3763.6018         2296 
   90300   0.44026514   -7.3557632    3756.0771         2323 
   90400   0.44028912    -7.367772    3759.1851         2301 
   90500   0.43633084   -7.3536561    3759.2831         2296 
   90600   0.44514842   -7.3508988     3755.005         2316 
   90700   0.42963894   -7.3672778    3762.8435         2333 
   90800   0.44297301   -7.3557102    3751.9008         2284 
   90900   0.44427874   -7.3597391     3759.456         2238 
   91000   0.44145143    -7.361601     3762.311         2305 
   91100   0.43345422   -7.3659631    3751.6416         2261 
   91200   0.44042261    -7.369889    3762.0456         2329 
   91300   0.44483619    -7.354579    3751.8734         2272 
   91400   0.43625818    -7.355388    3762.3628         2280 
   91500   0.45367028   -7.3557248    3757.1561         2318 
   91600   0.44489193   -7.3664959    3756.5746         2330 
   91700   0.43460052   -7.3646291    3756.6496         2316 
   91800   0.44800023   -7.3495949    3755.6713         2335 
   91900   0.44285277   -7.3640093    3758.6186         2370 
   92000   0.43865169   -7.3662548    3755.9446         2337 
   92100    0.4515436   -7.3564415    3753.8819         2325 
   92200   0.43694844   -7.3535409    3756.5724         2299 
   92300    0.4311353   -7.3726463    3756.6392         2260 
   92400   0.43923091   -7.3571861    3755.0171         2357 
   92500   0.44521744   -7.3591305    3760.2313         2324 
   92600   0.43962041   -7.3523774    3763.2795         2355 
   92700   0.43697859   -7.3458483    3746.5147         2315 
   92800   0.44360719   -7.3728739    3758.6356         2344 
   92900   0.43141307   -7.3596266    3755.4036         2320 
   93000   0.43952908   -7.3507084    3760.6253         2366 
   93100   0.43359628   -7.3595164    3754.7691         2366 
   93200   0.43394523   -7.3520727    3756.7309         2340 
   93300   0.44440555   -7.3539781     3757.495         2375 
   93400   0.43524237   -7.3732898    3759.7884         2405 
   93500   0.43234392   -7.3445333    3742.2094         2373 
   93600   0.44440627   -7.3623201    3759.8123         2381 
   93700   0.44043921   -7.3626057    3757.9949         2422 
   93800   0.45083125   -7.3623628    3754.4541         2392 
   93900   0.44745002   -7.3589385    3761.2337         2288 
   94000   0.43553395   -7.3488951    3748.7873         2347 
   94100   0.43928605    -7.371919    3761.1901         2413 
   94200   0.44827741   -7.3686377    3752.8195         2399 
   94300   0.44375969   -7.3569832    3764.6047         2431 
   94400   0.44075819   -7.3558014    3750.8003         2422 
   94500    0.4328522   -7.3567475    3759.3069         2438 
   94600   0.43144687   -7.3626777    3755.6475         2440 
   94700   0.43950866   -7.3675223    3756.1094         2424 
   94800   0.44618745   -7.3536601    3754.5522         2405 
   94900   0.43760278   -7.3704266     3756.641         2433 
   95000   0.43140259   -7.3651982     3749.665         2431 
   95100   0.44154772   -7.3686415    3757.8243         2442 
   95200   0.44964764   -7.3654327    3759.1099         2446 
   95300   0.44064479   -7.3622485    3756.0817         2405 
   95400   0.43941925    -7.368707    3757.0277         2394 
   95500   0.44675068   -7.3692964    3755.6688         2382 
   95600    0.4382374   -7.3698957    3751.4173         2441 
   95700    0.4387857   -7.3669501    3754.6549         2449 
   95800   0.44254562   -7.3559789    3756.7602         2385 
   95900    0.4382047   -7.3653491    3762.5368         2461 
   96000   0.44259809   -7.3668683    3749.9631         2451 
   96100   0.43978507   -7.3724394    3753.3879         2396 
   96200   0.44966646   -7.3601646    3756.8334         2339 
   96300   0.43550498   -7.3565273    3751.6696         2420 
   96400   0.43953266   -7.3719732    3751.1467         2368 
   96500   0.44304402   -7.3785085    3763.7664         2390 
   96600   0.44691476   -7.3615986    3748.8152         2443 
   96700   0.43970551   -7.3786488    3756.7456         2420 
   96800   0.44646942   -7.3695246    3750.4185         2446 
   96900   0.44762278    -7.373425    3751.6105         2427 
   97000    0.4357562   -7.3730283    3752.9737         2427 
   97100    0.4424029   -7.3678967     3753.408         2405 
   97200   0.43439708   -7.3673767    3758.0685         2455 
   97300    0.4414776   -7.3703434    3748.1463         2440 
   97400   0.44318618   -7.3846282    3754.6293         2427 
   97500   0.44466279   -7.3724387    3752.8745         2391 
   97600    0.4363246   -7.3729253    3746.8412         2448 
   97700   0.43575394   -7.3613688    3754.6243         2429 
   97800   0.44086961   -7.3635066    3751.0066         2461 
   97900   0.44089475   -7.3873366     3753.282         2447 
   98000   0.45110604   -7.3685835    3749.0791         2476 
   98100   0.44333127   -7.3712192    3754.0857         2498 
   98200   0.43538846   -7.3774368    3749.2815         2526 
   98300      0.43755   -7.3657249    3753.7387         2465 
   98400   0.43825702   -7.3729777    3754.9789         2436 
   98500   0.43763481    -7.383133    3753.6642         2449 
   98600   0.44129419   -7.3654612    3746.5681         2439 
   98700   0.44813996   -7.3754772     3761.586         2449 
   98800    0.4395234   -7.3688546    3750.3592         2470 
   98900    0.4399246   -7.3592321    3750.0644         2485 
   99000   0.43828319   -7.3804522    3759.3083         2507 
   99100   0.43537487   -7.3788675    3747.0886         2521 
   99200   0.42759569   -7.3761465    3754.3166         2483 
   99300   0.44079567   -7.3581211    3746.7856         2482 
   99400   0.43725392   -7.3888463    3757.2175         2458 
   99500   0.44247164   -7.3887413    3748.8675         2500 
   99600   0.44905565   -7.3773562    3754.3176         2469 
   99700   0.43962538   -7.3773333    3753.4378         2510 
   99800   0.43348989   -7.3772588    3747.4157         2537 
   99900   0.43779128   -7.3788209    3750.4081         2479 
  100000    0.4440463   -7.3669061    3749.1599         2462 
  100100   0.43850264   -7.3771203    3753.6748         2478 
  100200    0.4403422   -7.3739746    3753.4918         2474 
  100300   0.43569891   -7.3713097    3743.9446         2453 
  100400   0.44071624   -7.3862574    3752.3721         2437 
  100500    0.4426441   -7.3767944    3753.6156         2446 
  100600   0.43032273   -7.3761227    3746.2773         2466 
  100700   0.43474253   -7.3890771    3758.4112         2498 
  100800   0.44716295   -7.3765294    3746.5625         2479 
  100900   0.42826884   -7.3842342    3757.6956         2439 
  101000   0.43396037   -7.3879738    3744.3204         2429 
  101100    0.4391192   -7.3741095    3749.1445         2432 
  101200   0.43971777   -7.3722048     3754.751         2433 
  101300   0.44655038   -7.3758891    3762.2402         2453 
  101400   0.44253101   -7.3681946    3741.4356         2457 
  101500   0.43400315    -7.386518    3755.2074         2505 
  101600   0.44167149   -7.3817694    3749.1742         2527 
  101700   0.44112181   -7.3794034    3753.4013         2476 
  101800   0.43923453   -7.3733912    3747.3632         2482 
  101900   0.43316851   -7.3874524    3759.5016         2521 
  102000   0.43958684   -7.3703698    3744.9285         2478 
  102100   0.44850661    -7.388914    3762.1854         2425 
  102200    0.4389498   -7.3867195    3747.9068         2460 
  102300   0.44030925   -7.3757107    3748.8233         2519 
  102400    0.4394173   -7.3837685    3758.7733         2504 
  102500   0.44200897   -7.3804319    3751.4748         2506 
  102600   0.45067999    -7.366452    3749.8763         2439 
  102700   0.43031423   -7.3708056    3753.2091         2442 
  102800    0.4418082   -7.3896849    3753.3868         2526 
  102900   0.43583768    -7.377135     3745.105         2478 
  103000   0.44110625   -7.3768394    3756.9323         2506 
  103100   0.43729512   -7.3839617    3754.6089         2534 
  103200     0.433595   -7.3729582    3747.6493         2500 
  103300    0.4456496    -7.375087    3751.3575         2505 
  103400   0.43473853   -7.3711807    3751.9058         2529 
  103500    0.4287802   -7.3670231    3744.0481         2546 
  103600    0.4345714   -7.3857439     3757.444         2529 
  103700   0.43703828   -7.3823858    3748.3413         2527 
  103800   0.44230748   -7.3744564    3748.5729         2538 
  103900   0.43379957   -7.3814602    3749.3517         2530 
  104000   0.43480003   -7.3772471    3748.4457         2488 
Loop time of 183.473 on 24 procs for 100000 steps with 4000 atoms

Performance: 94182.595 tau/day, 545.038 timesteps/s
99.7% CPU use with 24 MPI tasks x no OpenMP threads

MPI task timing breakdown:
Section |  min time  |  avg time  |  max time  |%varavg| %total
---------------------------------------------------------------
Pair    | 22.371     | 23.026     | 23.751     |   7.3 | 12.55
Neigh   | 1.6786     | 1.7205     | 1.772      |   1.8 |  0.94
Comm    | 8.2097     | 9.4679     | 11.135     |  29.5 |  5.16
Output  | 6.2698     | 6.2708     | 6.2828     |   0.1 |  3.42
Modify  | 135.84     | 139.5      | 142.13     |  19.4 | 76.04
Other   |            | 3.484      |            |       |  1.90

Nlocal:        166.667 ave         174 max         160 min
Histogram: 3 1 3 2 1 7 2 2 1 2
Nghost:        2237.83 ave        2252 max        2224 min
Histogram: 2 3 3 1 0 6 4 3 0 2
Neighs:        20578.3 ave       21756 max       19593 min
Histogram: 1 2 5 3 2 4 4 2 0 1
FullNghs:      41157.4 ave       43313 max       39112 min
Histogram: 1 2 3 3 3 5 3 2 0 2

Total # of neighbors = 987778
Ave neighs/atom = 246.94450
Neighbor list builds = 3894
Dangerous builds = 0

#clear
#
#next RN
#
#jump SELF
Total wall time: 0:03:04
