
units lj                  # Use reduced LJ style units
atom_style atomic         # Uncharged point particles
atom_modify map hash      # Needed for indexing of clusters etc
                          # Used to be able to find where atoms are in relation to each other.

# Define a lattice with which to populate the simulation cell. With units
# set to 'lj' the second argument to the lattice command is the reduced
# density rho* and the spacings are multiples of that required to acheive
# that density. Also define a simulation cell called 'box' in lattice units
# and fill it with atoms. Here we're creating a box which is ten lattice
# constants in each direction.
lattice fcc 1.0 spacing 1 1 1                 # All equal sizes - gives the right reduced density.
Lattice spacing in x,y,z = 1.5874011 1.5874011 1.5874011

region box block 0 10 0 10 0 10 units lattice # Defines a region, "box", in lattice units
create_box 1 box                              # Creates a simulation box as specified above,
Created orthogonal box = (0.0000000 0.0000000 0.0000000) to (15.874011 15.874011 15.874011)
  2 by 3 by 3 MPI processor grid
                                              # with one type of atom
create_atoms 1 box                            # Creates particles on lattice points
Created 4000 atoms
  using lattice units in orthogonal box = (0.0000000 0.0000000 0.0000000) to (15.874011 15.874011 15.874011)
  create_atoms CPU = 0.001 seconds


# Set the mass of the first (and only) atom type.
mass 1 1.0

# Lennard-Jones interactions between particles, 3.5 sigma cut-off. Apply
# long range tail corrections to energy and pressure and set all coefficients
# to unity since we work in reduced units here. Note that this doesn't shift
# the potential such that it goes to zero at the cutoff. That would require
# pair_modify('shift', 'yes').
pair_style lj/cut  3.5      # non-GPU version
pair_modify tail  yes
pair_coeff 1  1  1.0  1.0   # Intearaction between 1 and 1 set with epsilon = 1 and sigma = 1

write_data data.*
System init for write_data ...
Neighbor list info ...
  update every 1 steps, delay 10 steps, check yes
  max neighbors/atom: 2000, page size: 100000
  master list distance cutoff = 3.8
  ghost atom cutoff = 3.8
  binsize = 1.9, bins = 9 9 9
  1 neighbor lists, perpetual/occasional/extra = 1 0 0
  (1) pair lj/cut, perpetual
      attributes: half, newton on
      pair build: half/bin/atomonly/newton
      stencil: half/bin/3d
      bin: standard

#############################
#   M E L T   S Y S T E M   #
#############################

velocity all create 2.4 6229865 mom yes dist gaussian # Assign velocities
                                                    # Temperature 2.4, random number seed, zero linear momentum
						                                                        # Gaussian distribution

timestep 0.002   # simulation timestep
thermo 100       # output thermodynamic data every 100 steps

# Define a fix  in this case with index 1 applied to all
# particles in the simulation. This fix is for simulations
# in the anisotropic NPT ensemble. Note that we use the MTK
# correction.
fix 1 all npt temp 2.4 2.4 0.1 iso 5.68 5.68 0.5 mtk yes tchain 5 pchain 5 # Use NPT ensemble
                                                                         # Set temperature and pressure and damping
                                                                         # Numbers of thermostats in chain and in barostat
run 1000         # run for 10000 steps
Per MPI rank memory allocation (min/avg/max) = 3.680 | 3.683 | 3.691 Mbytes
Step Temp E_pair E_mol TotEng Press Volume 
       0          2.4   -8.3859253            0   -4.7868253   -2.2405722         4000 
     100    1.2536957    -6.512639            0   -4.6325656     5.478955    4089.9923 
     200    1.4643499   -6.2844612            0   -4.0884856    6.2225923    4132.6721 
     300    1.5613501   -5.9933187            0    -3.651879    5.8912714    4272.8847 
     400    1.6731008   -5.7064704            0   -3.1974466    5.7980079    4409.8935 
     500    1.7993987   -5.4325725            0   -2.7341491    5.8329956     4543.536 
     600    1.8982906   -5.1495669            0   -2.3028429    5.9004247    4690.6414 
     700    1.9845076   -4.8772598            0   -1.9012426    5.8338611    4846.8673 
     800    2.1343222   -4.6883289            0   -1.4876459    5.9300075    4961.2015 
     900    2.2685415   -4.5564143            0   -1.1544528    5.7429537    5072.3143 
    1000    2.3671174   -4.4804745            0  -0.93068614    5.6609343    5154.7975 
Loop time of 0.557186 on 18 procs for 1000 steps with 4000 atoms

Performance: 310130.022 tau/day, 1794.734 timesteps/s
99.6% CPU use with 18 MPI tasks x no OpenMP threads

MPI task timing breakdown:
Section |  min time  |  avg time  |  max time  |%varavg| %total
---------------------------------------------------------------
Pair    | 0.31944    | 0.34176    | 0.36212    |   2.1 | 61.34
Neigh   | 0.062206   | 0.064456   | 0.067543   |   0.6 | 11.57
Comm    | 0.102      | 0.12266    | 0.14398    |   3.4 | 22.01
Output  | 0.00022977 | 0.00023755 | 0.00030398 |   0.0 |  0.04
Modify  | 0.021762   | 0.025145   | 0.028856   |   1.4 |  4.51
Other   |            | 0.002923   |            |       |  0.52

Nlocal:        222.222 ave         231 max         210 min
Histogram: 3 0 0 2 1 3 2 2 2 3
Nghost:        2031.00 ave        2048 max        2016 min
Histogram: 5 0 1 2 1 2 2 0 3 2
Neighs:        19717.1 ave       21073 max       18338 min
Histogram: 2 1 0 3 2 3 4 0 2 1

Total # of neighbors = 354908
Ave neighs/atom = 88.727000
Neighbor list builds = 86
Dangerous builds = 21

# Equilibrate just above the melting temperature to avoid step fn in T

fix 1 all npt temp 1.25 1.25 0.1 iso 5.68 5.68 0.5 mtk yes tchain 5 pchain 5
run 1000
Per MPI rank memory allocation (min/avg/max) = 3.680 | 3.684 | 3.691 Mbytes
Step Temp E_pair E_mol TotEng Press Volume 
    1000    2.3671174   -4.4804745            0  -0.93068614    5.6609343    5154.7975 
    1100    1.9173858   -4.6307779            0   -1.7554183    5.8554728    4996.3129 
    1200    1.7477579   -4.9829542            0   -2.3619728    5.5796831    4810.9499 
    1300    1.5893104   -5.2408705            0   -2.8575008    5.3451318    4689.7353 
    1400    1.4556711   -5.4006503            0   -3.2176895    5.5642329    4570.8156 
    1500     1.383129   -5.5543358            0   -3.4801609    5.7098519    4482.8499 
    1600    1.3162446   -5.6665882            0    -3.692715    5.5319197    4440.3115 
    1700      1.25084   -5.7143969            0    -3.838606    5.6852524    4398.4145 
    1800    1.2626026   -5.7931589            0   -3.8997285    5.8005288    4354.9947 
    1900    1.2551594   -5.8434232            0   -3.9611548    5.6726084    4344.7346 
    2000    1.2750099   -5.8609224            0   -3.9488856     5.652703    4341.0224 
Loop time of 0.537871 on 18 procs for 1000 steps with 4000 atoms

Performance: 321266.873 tau/day, 1859.183 timesteps/s
99.7% CPU use with 18 MPI tasks x no OpenMP threads

MPI task timing breakdown:
Section |  min time  |  avg time  |  max time  |%varavg| %total
---------------------------------------------------------------
Pair    | 0.32389    | 0.34178    | 0.35328    |   1.5 | 63.54
Neigh   | 0.055073   | 0.056747   | 0.057842   |   0.3 | 10.55
Comm    | 0.10084    | 0.11067    | 0.12587    |   2.3 | 20.58
Output  | 0.000219   | 0.00022774 | 0.00029504 |   0.0 |  0.04
Modify  | 0.022663   | 0.025185   | 0.029474   |   1.5 |  4.68
Other   |            | 0.003259   |            |       |  0.61

Nlocal:        222.222 ave         236 max         215 min
Histogram: 4 1 4 4 1 1 2 0 0 1
Nghost:        2242.33 ave        2259 max        2218 min
Histogram: 1 1 0 3 1 1 4 3 1 3
Neighs:        23367.4 ave       25065 max       22106 min
Histogram: 2 2 3 2 3 3 0 0 2 1

Total # of neighbors = 420613
Ave neighs/atom = 105.15325
Neighbor list builds = 75
Dangerous builds = 5


# Small amount of linear quench

fix 1 all npt temp 1.25 ${temp} 0.1 iso 5.68 5.68 0.5 mtk yes tchain 5 pchain 5
fix 1 all npt temp 1.25 0.13 0.1 iso 5.68 5.68 0.5 mtk yes tchain 5 pchain 5
run 2000
Per MPI rank memory allocation (min/avg/max) = 3.680 | 3.684 | 3.691 Mbytes
Step Temp E_pair E_mol TotEng Press Volume 
    2000    1.2750099   -5.8609224            0   -3.9488856     5.652703    4341.0224 
    2100    1.2114301   -5.8359095            0   -4.0192187     5.850345    4329.2362 
    2200    1.2017904   -5.9052802            0   -4.1030453    5.8079141    4302.1226 
    2300    1.1375913   -5.9448639            0   -4.2389036    5.7161451    4288.7708 
    2400    1.0929307   -6.0243039            0   -4.3853176    5.6793125    4257.4842 
    2500    1.0496691   -6.0948087            0   -4.5206988     5.704133    4223.1822 
    2600    1.0253678    -6.218552            0   -4.6808848    5.5513578     4183.967 
    2700   0.93148034   -6.2537596            0   -4.8568884    5.5843368    4162.3032 
    2800   0.90830342   -6.3683902            0   -5.0062757    5.5460347    4121.7074 
    2900   0.83397386   -6.4197072            0   -5.1690591    5.6642751     4089.175 
    3000   0.80316869   -6.5266555            0   -5.3222037    5.6108108    4051.6583 
    3100   0.74879273   -6.6115921            0   -5.4886838    5.6774324     4015.166 
    3200   0.69630635   -6.6976372            0   -5.6534388    5.6865013    3981.2241 
    3300   0.63879835   -6.7715453            0   -5.8135874    5.8068056    3945.4327 
    3400   0.58924379   -6.8594564            0   -5.9758117    5.7833955    3915.0049 
    3500   0.53548804   -6.9484636            0   -6.1454324    5.7170417    3888.7618 
    3600   0.48368857   -7.0304112            0   -6.3050598    5.7242752    3859.3875 
    3700   0.43257146   -7.1182542            0   -6.4695593    5.6040322    3835.5104 
    3800   0.37039367   -7.1876852            0   -6.6322336     5.527351    3815.0618 
    3900   0.31724625   -7.2660302            0   -6.7902798    5.4531113    3792.8014 
    4000   0.26098613    -7.332334            0   -6.9409526    5.5257622    3766.0749 
Loop time of 1.13326 on 18 procs for 2000 steps with 4000 atoms

Performance: 304961.509 tau/day, 1764.824 timesteps/s
99.8% CPU use with 18 MPI tasks x no OpenMP threads

MPI task timing breakdown:
Section |  min time  |  avg time  |  max time  |%varavg| %total
---------------------------------------------------------------
Pair    | 0.73574    | 0.77282    | 0.80869    |   2.3 | 68.19
Neigh   | 0.078893   | 0.081465   | 0.083324   |   0.4 |  7.19
Comm    | 0.18781    | 0.21956    | 0.24685    |   3.6 | 19.37
Output  | 0.00044428 | 0.00046145 | 0.00059827 |   0.0 |  0.04
Modify  | 0.044621   | 0.050841   | 0.062177   |   2.5 |  4.49
Other   |            | 0.008114   |            |       |  0.72

Nlocal:        222.222 ave         232 max         215 min
Histogram: 1 2 1 1 8 2 1 1 0 1
Nghost:        2449.11 ave        2462 max        2433 min
Histogram: 2 1 1 1 3 1 3 2 1 3
Neighs:        27276.6 ave       28523 max       25849 min
Histogram: 1 2 2 2 1 1 4 2 0 3

Total # of neighbors = 490978
Ave neighs/atom = 122.74450
Neighbor list builds = 103
Dangerous builds = 0

#############################
# F R E E Z E  S Y S T E M  #
#############################

# Define solid atoms. This closely follows ten Wolde  Ruiz-Montero and Frenkel  Faraday Discuss  1996  104  93-110
# Compute components of the per-atom q6 vector
compute q6 all orientorder/atom degrees 1 6 components 6 nnn NULL cutoff 1.3 # compute the Q6 parameter.
                                                                             # Use all neighbours within 1.3 unit cell.

# get number of connections
compute coord_number all coord/atom orientorder q6 0.5

# An atom is solid if it has 8 or more connections (of a possible 14)
variable is_solid atom c_coord_number>=8
group solid dynamic all var is_solid    # Must be dynamic to update
dynamic group solid defined

# do clustering
compute cluster solid cluster/atom 1.3 # Create a cluster where all atoms within are solid and max 1.3 units from another member

# define chunks one chunk per cluster
compute clus_chunks solid chunk/atom c_cluster nchunk every compress yes  # Says which atoms are in which chunk

# count the size of each chunk
compute size_chunks solid property/chunk clus_chunks count


# Find the maximum entry in the vector of chunk sizes
variable max_n equal max(c_size_chunks)


# Thermo style which includes this variable
thermo_style custom step temp pe vol v_max_n

thermo ${N}  # Print the thermo information every 100 steps
thermo 100  

# Reset the npt fix at a lower temperature (below freezing)
fix 1  all npt temp  ${temp} ${temp}  0.1  iso  5.68  5.68  0.5  mtk yes tchain  5  pchain  5
fix 1  all npt temp  0.13 ${temp}  0.1  iso  5.68  5.68  0.5  mtk yes tchain  5  pchain  5
fix 1  all npt temp  0.13 0.13  0.1  iso  5.68  5.68  0.5  mtk yes tchain  5  pchain  5

dump dmp2 all dcd ${N} traj_${rand}.dcd
dump dmp2 all dcd 100 traj_${rand}.dcd
dump dmp2 all dcd 100 traj_462431.dcd


# fix rnuntil all halt ${N} v_max_n >= 3980 error soft message no   # Stop when solidified


run 100000 # 5000000  # Run for this many steps
Neighbor list info ...
  update every 1 steps, delay 10 steps, check yes
  max neighbors/atom: 2000, page size: 100000
  master list distance cutoff = 3.8
  ghost atom cutoff = 3.8
  binsize = 1.9, bins = 9 9 9
  4 neighbor lists, perpetual/occasional/extra = 1 3 0
  (1) pair lj/cut, perpetual
      attributes: half, newton on
      pair build: half/bin/atomonly/newton
      stencil: half/bin/3d
      bin: standard
  (2) compute orientorder/atom, occasional
      attributes: full, newton on
      pair build: full/bin/atomonly
      stencil: full/bin/3d
      bin: standard
  (3) compute coord/atom, occasional
      attributes: full, newton on
      pair build: full/bin/atomonly
      stencil: full/bin/3d
      bin: standard
  (4) compute cluster/atom, occasional
      attributes: full, newton on
      pair build: full/bin/atomonly
      stencil: full/bin/3d
      bin: standard
Per MPI rank memory allocation (min/avg/max) = 9.532 | 9.535 | 9.538 Mbytes
Step Temp PotEng Volume v_max_n 
    4000   0.26098613    -7.332334    3766.0749           39 
    4100    0.2197798   -7.3836337    3748.8621           66 
    4200   0.18853751    -7.424446    3733.6753           37 
    4300   0.16749737   -7.4563318    3723.0453           62 
    4400   0.15429982   -7.4812572    3713.2507           71 
    4500   0.14246839   -7.4974963    3707.0211           67 
    4600   0.13324588   -7.5079756    3703.8777           89 
    4700   0.13164874   -7.5184917    3700.0552           91 
    4800    0.1308046   -7.5256843    3697.6484           60 
    4900   0.13218576   -7.5341783    3695.7873           69 
    5000   0.13134493   -7.5375882     3694.791           71 
    5100   0.13049501   -7.5441404    3694.2852           81 
    5200   0.13080688   -7.5457885    3694.8749          109 
    5300   0.13172255   -7.5522078    3692.8338           82 
    5400   0.13076018   -7.5554977     3691.051           89 
    5500    0.1304162   -7.5603042    3689.8883           76 
    5600   0.13263877   -7.5627647     3689.084           71 
    5700   0.13181337   -7.5646546    3687.6975          155 
    5800   0.12954893   -7.5643389     3686.884          140 
    5900   0.13145181   -7.5628196    3686.7125          123 
    6000   0.12871438   -7.5634204    3685.5858          155 
    6100   0.13019594   -7.5675718    3683.4626          104 
    6200   0.12957346   -7.5708148    3682.6517           47 
    6300   0.12924456   -7.5705086    3681.8745          153 
    6400   0.12757435    -7.569991    3681.1075          116 
    6500   0.13048943   -7.5719701    3680.0114          148 
    6600   0.12828235   -7.5730562    3679.9176          123 
    6700   0.13079909   -7.5750125    3680.3608          194 
    6800   0.12927571   -7.5793845    3679.2334          146 
    6900   0.13017362   -7.5804846    3680.0061           96 
    7000   0.12768352   -7.5826882    3678.7954          162 
    7100   0.12852077    -7.580783    3678.9311          151 
    7200   0.13087303    -7.579219    3678.9206           67 
    7300   0.12928444   -7.5819711    3678.1349          185 
    7400   0.12849071   -7.5797108    3678.4681           64 
    7500   0.12956757   -7.5782276    3678.8491          109 
    7600   0.12924166   -7.5807355    3676.9778          172 
    7700   0.12884698   -7.5801072    3675.4405          210 
    7800   0.13197199   -7.5773592    3677.4877          224 
    7900   0.13014337   -7.5833518    3677.5446          247 
    8000   0.12946844   -7.5857613    3677.5371          259 
    8100    0.1321971   -7.5838433     3678.895          267 
    8200   0.13117325   -7.5869638    3677.8862          235 
    8300   0.12904124   -7.5870266      3678.81          286 
    8400   0.13247231   -7.5879565      3680.18          208 
    8500   0.13096932   -7.5927521    3679.4426          287 
    8600    0.1292401   -7.5941457    3679.0472          120 
    8700    0.1312578   -7.5894737     3680.037          247 
    8800   0.13234847   -7.5948095    3678.6664          145 
    8900   0.12973219   -7.5940147    3678.7809          223 
    9000   0.12797073   -7.5943466    3678.0565           99 
    9100   0.12880496   -7.5939319    3677.7573          162 
    9200   0.13022481   -7.5920386    3678.2748          267 
    9300   0.12848572   -7.5933516    3677.3095          298 
    9400   0.13255137   -7.5915398    3677.7203          221 
    9500   0.13102648   -7.5915772    3677.5328          298 
    9600   0.12922447   -7.5937352    3676.5768          293 
    9700   0.12942165   -7.5969278    3675.2325          288 
    9800   0.12932019   -7.5943816    3675.8889          324 
    9900   0.13163579   -7.5945832    3675.6957          303 
   10000   0.12935353   -7.5988237    3673.2913          179 
   10100   0.13268918   -7.5990816    3672.4215          184 
   10200     0.132793   -7.5925407    3672.8547          342 
   10300   0.12973525   -7.5916228    3671.3258          297 
   10400   0.12685808   -7.5915274    3671.9705          346 
   10500   0.13219875   -7.5919161    3671.7724          304 
   10600   0.13107263   -7.5904175    3673.7326          170 
   10700   0.12992759   -7.5982711    3673.9418          315 
   10800   0.12744061   -7.5997315    3675.2978          266 
   10900   0.12771164   -7.6023104    3674.6234          257 
   11000    0.1333324   -7.6021405    3674.6543          318 
   11100   0.12985168   -7.6005871    3675.4503          331 
   11200   0.12765625   -7.6038307    3674.9377          292 
   11300   0.13304968   -7.6056234    3675.0362          251 
   11400   0.13121147   -7.6033178    3675.8584          287 
   11500   0.13002009   -7.6083083    3675.6121          295 
   11600   0.12884012   -7.6075074    3675.9255          330 
   11700   0.12878569   -7.6047244    3677.0236          154 
   11800   0.13211096   -7.6050391    3676.8932          295 
   11900   0.13019293   -7.6080584    3675.4688          280 
   12000   0.13111825   -7.6082391    3675.1172          319 
   12100   0.12998008   -7.6026606    3675.6133          348 
   12200   0.13100993   -7.6064975    3673.7674          334 
   12300   0.13065643    -7.606258    3672.7282          368 
   12400   0.12642198   -7.6032879    3672.6996          393 
   12500   0.13032733   -7.6053972    3672.2642          428 
   12600   0.12958859   -7.6035924    3672.4885          393 
   12700   0.13243084   -7.6053878    3671.7415          410 
   12800   0.13589399   -7.6068359    3671.2638          408 
   12900   0.12831212   -7.6039017    3671.8931          409 
   13000   0.13135767   -7.6026631    3671.8432          389 
   13100   0.12976645   -7.6045796    3672.7487          450 
   13200   0.12934296   -7.6094465    3671.5065          411 
   13300    0.1317494   -7.6082643    3671.4447          339 
   13400   0.13047339   -7.6059075    3671.9109          414 
   13500   0.12684505   -7.6066817    3672.7767          371 
   13600   0.13048079   -7.6087475    3672.5961          454 
   13700   0.13133406   -7.6078147    3672.8846          415 
   13800   0.12689282   -7.6059505    3674.1484          368 
   13900   0.12802452   -7.6080918    3673.2782          412 
   14000   0.12738757   -7.6138237    3672.2539          362 
   14100   0.12988711   -7.6091309    3674.0948          393 
   14200   0.13100859   -7.6111098    3674.2766          331 
   14300   0.12896213   -7.6122258    3674.5908          385 
   14400   0.13151363   -7.6112642    3675.7605          408 
   14500    0.1321006   -7.6153422    3675.5397          335 
   14600   0.13057509   -7.6160157    3675.6717          393 
   14700   0.13269954   -7.6119676    3676.7897          367 
   14800   0.13194473   -7.6122664    3676.4657          395 
   14900    0.1281234   -7.6125172    3676.1911          406 
   15000   0.12618523   -7.6135092     3675.177          432 
   15100   0.13168873   -7.6124086    3674.4667          437 
   15200   0.13016348   -7.6107442     3673.288          400 
   15300   0.12982258    -7.611039    3672.6451          393 
   15400   0.13230617   -7.6126263    3671.5619          410 
   15500   0.13016538   -7.6126682    3670.9336          384 
   15600   0.13254858   -7.6086892    3671.5232          379 
   15700   0.12868962   -7.6081943    3671.3767          430 
   15800   0.12992272   -7.6089431    3671.1179          417 
   15900   0.13117647   -7.6074734    3671.5164          397 
   16000   0.13149991   -7.6060734    3670.9134          366 
   16100   0.12993618   -7.6072124    3669.2089          387 
   16200   0.12829506   -7.6064945    3668.2578          372 
   16300      0.12942   -7.6044361    3667.3768          427 
   16400   0.13259522   -7.6017774    3667.4199          375 
   16500   0.12881236   -7.6051932    3666.9988          353 
   16600   0.13010003   -7.6080804    3668.0664          392 
   16700    0.1325465   -7.6076181    3670.8407          348 
   16800   0.13087543   -7.6123315     3669.687          335 
   16900    0.1294101   -7.6106166    3670.1917          410 
   17000   0.13036701   -7.6099699    3670.3842          409 
   17100   0.12955938       -7.617    3669.2479          393 
   17200   0.12885507   -7.6133381    3671.1457          440 
   17300   0.12978466   -7.6130329    3672.4739          453 
   17400   0.13003794   -7.6151487    3671.6643          394 
   17500   0.12816664    -7.617049    3671.6443          494 
   17600    0.1301393   -7.6168924      3673.38          417 
   17700   0.12879322   -7.6181242    3674.7888          435 
   17800   0.12689656   -7.6174195    3675.4306          435 
   17900   0.13077738   -7.6180427    3675.2032          407 
   18000   0.12866889   -7.6156783    3675.6613          396 
   18100   0.12856562   -7.6191618    3672.3204          408 
   18200   0.12965924    -7.616494    3672.9446          451 
   18300   0.13259879   -7.6161148    3672.2202          449 
   18400   0.12973803   -7.6173773    3672.6493          440 
   18500   0.12912815   -7.6172756    3672.0811          437 
   18600   0.13256734   -7.6182317    3672.3072          487 
   18700   0.13294867   -7.6203205    3671.4811          490 
   18800   0.12804188     -7.61743     3672.614          391 
   18900   0.12941927   -7.6147615    3674.1632          413 
   19000   0.13176161   -7.6207157    3672.6984          446 
   19100   0.12791629   -7.6208221    3672.6946          429 
   19200   0.13004532   -7.6159621    3672.5957          465 
   19300   0.12919588   -7.6137549    3671.1901          475 
   19400   0.12907165   -7.6175692    3668.9525          426 
   19500   0.12581175    -7.616337    3668.6046          435 
   19600   0.12782622   -7.6116749    3670.0019          474 
   19700   0.13025691   -7.6127786    3669.0856          487 
   19800   0.12731853   -7.6166573     3668.058          430 
   19900   0.12918442   -7.6133144    3669.1081          427 
   20000   0.12850333   -7.6131783     3668.788          478 
   20100   0.12948202   -7.6181351    3666.3171          429 
   20200   0.12917157   -7.6124675    3667.4317          419 
   20300   0.13297582   -7.6151136    3666.8561          458 
   20400   0.12965057   -7.6168022    3666.2799          504 
   20500    0.1297049   -7.6137057    3666.5275          435 
   20600   0.13159972   -7.6128671    3667.8571          432 
   20700   0.13046586   -7.6167143    3665.8883          466 
   20800   0.13108874   -7.6170433    3667.0924          477 
   20900   0.12971022   -7.6155868    3668.7531          438 
   21000   0.12988894   -7.6148515    3670.1273          364 
   21100   0.13116727   -7.6213936    3668.0618          404 
   21200    0.1296209   -7.6197643    3669.5884          457 
   21300    0.1300835   -7.6205553    3670.3208          500 
   21400   0.12559732   -7.6214835    3670.1367          433 
   21500    0.1296865   -7.6195091    3670.5651          460 
   21600   0.12804693   -7.6172701    3670.9085          404 
   21700   0.12738492    -7.623653    3668.8399          414 
   21800    0.1293836   -7.6193978    3669.5245          480 
   21900   0.13210985   -7.6207131    3669.3257          441 
   22000   0.13077279   -7.6216245    3667.8092          431 
   22100   0.13093272    -7.618211     3670.087          513 
   22200   0.12960155   -7.6222759    3668.3407          500 
   22300   0.13015413   -7.6224551    3669.6941          467 
   22400   0.12926174   -7.6215221    3670.5724          469 
   22500    0.1287272   -7.6276487    3668.7308          449 
   22600   0.13195242   -7.6262476     3670.163          460 
   22700   0.13142547   -7.6243205    3671.4476          494 
   22800   0.13153352   -7.6241213    3672.1416          428 
   22900   0.12712929   -7.6270338    3672.6498          541 
   23000   0.13144412   -7.6270958    3672.9641          575 
   23100    0.1316332   -7.6287764    3672.5981          518 
   23200   0.13236595   -7.6296434     3672.455          472 
   23300    0.1276298   -7.6297365    3671.9802          473 
   23400   0.13005128   -7.6297704    3671.9214          461 
   23500   0.13149993   -7.6276292    3671.7498          483 
   23600    0.1295561   -7.6257633    3671.1447          472 
   23700   0.12934896   -7.6266531    3669.5836          513 
   23800   0.12761062   -7.6216133    3671.4301          489 
   23900   0.13049607   -7.6229602    3670.5433          601 
   24000   0.12787711   -7.6247962     3668.998          509 
   24100   0.13097077   -7.6249212    3668.4897          499 
   24200   0.13263417   -7.6203481    3669.6958          479 
   24300   0.13124593   -7.6229297    3668.1791          497 
   24400   0.12863966   -7.6235008    3667.4442          534 
   24500   0.13346939   -7.6230141    3667.3682          421 
   24600   0.13037425   -7.6215807    3667.7351          479 
   24700   0.12959711   -7.6216995    3666.6985          497 
   24800   0.13368155   -7.6230388    3666.6295          462 
   24900   0.12984198   -7.6196706    3666.6919          512 
   25000   0.12728455   -7.6209646    3666.3522          493 
   25100   0.13203907   -7.6210027    3665.8461          444 
   25200   0.13046308   -7.6195295    3665.6404          481 
   25300    0.1306396    -7.618432    3665.8042          498 
   25400   0.12907445   -7.6213729    3664.6467          534 
   25500   0.13117604   -7.6215732    3666.3553          435 
   25600   0.13076405   -7.6217813    3667.6407          457 
   25700   0.12869835   -7.6265421    3667.1634          518 
   25800   0.13053779   -7.6237297    3668.3226          516 
   25900   0.12771669   -7.6226992    3668.8653          486 
   26000   0.13044015   -7.6253156    3667.6908          463 
   26100   0.12866816    -7.623624    3669.3761          540 
   26200   0.12771572   -7.6222632    3670.3548          433 
   26300   0.12916832   -7.6287848    3668.6435          501 
   26400   0.13045826   -7.6290703    3670.0621          507 
   26500    0.1309914   -7.6265772    3671.3331          499 
   26600   0.12968903   -7.6291508    3671.5645          509 
   26700   0.13216481   -7.6323565    3672.0252          527 
   26800   0.12824763      -7.6345    3672.8491          448 
   26900   0.13051068   -7.6335265    3672.8857          426 
   27000   0.13146445   -7.6313478    3673.3772          479 
   27100   0.12982077   -7.6325975    3670.9438          547 
   27200   0.12870924   -7.6306761    3670.3102          530 
   27300    0.1302989   -7.6265402    3669.7535          582 
   27400   0.12773054   -7.6244867    3669.6393          535 
   27500   0.12909258   -7.6269752    3668.9133          510 
   27600   0.12847859   -7.6271921    3668.6799          477 
   27700   0.13060471   -7.6282216    3668.2295          473 
   27800   0.13022509   -7.6251119    3670.0645          576 
   27900    0.1300249   -7.6296835    3668.1687          568 
   28000   0.12939878   -7.6291062    3668.6764          520 
   28100   0.13028639   -7.6244433    3668.7824          570 
   28200   0.13035715    -7.626776    3666.8706          492 
   28300   0.13189251   -7.6241148    3667.1379          260 
   28400   0.13182853   -7.6234228    3665.7562          527 
   28500   0.13030494   -7.6258027    3664.4311          487 
   28600   0.13000312   -7.6206951    3664.6686          417 
   28700   0.13057116    -7.618134      3665.44          581 
   28800   0.12909785   -7.6226551    3664.7435          536 
   28900   0.12893085   -7.6238469    3666.4471          552 
   29000   0.13063792   -7.6251989    3667.2895          556 
   29100   0.13352404   -7.6252267    3666.9681          537 
   29200   0.12890483   -7.6259652    3666.1829          586 
   29300   0.13035071    -7.623203    3666.6583          542 
   29400   0.13117474   -7.6239229    3665.7685          498 
   29500   0.13009566   -7.6270853    3664.6702          569 
   29600   0.13178935    -7.624306    3665.0397          548 
   29700   0.13161325   -7.6238374    3665.5123          585 
   29800    0.1290625   -7.6232761    3665.7851          516 
   29900   0.12930545   -7.6213761    3666.0924          508 
   30000   0.13231982   -7.6235325    3666.3544          488 
   30100   0.13076946   -7.6285249     3666.829          495 
   30200   0.12943809   -7.6263385    3668.8826          543 
   30300   0.13093042   -7.6260528    3669.0015          455 
   30400   0.13149449   -7.6298206     3668.113          531 
   30500   0.12627622   -7.6316079     3668.183          507 
   30600   0.12815294   -7.6308609    3669.5193          549 
   30700   0.13026026   -7.6290381    3670.2374          525 
   30800   0.12702319   -7.6281702    3670.8947          515 
   30900    0.1277928   -7.6325052    3669.9011          587 
   31000   0.13272861   -7.6318019    3670.7448          512 
   31100   0.13092488   -7.6305873    3671.5286          531 
   31200   0.13168166   -7.6315561    3669.9654          554 
   31300   0.12866318   -7.6317331    3669.1553          579 
   31400   0.12756503   -7.6322135    3668.7058          589 
   31500    0.1306352   -7.6290104    3669.0179          580 
   31600    0.1294613   -7.6257569    3669.0849          559 
   31700   0.12860274   -7.6271964    3668.2598          560 
   31800   0.12674701   -7.6293853    3668.6806          589 
   31900    0.1316974   -7.6280322    3669.0282          529 
   32000   0.12983617   -7.6276871     3668.011          467 
   32100   0.12930667   -7.6267417     3666.941          517 
   32200   0.13125521   -7.6230534    3666.1846          523 
   32300   0.12900089   -7.6265102    3665.4062          555 
   32400   0.13150852   -7.6272751    3665.4627          482 
   32500    0.1279981   -7.6230414     3666.468          505 
   32600   0.12971229   -7.6214593    3667.0153          521 
   32700   0.12951982   -7.6236418    3666.5992          547 
   32800   0.12908928   -7.6251406    3666.2106          523 
   32900   0.13210394   -7.6240181     3666.824          591 
   33000   0.13076749    -7.623847    3666.9802          552 
   33100   0.13145867   -7.6279064    3665.8664          561 
   33200   0.13145332    -7.626734    3665.5626          525 
   33300   0.13362241   -7.6237081    3666.4472          542 
   33400   0.12971485   -7.6239514    3665.4716          536 
   33500   0.13157705   -7.6250763    3664.8002          505 
   33600   0.13259882    -7.622034     3666.109          600 
   33700   0.12758189   -7.6238611    3666.0632          514 
   33800   0.13231095   -7.6268003     3666.623          522 
   33900    0.1290485   -7.6260595    3669.1254          525 
   34000    0.1304579   -7.6318059    3668.0319          562 
   34100   0.13065975   -7.6281232     3668.634          497 
   34200   0.12988002   -7.6265744    3669.4645          544 
   34300   0.12961104   -7.6309668     3668.008          569 
   34400   0.12815605   -7.6322412    3667.7385          523 
   34500    0.1304824   -7.6280402    3668.9217          537 
   34600   0.13124848   -7.6283762    3668.7833          637 
   34700   0.12726104   -7.6296953    3668.5626          496 
   34800   0.12996108   -7.6279698    3669.8553          542 
   34900   0.13106933   -7.6291041    3669.3238          527 
   35000   0.13028296   -7.6306324    3669.5064          553 
   35100   0.12926895   -7.6308761    3668.5389          499 
   35200   0.13066188   -7.6286295    3669.9267          446 
   35300   0.13116027   -7.6285645    3669.3927          514 
   35400   0.13044847   -7.6295211    3669.4467          554 
   35500   0.12761384   -7.6312284    3668.7209          512 
   35600   0.13017748   -7.6292334    3669.1176          560 
   35700   0.13154057   -7.6299043    3668.3166          516 
   35800   0.12716797   -7.6315885    3667.7128          575 
   35900   0.12915712   -7.6267599    3668.3944          565 
   36000   0.13049445   -7.6262624    3668.6586          560 
   36100   0.12896691   -7.6301139    3667.0364          551 
   36200   0.12863203   -7.6266436    3668.0143          552 
   36300   0.13038444   -7.6262943    3668.5374          553 
   36400   0.12890037   -7.6258444    3669.0713          573 
   36500   0.13089781   -7.6267849    3668.0904          515 
   36600   0.12969796   -7.6303852     3667.942          527 
   36700   0.12737379   -7.6283658    3667.9732          541 
   36800   0.13027363   -7.6271589    3669.3091          517 
   36900    0.1299743   -7.6279473    3668.2843          560 
   37000   0.12760926   -7.6267702     3668.288          473 
   37100   0.13159014   -7.6255104    3667.6361          493 
   37200   0.13052586   -7.6263322    3666.6308          488 
   37300   0.13328177   -7.6246194    3666.5167          477 
   37400   0.12906525   -7.6229112    3666.5275          545 
   37500   0.12927313   -7.6241559    3665.3593          505 
   37600   0.13161073   -7.6232803    3666.0792          475 
   37700   0.12678756   -7.6237028    3667.1489          478 
   37800   0.12905792   -7.6277958    3665.9357          598 
   37900   0.13067228   -7.6218174    3667.1273          580 
   38000   0.13015077   -7.6249846    3666.8318          548 
   38100   0.12840987   -7.6258304    3666.6334          545 
   38200   0.12925175   -7.6237313    3668.1607          518 
   38300   0.12991325   -7.6236057    3667.5912          436 
   38400   0.12931446   -7.6282582    3665.9896          561 
   38500   0.13205825   -7.6269485    3666.2149          534 
   38600   0.13303574   -7.6264429    3666.0592          528 
   38700   0.12904438   -7.6268295    3666.4515          553 
   38800   0.13207789    -7.624474    3666.2733          484 
   38900   0.13314745   -7.6269783    3667.3731          526 
   39000   0.13092548   -7.6283684     3667.371          471 
   39100   0.13196172   -7.6287916       3668.6          549 
   39200   0.13067517   -7.6304811    3668.6975          537 
   39300   0.12704284     -7.63123     3668.987          464 
   39400    0.1313474   -7.6288159    3669.7398          545 
   39500   0.13016513   -7.6305276     3669.547          569 
   39600   0.12620377    -7.629602    3668.8623          524 
   39700   0.12795461   -7.6287128    3669.5195          571 
   39800   0.12947098   -7.6238423    3669.8703          503 
   39900   0.13058333   -7.6294602    3667.5523          444 
   40000   0.12979071   -7.6287812    3667.4339          550 
   40100   0.13005246   -7.6268436    3667.6825          592 
   40200   0.13313021    -7.624466    3667.8483          597 
   40300   0.12979106   -7.6251728      3667.44          613 
   40400    0.1310368   -7.6274749    3666.6471          565 
   40500   0.12976022   -7.6278795    3666.4143          621 
   40600   0.13440867   -7.6248795    3666.2764          575 
   40700   0.12992034   -7.6258762    3665.6496          631 
   40800   0.13227244   -7.6266917    3664.2235          579 
   40900   0.13217541   -7.6220552    3666.0241          579 
   41000    0.1292397   -7.6224483    3665.1711          591 
   41100   0.12899691   -7.6251969    3665.0785          561 
   41200   0.12720711   -7.6289284    3665.2856          609 
   41300   0.13170163   -7.6268668    3666.4235          574 
   41400   0.13254975   -7.6268025    3668.2267          583 
   41500   0.13083794   -7.6305393    3667.3934          529 
   41600   0.13018825   -7.6326715     3667.262          557 
   41700   0.13289037   -7.6295367    3668.5789          554 
   41800    0.1278843   -7.6282339    3669.7435          500 
   41900   0.12941691   -7.6285136    3669.9178          564 
   42000   0.12922572   -7.6279329    3669.2901          599 
   42100   0.12738961   -7.6320912    3668.2059          620 
   42200   0.12883268   -7.6314994    3667.5303          645 
   42300   0.12942326   -7.6288865    3668.7623          595 
   42400   0.12863233   -7.6260707    3669.6045          574 
   42500   0.12946322   -7.6313681    3667.6007          603 
   42600    0.1283229   -7.6299362     3668.002          613 
   42700    0.1331866   -7.6280113    3668.1132          548 
   42800   0.12943196   -7.6302696    3667.9288          660 
   42900   0.12715997   -7.6292317     3668.845          591 
   43000    0.1315781    -7.629091    3669.1093          582 
   43100   0.12792129   -7.6304669    3670.2504          615 
   43200   0.12782077   -7.6332491    3668.8053          594 
   43300   0.13061546   -7.6309042    3669.3537          587 
   43400   0.13154868   -7.6302856     3669.537          570 
   43500   0.13398117    -7.628858    3670.1992          561 
   43600   0.13113852   -7.6320146    3669.3394          580 
   43700   0.13047875    -7.633371    3668.4833          572 
   43800   0.13135771   -7.6337177    3668.9126          580 
   43900   0.13121336   -7.6293019    3669.6951          599 
   44000   0.12744768   -7.6300443    3668.0377          559 
   44100    0.1282692   -7.6276413    3667.2738          563 
   44200   0.13034701   -7.6272144    3667.6472          496 
   44300   0.12769688   -7.6269064    3667.9507          505 
   44400   0.12720133   -7.6300093    3667.0826          593 
   44500   0.13116665   -7.6271038    3667.1295          592 
   44600   0.12887464   -7.6283899    3666.9057          540 
   44700   0.13044517   -7.6298941    3666.2366          580 
   44800   0.13004955   -7.6247591    3667.0307          574 
   44900   0.12982952   -7.6255262    3666.8142          593 
   45000   0.12756763   -7.6266955    3665.8961          613 
   45100   0.13225205   -7.6235015    3665.2011          581 
   45200   0.12947807   -7.6223327    3664.9502          586 
   45300   0.12932587   -7.6250549    3662.8402          615 
   45400   0.13048786   -7.6221278    3662.2465          583 
   45500   0.12841215   -7.6173708    3662.4865          611 
   45600   0.12614053   -7.6193754    3660.7815          583 
   45700   0.12802669   -7.6204083      3663.23          576 
   45800   0.12941024   -7.6231487    3665.0813          544 
   45900   0.13154906   -7.6270792    3665.5665          659 
   46000   0.12646387   -7.6263072    3666.5188          572 
   46100   0.13223432   -7.6265174    3666.9842          622 
   46200   0.13046019   -7.6282643    3666.4078          605 
   46300   0.12993814   -7.6276416    3667.2983          657 
   46400   0.13234158   -7.6254062    3667.5592          564 
   46500   0.13119016   -7.6298125    3666.7147          628 
   46600    0.1288196   -7.6294711    3667.6109          643 
   46700   0.13282968   -7.6287119    3668.9432          614 
   46800   0.12975547   -7.6309328     3670.146          545 
   46900   0.12745621   -7.6317058    3671.4648          657 
   47000   0.13181687   -7.6302997    3671.1631          644 
   47100   0.12931491    -7.631081    3671.0258          670 
   47200   0.12812113   -7.6316496    3670.1514          587 
   47300   0.13318769   -7.6292259    3670.4461          548 
   47400   0.13220421   -7.6328173    3668.6293          615 
   47500   0.12748074   -7.6308031    3669.6928          607 
   47600   0.13303286   -7.6306177    3669.6321          590 
   47700   0.12922131   -7.6296385    3670.2451          628 
   47800    0.1296199   -7.6326617    3670.0072          575 
   47900   0.13082636   -7.6335129     3670.455          546 
   48000   0.13324317   -7.6310874    3672.7374          593 
   48100   0.13008692   -7.6339103    3671.0609          604 
   48200   0.12925955   -7.6326549    3669.5724          523 
   48300   0.13089077   -7.6264465    3669.5747          613 
   48400   0.13103937   -7.6287829    3666.8507          637 
   48500   0.13021916   -7.6282567    3667.0021          453 
   48600    0.1300215   -7.6257345     3667.871          616 
   48700    0.1310624   -7.6311936     3665.694          594 
   48800   0.13201762   -7.6275383    3666.6956          615 
   48900   0.12968836   -7.6241621    3666.3792          542 
   49000   0.12583684   -7.6242432    3665.9284          557 
   49100    0.1311915   -7.6256621    3664.0036          557 
   49200   0.13238856   -7.6233649    3662.6038          576 
   49300   0.12960072   -7.6210598    3661.4165          670 
   49400   0.12859035   -7.6220659    3661.0227          607 
   49500   0.13004136   -7.6207161    3662.7647          629 
   49600   0.13276792   -7.6222787    3664.7612          658 
   49700   0.12967721   -7.6250215    3665.2995          630 
   49800   0.13246793   -7.6253529    3666.1915          608 
   49900   0.13330439   -7.6287544    3665.7106          559 
   50000   0.13230508   -7.6280524    3667.0535          573 
   50100   0.12835477   -7.6281818    3667.8706          541 
   50200   0.12930933   -7.6327525    3667.9786          610 
   50300   0.12916407   -7.6294679    3669.1868          515 
   50400   0.13057602   -7.6291843    3671.3799          550 
   50500    0.1285812   -7.6344618    3671.2027          582 
   50600    0.1307286   -7.6378345    3672.4303          547 
   50700   0.13168138   -7.6367406     3676.297          560 
   50800   0.12989419   -7.6395046    3674.0486          579 
   50900   0.12939527   -7.6351949    3671.7937          573 
   51000   0.13163886   -7.6300509    3670.3906          578 
   51100   0.13139394   -7.6289618     3670.062          621 
   51200   0.12888598   -7.6294305    3668.7853          516 
   51300   0.13193923   -7.6311907    3668.7645          601 
   51400   0.12942827   -7.6303251    3668.5453          568 
   51500   0.12973894   -7.6289755    3668.5052          543 
   51600   0.13150871   -7.6256313     3668.549          600 
   51700   0.13027856   -7.6288281    3666.5739          645 
   51800   0.13090466   -7.6258747    3666.5331          562 
   51900   0.12992813   -7.6238806    3664.8831          538 
   52000   0.12612948   -7.6215859    3664.3488          580 
   52100   0.13092286   -7.6215425    3664.5365          616 
   52200   0.13125228   -7.6257378    3663.4984          623 
   52300   0.12859997   -7.6244765    3664.2315          637 
   52400   0.13118627   -7.6246486    3665.0059          520 
   52500   0.13071755   -7.6241101    3665.2712          567 
   52600   0.12945334   -7.6229137    3665.9084          586 
   52700   0.12797519   -7.6258503    3665.1947          561 
   52800   0.12888781   -7.6225161    3667.6509          598 
   52900   0.13113107   -7.6261717    3666.5321          558 
   53000   0.13040621   -7.6283936    3666.3961          584 
   53100   0.12937912   -7.6299945    3666.0409          583 
   53200   0.13303157   -7.6264611    3667.2035          512 
   53300   0.12928964   -7.6264657    3666.7758          543 
   53400   0.13029522   -7.6286453    3666.3984          594 
   53500   0.12936825   -7.6259485    3666.9545          619 
   53600   0.13257942   -7.6269243    3666.5299          590 
   53700   0.12972596    -7.629493    3666.2838          605 
   53800   0.13065313    -7.628356    3666.7683          628 
   53900   0.12745686    -7.627235    3667.7891          518 
   54000   0.13214304   -7.6287355    3667.3029          591 
   54100   0.12914878     -7.62839    3667.6324          531 
   54200   0.12688147   -7.6314856    3668.2168          577 
   54300   0.13169208   -7.6306446    3669.3802          510 
   54400   0.13028684   -7.6337483    3670.7599          587 
   54500    0.1273123   -7.6346224    3670.9145          592 
   54600   0.13233592   -7.6334495    3671.0417          599 
   54700   0.12824004   -7.6306589    3670.5525          613 
   54800   0.12885796    -7.632814    3669.2154          649 
   54900   0.13139827   -7.6321334    3668.6425          598 
   55000   0.13066542   -7.6306591    3668.9971          618 
   55100    0.1290524   -7.6296681    3669.3795          614 
   55200   0.12967647   -7.6290386       3669.3          558 
   55300   0.12632245   -7.6296902    3669.2166          574 
   55400   0.12837301   -7.6299506       3668.9          516 
   55500   0.13177511   -7.6298014    3669.0074          611 
   55600   0.12937337     -7.63193    3668.0244          640 
   55700   0.12867046   -7.6273909    3667.8639          582 
   55800   0.13283194   -7.6245531    3667.8314          532 
   55900   0.12991127   -7.6262873    3666.6548          614 
   56000   0.12892246   -7.6252115    3666.4206          568 
   56100   0.13326725   -7.6228999    3666.1872          644 
   56200   0.12936895   -7.6214984    3666.8902          627 
   56300    0.1294482    -7.626602    3665.9314          649 
   56400   0.12999529   -7.6276596    3666.4478          603 
   56500    0.1291602   -7.6235939    3667.5517          629 
   56600   0.12786147   -7.6287652    3666.3784          677 
   56700   0.12801752   -7.6264168    3666.3465          626 
   56800   0.13011933   -7.6238563    3666.7633          626 
   56900   0.12863028   -7.6242206    3666.1178          558 
   57000   0.12961091   -7.6257298    3665.2732          605 
   57100   0.13041862   -7.6238655    3666.3565          632 
   57200   0.12548129   -7.6258303    3666.1777          664 
   57300   0.13120236   -7.6285447    3666.1064          642 
   57400   0.12955481   -7.6264896     3667.314          568 
   57500   0.13231083   -7.6251725      3667.13          540 
   57600   0.12946814   -7.6295681    3665.8096          545 
   57700   0.13063667   -7.6278438    3667.0923          589 
   57800   0.13132852   -7.6275289    3667.3129          568 
   57900   0.12946481   -7.6318441    3666.3794          560 
   58000   0.12885926   -7.6274128    3668.8915          547 
   58100   0.12919744   -7.6300283    3670.4861          560 
   58200   0.12927168   -7.6352324     3671.572          628 
   58300   0.13149051   -7.6310123    3672.2967          599 
   58400   0.13023577    -7.634302    3671.2275          597 
   58500   0.12888436   -7.6346666    3670.0572          618 
   58600    0.1297107   -7.6298065    3670.6206          610 
   58700   0.13079622   -7.6303171     3669.992          600 
   58800     0.128232   -7.6312916    3669.6802          613 
   58900   0.13119592   -7.6310721    3669.4145          653 
   59000   0.13686651   -7.6303004    3669.4678          577 
   59100   0.13025904   -7.6299739    3669.9607          587 
   59200   0.12896435   -7.6338048    3670.8995          636 
   59300    0.1303279   -7.6345301    3673.2187          609 
   59400    0.1319614   -7.6373776    3673.4588          596 
   59500   0.12788176   -7.6330506    3672.7757          578 
   59600   0.13276793   -7.6343602    3669.8873          593 
   59700   0.12703021   -7.6317835    3669.6824          612 
   59800   0.12884821   -7.6312313    3669.0178          614 
   59900   0.13090188   -7.6286947    3668.0923          653 
   60000    0.1282084   -7.6278927    3667.7285          561 
   60100   0.13212405    -7.626295    3667.9363          601 
   60200   0.12937741   -7.6261457    3667.8484          566 
   60300   0.12837535   -7.6262513    3666.7242          691 
   60400   0.12623818   -7.6301857      3665.79          672 
   60500   0.12795531    -7.625172    3666.7915          619 
   60600   0.13248614   -7.6268091     3666.311          546 
   60700   0.12652632   -7.6258274    3667.3117          574 
   60800    0.1318637   -7.6289489    3665.6464          580 
   60900    0.1320013   -7.6251333    3666.6731          597 
   61000   0.12762641   -7.6245188    3667.3441          611 
   61100   0.12997026   -7.6266199    3666.6558          635 
   61200   0.12687648   -7.6289259    3665.9338          611 
   61300   0.12695647     -7.62407    3666.9967          637 
   61400   0.12853487   -7.6246092    3666.9828          590 
   61500   0.13337143   -7.6239196    3666.6963          597 
   61600    0.1274889   -7.6221505    3666.2048          568 
   61700   0.13262946   -7.6260295    3664.1328          554 
   61800   0.12691561   -7.6250239    3664.9824          582 
   61900   0.12919328   -7.6245169    3665.6515          599 
   62000   0.13117417   -7.6247677    3666.6656          558 
   62100   0.13016214   -7.6285916     3665.759          544 
   62200    0.1270708   -7.6319001    3666.0805          537 
   62300   0.12781865    -7.626285    3667.8906          518 
   62400   0.12968509   -7.6277921    3668.9115          541 
   62500   0.12904369   -7.6286296    3668.2499          610 
   62600   0.13035653   -7.6308417    3668.0896          540 
   62700    0.1288276   -7.6303219    3668.7391          534 
   62800   0.12882681   -7.6274688    3669.6722          654 
   62900   0.12808252   -7.6320977    3667.7633          557 
   63000   0.12887181   -7.6289626    3669.6798          561 
   63100   0.12832166   -7.6286447    3669.7032          580 
   63200   0.12873614   -7.6326784    3669.1227          572 
   63300   0.12860038    -7.635566     3671.237          592 
   63400   0.12993596   -7.6335359    3673.1874          601 
   63500   0.13183676   -7.6354954    3674.1779          575 
   63600   0.13046216    -7.639238    3671.7072          513 
   63700   0.13001933   -7.6358296    3671.8944          603 
   63800   0.12783379   -7.6320974    3671.1252          612 
   63900   0.13092349    -7.627669    3670.9345          565 
   64000   0.13208503   -7.6294247    3670.2115          542 
   64100   0.13029228   -7.6327837    3668.7408          588 
   64200   0.13194171   -7.6319481    3667.8063          489 
   64300   0.13180285   -7.6292253     3668.237          546 
   64400   0.13036109   -7.6287724    3668.3684          568 
   64500   0.12897781    -7.627077    3668.3272          598 
   64600    0.1316256   -7.6317989    3665.8247          571 
   64700   0.12959221   -7.6286279    3666.3466          564 
   64800   0.12975978   -7.6263677    3666.5871          609 
   64900    0.1319538   -7.6261712    3665.2955          585 
   65000   0.13082726   -7.6236474    3665.2617          611 
   65100   0.12902886   -7.6206907    3664.9035          600 
   65200   0.12778836   -7.6235966    3663.7507          567 
   65300   0.12977134   -7.6216455    3664.5442          613 
   65400   0.12983722   -7.6202014    3665.1812          654 
   65500   0.12862606   -7.6221843    3665.6342          547 
   65600   0.13019089   -7.6266159    3664.9573          580 
   65700   0.12804168   -7.6280963    3665.1842          523 
   65800   0.12957561   -7.6251287    3666.0528          607 
   65900   0.12983842   -7.6251685    3666.2253          469 
   66000    0.1298572   -7.6291637    3665.0807          552 
   66100   0.13253352   -7.6296071    3665.1087          544 
   66200   0.13078746    -7.624883    3666.0097          561 
   66300   0.13513223    -7.622838    3665.9169          613 
   66400   0.13161037    -7.626173    3665.7614          601 
   66500   0.13111904   -7.6290172    3665.4235          562 
   66600   0.12882812   -7.6290196    3665.3021          596 
   66700   0.12989756    -7.626965    3666.2566          552 
   66800   0.13189807    -7.626243    3667.0801          627 
   66900   0.12968477   -7.6284932    3665.9836          604 
   67000   0.12963239   -7.6272735     3666.789          586 
   67100   0.13042072   -7.6248664    3668.4599          613 
   67200   0.13120616   -7.6253877    3668.8473          529 
   67300    0.1299167   -7.6305288    3668.7473          538 
   67400   0.12689269   -7.6340253     3670.981          607 
   67500   0.13110356   -7.6331338    3672.5141          614 
   67600   0.12977571   -7.6335772    3670.6289          551 
   67700   0.12734685   -7.6346855    3668.8774          580 
   67800   0.12993416   -7.6348322     3668.984          678 
   67900   0.13454523   -7.6343171    3668.0665          629 
   68000   0.12719323   -7.6301188    3669.9216          579 
   68100   0.13008235   -7.6311494    3669.6595          671 
   68200   0.13077043   -7.6310296    3669.4833          645 
   68300   0.12890207   -7.6339242    3668.8055          628 
   68400   0.12923964    -7.631324    3669.8322          650 
   68500   0.13018328   -7.6339085    3669.4841          601 
   68600   0.13377782   -7.6337487    3669.4262          523 
   68700   0.12944688   -7.6315597    3669.0553          495 
   68800   0.12876536   -7.6313032    3667.5301          515 
   68900   0.13128749   -7.6272732    3668.0136          568 
   69000   0.13144879   -7.6300391    3666.1531          645 
   69100   0.12866236   -7.6276101    3666.7692          540 
   69200   0.12738805   -7.6287103     3665.429          510 
   69300   0.13167973   -7.6294291    3664.5176          605 
   69400   0.13183163   -7.6271958    3665.0767          601 
   69500   0.12985604   -7.6259227    3665.4333          642 
   69600   0.12765347   -7.6280772    3664.4289          573 
   69700   0.13090435    -7.626265    3664.1894          654 
   69800   0.12793143    -7.623286    3664.8386          622 
   69900   0.13056045   -7.6235266    3663.6426          626 
   70000   0.12931505   -7.6208632    3662.1619          604 
   70100   0.12630718    -7.622812    3659.7393          556 
   70200   0.12835547    -7.621515    3662.3089          612 
   70300   0.12923902   -7.6242788    3664.4297          599 
   70400   0.13135582   -7.6251021    3665.5568          588 
   70500   0.12931649   -7.6278714    3666.0806          571 
   70600   0.12820603   -7.6319954    3665.3809          576 
   70700   0.12977593   -7.6296854    3666.9416          635 
   70800   0.13148712   -7.6290132    3667.3737          612 
   70900   0.12653807   -7.6307416    3667.6185          591 
   71000   0.12977268   -7.6316659    3668.5464          550 
   71100   0.12792783   -7.6285637    3669.4023          636 
   71200   0.13103803   -7.6339597    3669.1959          627 
   71300   0.12937958   -7.6381815    3668.4489          603 
   71400    0.1292487      -7.6367    3670.7417          622 
   71500    0.1319599   -7.6367804    3672.1305          660 
   71600   0.12881407   -7.6384294    3670.8625          586 
   71700   0.12985736    -7.635234    3669.5091          673 
   71800   0.13132223   -7.6345852    3669.2347          651 
   71900   0.12841252   -7.6364563    3667.8941          607 
   72000    0.1280093   -7.6386129    3667.1947          516 
   72100   0.12954612   -7.6332448    3668.0234          693 
   72200   0.13095769   -7.6324599     3668.737          561 
   72300    0.1290815   -7.6332031    3667.6422          577 
   72400   0.13170329   -7.6332113    3667.5401          648 
   72500   0.12806422   -7.6342622    3666.4799          639 
   72600   0.12761001   -7.6311464     3667.038          626 
   72700   0.13085253   -7.6303705    3666.0041          678 
   72800    0.1277429   -7.6270956    3665.2354          592 
   72900   0.12943457   -7.6296652    3663.3022          613 
   73000   0.12813002   -7.6237692    3664.9468          629 
   73100    0.1288722   -7.6258885     3665.216          652 
   73200   0.13015666   -7.6323971    3663.9913          674 
   73300   0.13135779   -7.6296347    3664.9966          728 
   73400   0.13054672   -7.6302711    3665.0672          737 
   73500   0.12979383   -7.6322903    3664.8761          685 
   73600   0.12963502   -7.6277214     3666.478          733 
   73700    0.1293693   -7.6275949     3665.525          709 
   73800    0.1285643   -7.6292531    3663.7343          710 
   73900   0.13068878   -7.6247226    3662.6402          679 
   74000   0.13018137   -7.6233323    3660.0179          754 
   74100   0.12759748   -7.6211989    3659.7018          705 
   74200    0.1309942   -7.6243331    3660.5058          742 
   74300   0.12744335   -7.6282976    3662.3196          732 
   74400   0.13044124   -7.6261724    3663.6656          715 
   74500    0.1311512   -7.6295695    3663.7543          697 
   74600   0.12804343   -7.6289027    3664.5411          707 
   74700   0.12881496   -7.6301584    3664.8145          707 
   74800   0.13075203   -7.6295883    3664.4429          731 
   74900   0.13047712   -7.6268942    3665.6792          672 
   75000    0.1274812   -7.6301786    3665.0992          762 
   75100   0.12853184   -7.6318395    3665.6232          751 
   75200   0.13133659   -7.6284973    3666.2955          717 
   75300   0.12930154   -7.6303333    3666.0982          736 
   75400   0.13028856   -7.6327443    3665.7242          739 
   75500    0.1271225   -7.6339368    3666.6595          734 
   75600    0.1261742   -7.6281865       3669.6          686 
   75700    0.1284836   -7.6316059    3668.8866          687 
   75800   0.12616234   -7.6330936    3668.4947          711 
   75900    0.1297129   -7.6351823    3668.4895          692 
   76000   0.13301454   -7.6333454    3668.7692          713 
   76100   0.12820584   -7.6332059    3669.2926          728 
   76200   0.12772925   -7.6345778    3668.4701          704 
   76300    0.1311459   -7.6332489    3669.1158          708 
   76400   0.13170474    -7.630766     3670.653          734 
   76500   0.12907887   -7.6350519    3669.0499          712 
   76600    0.1294864   -7.6362558    3668.3656          717 
   76700   0.13321606   -7.6331057    3669.2798          727 
   76800   0.13100956   -7.6367922    3669.2631          722 
   76900    0.1293394   -7.6398381    3670.8775          727 
   77000   0.13117445   -7.6396453    3670.6313          706 
   77100   0.12977217   -7.6356136    3670.6988          666 
   77200   0.12641673   -7.6339944      3669.25          728 
   77300   0.12765642   -7.6369682    3666.8744          693 
   77400   0.13078245   -7.6345436    3666.9881          740 
   77500   0.12763999   -7.6314015    3667.9252          716 
   77600   0.13033936   -7.6271642    3667.9236          681 
   77700   0.12877415   -7.6290879     3666.674          660 
   77800   0.13043986   -7.6344247    3665.4956          694 
   77900   0.12824744   -7.6323644    3665.4233          679 
   78000    0.1311749   -7.6296885    3666.7504          701 
   78100   0.13056317   -7.6301125    3666.0922          735 
   78200   0.13066005   -7.6329842    3665.7503          721 
   78300   0.12956781   -7.6339518     3664.382          679 
   78400   0.12939142   -7.6322808    3664.6585          703 
   78500   0.12951515   -7.6257467    3665.1696          707 
   78600   0.13034415   -7.6287436    3663.3879          786 
   78700   0.13183793   -7.6294416    3661.6685          716 
   78800   0.12745089   -7.6256512    3661.7641          677 
   78900    0.1280381   -7.6244418    3661.8486          701 
   79000   0.12932706   -7.6225478    3662.1925          714 
   79100   0.12760898   -7.6291753    3661.5754          645 
   79200   0.12988555   -7.6286016    3663.3631          660 
   79300   0.13129815   -7.6292232    3664.4891          699 
   79400   0.12720137   -7.6321441    3664.3166          730 
   79500   0.12899646   -7.6298475    3665.7292          732 
   79600   0.12974686    -7.633302    3666.0042          722 
   79700   0.12754472   -7.6306238    3666.3008          687 
   79800   0.13046862   -7.6300479    3666.8793          708 
   79900   0.12954543   -7.6333503    3666.0099          712 
   80000   0.12840102   -7.6321041    3668.7002          738 
   80100    0.1319385   -7.6340755    3669.9277          740 
   80200   0.13139715   -7.6401578    3670.4173          727 
   80300   0.13047039   -7.6403668    3670.4974          698 
   80400   0.13250972    -7.634335     3670.764          723 
   80500   0.13406104   -7.6396433    3668.9238          728 
   80600   0.12759286   -7.6356959    3669.2439          678 
   80700   0.13251788   -7.6345372    3669.7308          693 
   80800   0.13100835   -7.6338411    3669.5003          765 
   80900   0.12816729   -7.6343388    3668.5251          727 
   81000   0.12730997   -7.6341434    3667.8965          713 
   81100   0.13053982   -7.6329112    3668.1997          762 
   81200   0.12683029   -7.6307349    3668.4042          708 
   81300   0.12588644   -7.6323881    3667.2348          710 
   81400   0.13142652   -7.6313671    3666.6206          731 
   81500   0.12644598   -7.6299217    3666.3079          687 
   81600    0.1318754   -7.6332284    3665.0537          687 
   81700   0.12838433   -7.6288098    3665.2938          722 
   81800   0.13017471    -7.625451    3664.9987          765 
   81900   0.13003157   -7.6250768    3664.3171          681 
   82000   0.13007552   -7.6305245     3662.833          701 
   82100   0.13135326   -7.6293034    3663.4955          711 
   82200   0.13226445   -7.6270161    3664.9464          754 
   82300   0.12807546   -7.6291171    3664.0935          756 
   82400   0.13088257   -7.6303545    3664.5417          700 
   82500   0.13185653   -7.6295954    3665.1084          707 
   82600    0.1319872   -7.6311988     3664.753          689 
   82700   0.12838244   -7.6334376    3664.5083          726 
   82800   0.13076853   -7.6318015    3665.6969          738 
   82900   0.13209112   -7.6309471    3665.5891          693 
   83000   0.12794119   -7.6311693    3664.7695          728 
   83100    0.1331709   -7.6328598    3663.8733          744 
   83200   0.12715895   -7.6276164    3666.1534          690 
   83300   0.13134224   -7.6339662    3665.3354          717 
   83400   0.12856604   -7.6333353    3665.3767          752 
   83500   0.12989866   -7.6318429    3666.2844          707 
   83600   0.13214547   -7.6325594    3666.9281          774 
   83700   0.12944747   -7.6324237    3666.8405          735 
   83800   0.12811169   -7.6349739     3666.998          760 
   83900   0.13104818   -7.6318825    3667.1167          720 
   84000   0.13056733   -7.6314743    3667.0002          590 
   84100   0.12978519   -7.6337629    3666.3617          715 
   84200    0.1310238   -7.6337212    3666.5687          707 
   84300   0.13059049    -7.633342     3666.513          726 
   84400   0.12693496   -7.6351804    3665.6659          728 
   84500   0.13016024   -7.6331184    3666.1397          686 
   84600   0.13111312   -7.6327774    3666.6725          786 
   84700   0.13042504   -7.6343408     3665.476          760 
   84800   0.13059571   -7.6325723    3666.2399          726 
   84900    0.1306755    -7.632431    3666.6373          760 
   85000   0.12957142    -7.635467    3666.0151          788 
   85100   0.12712924   -7.6331445     3666.534          781 
   85200   0.13140642   -7.6315896    3666.8101          709 
   85300    0.1300276   -7.6347613    3665.2224          762 
   85400   0.13002345   -7.6337473    3665.5435          778 
   85500   0.12979543   -7.6318153    3666.4857          729 
   85600    0.1321493    -7.631752    3667.0074          709 
   85700   0.12967981   -7.6316209     3665.777          703 
   85800   0.12929179   -7.6333146    3664.3318          748 
   85900   0.13139483   -7.6306674    3665.0755          629 
   86000   0.13086787   -7.6266795    3665.1869          621 
   86100   0.13133611   -7.6303442    3663.2408          749 
   86200   0.12975392   -7.6268419    3662.5413          763 
   86300   0.12968057   -7.6255091    3661.9898          723 
   86400   0.12943913    -7.625738    3661.4001          754 
   86500   0.12943992   -7.6267736    3661.9108          716 
   86600   0.13062217   -7.6263427    3663.4598          752 
   86700   0.12633648    -7.629887    3664.3839          742 
   86800   0.13003798   -7.6315869    3664.8113          731 
   86900    0.1303748   -7.6290558    3665.8454          725 
   87000   0.12821615   -7.6314853    3666.4839          769 
   87100   0.12847589    -7.636282    3664.5268          589 
   87200   0.13090072   -7.6314404     3666.068          702 
   87300    0.1320763   -7.6342268    3665.5568          707 
   87400   0.12780906   -7.6364928    3665.7327          747 
   87500    0.1286452   -7.6321577     3667.461          744 
   87600   0.13012844   -7.6329469    3668.0403          725 
   87700   0.12737782   -7.6374976    3668.2862          718 
   87800   0.12831053   -7.6384719    3670.2949          653 
   87900    0.1298597   -7.6391188    3672.5289          725 
   88000   0.12767922   -7.6369323    3673.6423          708 
   88100   0.13136351   -7.6364644    3671.5861          729 
   88200   0.12787045   -7.6379215    3670.1541          734 
   88300   0.13107381   -7.6371032    3669.3875          743 
   88400   0.13066648   -7.6345084    3669.8473          760 
   88500   0.13080858   -7.6348611    3668.4518          764 
   88600   0.12692641   -7.6366495    3667.5737          735 
   88700   0.12942495   -7.6343139    3667.9128          705 
   88800   0.13160405   -7.6348017    3667.4771          791 
   88900   0.13299057   -7.6293007    3668.4095          737 
   89000   0.12878321   -7.6317691     3668.076          776 
   89100   0.12949176   -7.6361641    3667.1879          757 
   89200   0.12814181   -7.6348523    3666.9303          715 
   89300   0.12958485   -7.6325037    3667.6136          743 
   89400   0.13312851   -7.6349157     3666.222          715 
   89500   0.12974665   -7.6334112    3666.5192          753 
   89600   0.13046592   -7.6371201    3664.4712          764 
   89700   0.13056857   -7.6327259    3665.5351          710 
   89800   0.13091357   -7.6297383    3665.5568          758 
   89900   0.12902028   -7.6289913    3665.1381          759 
   90000   0.12824486   -7.6305668    3663.9438          712 
   90100   0.13016883   -7.6265454    3664.9496          777 
   90200   0.12791849   -7.6257708    3665.7834          702 
   90300    0.1275081   -7.6300673    3663.5625          722 
   90400   0.12959192    -7.631329    3663.0541          720 
   90500   0.12999477    -7.628725    3664.2331          716 
   90600   0.12915477   -7.6267537    3663.9317          729 
   90700   0.13106388   -7.6270457     3662.944          765 
   90800    0.1255135   -7.6259179    3661.8026          787 
   90900   0.13193353   -7.6263327    3658.4469          746 
   91000   0.12991972   -7.6222193    3661.4145          702 
   91100   0.12895598   -7.6251019    3662.6174          776 
   91200   0.12591001   -7.6289348    3663.3181          774 
   91300     0.127434   -7.6280339    3665.1907          713 
   91400   0.13025779   -7.6278805    3666.0125          726 
   91500   0.13005667   -7.6336053    3664.6179          763 
   91600   0.12944963   -7.6354134      3665.57          761 
   91700   0.13321834   -7.6366916    3666.4599          693 
   91800   0.13053383   -7.6337852     3668.504          748 
   91900   0.12845516   -7.6368098    3667.2953          733 
   92000    0.1299463    -7.633499    3668.8616          720 
   92100   0.13233617   -7.6356038    3669.1006          721 
   92200    0.1284343   -7.6391588    3669.0792          699 
   92300   0.12999455   -7.6406377    3670.1238          746 
   92400   0.13114106   -7.6378902    3671.7991          730 
   92500   0.12855643   -7.6388893    3671.1306          721 
   92600   0.13082551   -7.6384399    3669.4973          746 
   92700   0.13324887   -7.6361953    3668.8186          774 
   92800   0.12885679     -7.63345    3667.7396          764 
   92900   0.12592418   -7.6321207    3667.8869          786 
   93000   0.13180476    -7.635552    3666.4664          804 
   93100   0.13098806   -7.6319756    3667.6351          759 
   93200   0.13260177   -7.6325166    3666.9172          758 
   93300   0.12973178   -7.6345405     3665.656          730 
   93400   0.12847864    -7.630443    3667.3164          710 
   93500   0.13052534   -7.6284448      3666.57          744 
   93600   0.13116212   -7.6318003    3664.1656          712 
   93700   0.12951589   -7.6290321    3663.6557          722 
   93800   0.13076763   -7.6272368    3663.1602          678 
   93900   0.13272837   -7.6255655    3663.8098          729 
   94000   0.13072785   -7.6279495    3663.3224          788 
   94100   0.12715722   -7.6281077    3663.6449          793 
   94200   0.13234791   -7.6272258    3663.4806          743 
   94300   0.13053059   -7.6270314     3664.074          754 
   94400    0.1302595    -7.629639    3662.6877          792 
   94500   0.12709378    -7.631532    3662.2371          750 
   94600   0.13112132     -7.62967    3663.1264          741 
   94700   0.13303466   -7.6295083    3663.2791          697 
   94800   0.13066099   -7.6333089    3662.6168          753 
   94900   0.13256589    -7.632399    3663.6424          752 
   95000   0.12851249   -7.6291091    3665.2493          772 
   95100   0.13187209   -7.6287944    3666.3751          769 
   95200   0.13179409    -7.629114     3666.641          754 
   95300   0.13180057   -7.6342019    3665.0177          813 
   95400   0.12626018    -7.632317    3666.5143          750 
   95500   0.12980592   -7.6311606    3667.8335          780 
   95600   0.12957954   -7.6354176    3666.7836          735 
   95700   0.12795086   -7.6362497    3666.8251          770 
   95800    0.1311805   -7.6347812    3668.5681          737 
   95900   0.13068056   -7.6360931    3668.4441          769 
   96000   0.12870613   -7.6379527    3668.0262          776 
   96100   0.13379908   -7.6368244    3668.2738          760 
   96200   0.13154496   -7.6390087    3668.7056          720 
   96300   0.12932767   -7.6401099    3668.5033          734 
   96400   0.12892518    -7.635417    3671.1607          726 
   96500   0.12864518   -7.6379312     3670.889          765 
   96600   0.12990731   -7.6397244    3669.3584          712 
   96700   0.13124518   -7.6359347     3669.901          717 
   96800   0.12882873   -7.6367072    3668.9148          753 
   96900    0.1264775   -7.6357344    3668.2584          662 
   97000   0.12993695   -7.6328067     3668.552          733 
   97100   0.13040457   -7.6317188    3666.7438          737 
   97200   0.12964559   -7.6326831    3666.3468          745 
   97300   0.13028727   -7.6364288    3665.9642          759 
   97400   0.12616078   -7.6318426    3666.5327          781 
   97500   0.13060402    -7.630877    3666.3966          758 
   97600   0.12571425   -7.6311089    3665.8109          735 
   97700   0.12906765   -7.6298374    3664.4314          713 
   97800   0.12884043   -7.6260248    3664.8875          806 
   97900   0.12771096   -7.6305136    3663.0629          708 
   98000   0.12928556    -7.627363     3663.326          746 
   98100   0.13066995   -7.6259543    3663.5295          754 
   98200   0.12898088   -7.6299737    3661.8718          773 
   98300   0.12743261   -7.6264121    3663.5145          786 
   98400   0.13078745   -7.6263084    3663.9352          812 
   98500   0.12880509   -7.6289836    3665.0505          758 
   98600   0.12724257   -7.6335279     3664.086          752 
   98700   0.12914129   -7.6320484    3665.2597          782 
   98800   0.13027159   -7.6322074    3666.0139          779 
   98900   0.13167833   -7.6297962    3666.4596          749 
   99000   0.13051964   -7.6321022    3665.8539          770 
   99100   0.12835677    -7.633214    3665.1563          752 
   99200    0.1302078   -7.6308132    3665.5759          674 
   99300   0.13332702   -7.6288744    3665.4717          727 
   99400   0.12816614   -7.6294766    3664.3275          761 
   99500   0.12954894   -7.6280247    3664.8744          671 
   99600   0.13003193   -7.6265802    3665.4815          748 
   99700   0.12820818   -7.6290241     3664.854          767 
   99800   0.13083377   -7.6302823    3664.6056          726 
   99900   0.13149072   -7.6324053    3664.4894          714 
  100000   0.12903808   -7.6339288     3664.705          763 
  100100   0.12954761   -7.6307483    3665.9614          752 
  100200    0.1305723   -7.6311817    3666.4985          814 
  100300   0.13109501   -7.6326324    3666.8781          765 
  100400   0.12884257   -7.6350249    3665.6585          724 
  100500   0.13086174     -7.63499    3666.6718          740 
  100600    0.1306823   -7.6363439    3667.4149          773 
  100700   0.12740395    -7.638267    3668.1442          730 
  100800   0.13024597   -7.6366862    3669.9248          777 
  100900   0.13139529   -7.6388943    3668.7095          818 
  101000   0.12880504   -7.6422958    3668.8426          778 
  101100   0.13034213   -7.6371986     3670.564          799 
  101200    0.1288418   -7.6379227    3670.0706          794 
  101300   0.12693566   -7.6379375    3670.3424          731 
  101400   0.13308318   -7.6380233      3669.37          780 
  101500   0.12730128   -7.6357246    3669.2965          746 
  101600   0.12978419    -7.638327    3667.0775          795 
  101700   0.13019854   -7.6319998    3668.6797          795 
  101800   0.13026038   -7.6345645    3665.8941          788 
  101900   0.12736729   -7.6340195    3666.8764          780 
  102000   0.12981428   -7.6301481    3667.1333          767 
  102100   0.12820026   -7.6324744    3666.9507          753 
  102200     0.128435    -7.633132    3667.1398          708 
  102300   0.13374487   -7.6305764    3666.2107          754 
  102400    0.1307225   -7.6306574    3665.3988          766 
  102500    0.1295089   -7.6321175    3664.7506          696 
  102600   0.12476268   -7.6330655    3665.0632          791 
  102700   0.13034376   -7.6333811    3664.9118          765 
  102800   0.12796189   -7.6289644    3665.5239          706 
  102900   0.13346215   -7.6302055    3664.9915          731 
  103000   0.13081902    -7.631368    3663.7933          753 
  103100   0.12832128   -7.6283537    3664.7201          692 
  103200   0.12814833   -7.6275042    3664.2462          716 
  103300   0.12999334   -7.6292669    3663.4894          756 
  103400    0.1315831   -7.6322596    3662.6046          775 
  103500   0.13277609   -7.6296977    3665.5064          737 
  103600   0.13004589   -7.6310088    3665.8172          748 
  103700   0.13200299   -7.6331694    3665.4498          776 
  103800    0.1269601   -7.6346524    3665.7212          779 
  103900    0.1268977   -7.6319854    3667.6504          804 
  104000   0.13214876    -7.635026    3667.6203          766 
Loop time of 291.322 on 18 procs for 100000 steps with 4000 atoms

Performance: 59315.861 tau/day, 343.263 timesteps/s
99.6% CPU use with 18 MPI tasks x no OpenMP threads

MPI task timing breakdown:
Section |  min time  |  avg time  |  max time  |%varavg| %total
---------------------------------------------------------------
Pair    | 41.617     | 43.688     | 45.891     |  17.9 | 15.00
Neigh   | 1.3721     | 1.4304     | 1.4927     |   2.5 |  0.49
Comm    | 9.5301     | 11.627     | 13.617     |  31.6 |  3.99
Output  | 9.5288     | 9.5303     | 9.5482     |   0.1 |  3.27
Modify  | 218.35     | 220.73     | 223.42     |  11.3 | 75.77
Other   |            | 4.313      |            |       |  1.48

Nlocal:        222.222 ave         232 max         213 min
Histogram: 2 0 2 1 4 4 1 3 0 1
Nghost:        2493.89 ave        2508 max        2474 min
Histogram: 1 0 3 0 1 4 2 4 1 2
Neighs:        28120.4 ave       29505 max       26759 min
Histogram: 3 0 2 0 3 4 1 3 1 1
FullNghs:      56242.5 ave       58851 max       54103 min
Histogram: 2 2 0 4 2 3 2 2 0 1

Total # of neighbors = 1012365
Ave neighs/atom = 253.09125
Neighbor list builds = 1760
Dangerous builds = 0

#clear
#
#next RN
#
#jump SELF
Total wall time: 0:04:53
