
units lj                  # Use reduced LJ style units
atom_style atomic         # Uncharged point particles
atom_modify map hash      # Needed for indexing of clusters etc
                          # Used to be able to find where atoms are in relation to each other.

lattice fcc 1.0 spacing 1 1 1
Lattice spacing in x,y,z = 1.5874011 1.5874011 1.5874011
region box block 0 10 0 10 0 10 units lattice
create_box 2 box
Created orthogonal box = (0.0000000 0.0000000 0.0000000) to (15.874011 15.874011 15.874011)
  3 by 4 by 4 MPI processor grid
create_atoms 1 box
Created 4000 atoms
  using lattice units in orthogonal box = (0.0000000 0.0000000 0.0000000) to (15.874011 15.874011 15.874011)
  create_atoms CPU = 0.002 seconds
set type 1 type/fraction 2 0.27 78393
Setting atom values ...
  1113 settings made for type/fraction
mass 1 1.0
mass 2 1.0
pair_style lj/cut  3.5
pair_modify tail  yes
pair_coeff 1  1  1.0  1.0   # Intearaction between 1 and 1 set with epsilon = 1 and sigma = 1
pair_coeff 1  2  1.5  0.8
pair_coeff 2  2  0.5  0.88

write_data data.0
System init for write_data ...
Neighbor list info ...
  update every 1 steps, delay 10 steps, check yes
  max neighbors/atom: 2000, page size: 100000
  master list distance cutoff = 3.8
  ghost atom cutoff = 3.8
  binsize = 1.9, bins = 9 9 9
  1 neighbor lists, perpetual/occasional/extra = 1 0 0
  (1) pair lj/cut, perpetual
      attributes: half, newton on
      pair build: half/bin/atomonly/newton
      stencil: half/bin/3d
      bin: standard
WARNING: Not all mixed pair coeffs generated from mixing. Use write_data with 'pair ij' option to store all pair coeffs. (../write_data.cpp:312)


#############################
#   M E L T   S Y S T E M   #
#############################

velocity all create 2.4 5300450 mom yes dist gaussian # Assign velocities
                                                    # Temperature 2.4, random number seed, zero linear momentum
                                                                                # Gaussian distribution

timestep 0.002   # simulation timestep
thermo 1000       # output thermodynamic data every 1000 steps bf 100

# Define a fix  in this case with index 1 applied to all
# particles in the simulation. This fix is for simulations
# in the anisotropic NPT ensemble. Note that we use the MTK
# correction.
fix 1 all npt temp 2.4 2.4 0.1 iso 5.68 5.68 0.5 mtk yes tchain 5 pchain 5 # Use NPT ensemble
                                                                         # Set temperature and pressure and damping
                                                                         # Numbers of thermostats in chain and in barostat
run 10000          # run for 10000 steps
Per MPI rank memory allocation (min/avg/max) = 3.642 | 3.644 | 3.648 Mbytes
Step Temp E_pair E_mol TotEng Press Volume 
       0          2.4   -6.6079615            0   -3.0088615   -3.8965289         4000 
    1000    2.3923673   -4.9570027            0    -1.369349    5.3470123    4265.2755 
    2000    2.3758228   -4.9451542            0   -1.3823109    5.5644651    4251.3746 
    3000    2.3257676   -5.0300689            0   -1.5422897    5.4794474    4219.3947 
    4000    2.4291838   -4.9847228            0    -1.341858    5.8228679    4205.9772 
    5000    2.4504292   -4.9833118            0   -1.3085868    5.6171898    4233.6553 
    6000    2.3610338   -5.0136011            0   -1.4729357    5.5861581    4218.6278 
    7000    2.4387219   -4.9544332            0   -1.2972648    5.9549348    4222.2078 
    8000    2.4776182   -4.9216282            0     -1.20613    5.5988249    4260.1667 
    9000    2.3755553   -4.8897122            0   -1.3272701    5.9080579    4250.2239 
   10000    2.4267817   -4.9449448            0   -1.3056823    5.4967084    4265.9054 
Loop time of 2.39442 on 48 procs for 10000 steps with 4000 atoms

Performance: 721676.412 tau/day, 4176.368 timesteps/s
99.7% CPU use with 48 MPI tasks x no OpenMP threads

MPI task timing breakdown:
Section |  min time  |  avg time  |  max time  |%varavg| %total
---------------------------------------------------------------
Pair    | 0.99723    | 1.0903     | 1.1974     |   4.1 | 45.54
Neigh   | 0.20042    | 0.21014    | 0.2307     |   1.4 |  8.78
Comm    | 0.73103    | 0.83327    | 0.93221    |   4.7 | 34.80
Output  | 0.000245   | 0.00024977 | 0.00031868 |   0.0 |  0.01
Modify  | 0.2032     | 0.24555    | 0.28693    |   3.8 | 10.26
Other   |            | 0.01488    |            |       |  0.62

Nlocal:        83.3333 ave          95 max          76 min
Histogram: 6 3 8 7 9 9 2 3 0 1
Nghost:        1568.17 ave        1601 max        1541 min
Histogram: 3 4 4 8 10 5 6 1 5 2
Neighs:        8933.31 ave       10219 max        7697 min
Histogram: 4 2 4 5 9 8 8 3 4 1

Total # of neighbors = 428799
Ave neighs/atom = 107.19975
Neighbor list builds = 908
Dangerous builds = 215

# Equilibrate just above the melting temperature to avoid step fn in T

fix 1 all npt temp 1.25 1.25 0.1 iso 5.68 5.68 0.5 mtk yes tchain 5 pchain 5
run 2000
Per MPI rank memory allocation (min/avg/max) = 3.643 | 3.645 | 3.649 Mbytes
Step Temp E_pair E_mol TotEng Press Volume 
   10000    2.4267817   -4.9449448            0   -1.3056823    5.4967084    4265.9054 
   11000    1.2386701     -6.77171            0   -4.9141693    5.8585812    3420.1699 
   12000    1.2579887    -6.825692            0   -4.9391807    5.5818479    3414.2589 
Loop time of 0.558326 on 48 procs for 2000 steps with 4000 atoms

Performance: 618993.410 tau/day, 3582.138 timesteps/s
99.7% CPU use with 48 MPI tasks x no OpenMP threads

MPI task timing breakdown:
Section |  min time  |  avg time  |  max time  |%varavg| %total
---------------------------------------------------------------
Pair    | 0.24621    | 0.26562    | 0.29454    |   2.2 | 47.57
Neigh   | 0.03689    | 0.039042   | 0.042314   |   0.6 |  6.99
Comm    | 0.16994    | 0.20166    | 0.22442    |   2.8 | 36.12
Output  | 5.1022e-05 | 5.2626e-05 | 6.8422e-05 |   0.0 |  0.01
Modify  | 0.043819   | 0.047191   | 0.051551   |   0.9 |  8.45
Other   |            | 0.004754   |            |       |  0.85

Nlocal:        83.3333 ave          90 max          77 min
Histogram: 3 4 3 9 6 5 9 4 2 3
Nghost:        1823.60 ave        1845 max        1799 min
Histogram: 2 3 3 7 2 8 12 6 4 1
Neighs:        11200.4 ave       12654 max        9913 min
Histogram: 2 2 2 11 14 6 4 5 1 1

Total # of neighbors = 537619
Ave neighs/atom = 134.40475
Neighbor list builds = 143
Dangerous builds = 10

#############################
# L I N E A R  Q U E N C H  #
#############################

# Define solid atoms. This closely follows ten Wolde  Ruiz-Montero and Frenkel  Faraday Discuss  1996  104  93-110
# Compute components of the per-atom q6 vector
compute q6 all orientorder/atom degrees 1 6 components 6 nnn NULL cutoff 1.3 # compute the Q6 parameter.
                                                                             # Use all neighbours within 1.3 unit cell.

# get number of connections
compute coord_number all coord/atom orientorder q6 0.5

# An atom is solid if it has 8 or more connections (of a possible 14)
variable is_solid atom c_coord_number>=8
group solid dynamic all var is_solid    # Must be dynamic to update
dynamic group solid defined

# do clustering
compute cluster solid cluster/atom 1.3 # Create a cluster where all atoms within are solid and max 1.3 units from another member

# define chunks one chunk per cluster
compute clus_chunks solid chunk/atom c_cluster nchunk every compress yes  # Says which atoms are in which chunk

# count the size of each chunk
compute size_chunks solid property/chunk clus_chunks count


# Find the maximum entry in the vector of chunk sizes
variable max_n equal max(c_size_chunks)


# Thermo style which includes this variable
# thermo_style custom step temp pe vol v_max_n

thermo ${N}  # Print the thermo information every 100 steps
thermo 1000  

# Reset the npt fix at a lower temperature (below freezing)
fix 1  all npt temp  ${temp} ${temp}  0.1  iso  5.68  5.68  0.5  mtk yes tchain  5  pchain  5
fix 1  all npt temp  0.45 ${temp}  0.1  iso  5.68  5.68  0.5  mtk yes tchain  5  pchain  5
fix 1  all npt temp  0.45 0.45  0.1  iso  5.68  5.68  0.5  mtk yes tchain  5  pchain  5

dump dmp2 all dcd ${N} traj.dcd
dump dmp2 all dcd 1000 traj.dcd


compute msd all msd com yes
variable twopoint equal c_msd[4]/6/(step*dt+1.0e-6)
fix 9 all vector 10 c_msd[4]
variable fit equal slope(f_9)/6/(10*dt)
thermo_style custom step temp pe c_msd[4] v_twopoint v_fit v_max_n

fix 1 all npt temp 1.25 ${temp} 0.1 iso 5.68 5.68 0.5 mtk yes tchain 5 pchain 5
fix 1 all npt temp 1.25 0.45 0.1 iso 5.68 5.68 0.5 mtk yes tchain 5 pchain 5
run 2000000 # 5000000  # Run for this many steps
Neighbor list info ...
  update every 1 steps, delay 10 steps, check yes
  max neighbors/atom: 2000, page size: 100000
  master list distance cutoff = 3.8
  ghost atom cutoff = 3.8
  binsize = 1.9, bins = 8 8 8
  4 neighbor lists, perpetual/occasional/extra = 1 3 0
  (1) pair lj/cut, perpetual
      attributes: half, newton on
      pair build: half/bin/atomonly/newton
      stencil: half/bin/3d
      bin: standard
  (2) compute orientorder/atom, occasional
      attributes: full, newton on
      pair build: full/bin/atomonly
      stencil: full/bin/3d
      bin: standard
  (3) compute coord/atom, occasional
      attributes: full, newton on
      pair build: full/bin/atomonly
      stencil: full/bin/3d
      bin: standard
  (4) compute cluster/atom, occasional
      attributes: full, newton on
      pair build: full/bin/atomonly
      stencil: full/bin/3d
      bin: standard
Per MPI rank memory allocation (min/avg/max) = 9.804 | 9.811 | 9.816 Mbytes
Step Temp PotEng c_msd[4] v_twopoint v_fit v_max_n 
   12000    1.2579887    -6.825692 1.8469206e-30 1.2825837e-32 8.3333333e+20            2 
   13000    1.2218148   -6.8410866    0.5005212 0.0032084691   0.04048987            2 
   14000     1.233617   -6.7544392   0.98359343 0.0058547226  0.039795018            2 
   15000    1.2412384   -6.7988224    1.5093142 0.0083850786  0.040925556            2 
   16000    1.2591047   -6.7779461      1.99979  0.010415572  0.041627877            1 
   17000    1.2367758   -6.7983564    2.4605712  0.012061623  0.041362945            1 
   18000    1.2203159   -6.7962345    2.9716272  0.013757533  0.041124117            1 
   19000    1.2636152   -6.7448187    3.4176632   0.01498975    0.0408684            2 
   20000    1.2154218   -6.7616075    3.8966249  0.016235937  0.040638756            1 
   21000    1.2310883   -6.8047427    4.3205976  0.017145228  0.040362468            1 
   22000    1.2451312   -6.7883618    4.8534971  0.018384458  0.040171531            1 
   23000    1.2380422    -6.773351    5.3344606  0.019327755  0.040118559            1 
   24000    1.2686087   -6.7889723    5.7293579  0.019893603  0.039960778            3 
   25000    1.2287794   -6.8133025    6.2245386  0.020748462  0.039717288            2 
   26000    1.2165847   -6.7792982    6.6926317  0.021450742  0.039630089            1 
   27000    1.2177231   -6.8102865    7.1335155  0.022017023  0.039538857            2 
   28000     1.260919   -6.8379318    7.5441334  0.022452778  0.039401963            1 
   29000     1.237329   -6.8229223    8.0807393  0.023220515  0.039315566            3 
   30000    1.2152273   -6.8391885    8.5537248  0.023760346  0.039258851            2 
   31000    1.2722431   -6.8336753    8.9617223  0.024090651  0.039178359            2 
   32000    1.2338633   -6.7655006      9.42647  0.024548099  0.039099491            2 
   33000    1.2473953   -6.8271035    9.7847532  0.024708972  0.038986778            3 
   34000    1.2524183   -6.8365328    10.247081  0.025115395  0.038802403            3 
   35000    1.1845991   -6.7993031    10.666785  0.025397108  0.038658534            1 
   36000    1.2421956   -6.8255941    11.232117  0.026000269  0.038604605            1 
   37000    1.2612814   -6.7953681    11.783385  0.026539154  0.038617319            1 
   38000    1.2891702   -6.8256129    12.344726  0.027071767  0.038670924            1 
   39000    1.2478261   -6.8068845    12.839192   0.02743417  0.038766444            2 
   40000    1.2436598     -6.76994    13.323677  0.027757659  0.038882497            2 
   41000    1.2480704   -6.7940084    13.823003  0.028095534  0.038972505            2 
   42000    1.2323458   -6.7945954    14.281236  0.028335785  0.039082685            2 
   43000    1.2209129   -6.8344505    14.771285  0.028626521  0.039148414            2 
   44000    1.2267108   -6.8315888    15.134744  0.028664287  0.039193526            1 
   45000    1.2409448   -6.8578902    15.727621  0.029125223  0.039230624            2 
   46000    1.2202352   -6.7714328    16.420989  0.029748168  0.039308989            2 
   47000    1.2457875   -6.8418122    16.929083  0.030016105  0.039447274            2 
   48000    1.2117166   -6.8359501    17.365858  0.030149059  0.039557033            2 
   49000    1.2473951   -6.8192272    17.859688  0.030373618  0.039647396            3 
   50000    1.2428096   -6.8212204    18.200184  0.030333639  0.039698956            2 
   51000    1.2507932   -6.7888204     18.62963  0.030440571  0.039711406            3 
   52000    1.2182348   -6.8250297     19.01017  0.030465015  0.039709342            1 
   53000    1.2172721   -6.8114346    19.580095  0.030786312  0.039697474            1 
   54000    1.2266168   -6.7972917    19.895946   0.03070362  0.039677946            1 
   55000    1.2490008   -6.8252289    20.296087  0.030751646  0.039644644            2 
   56000     1.247101    -6.837491    20.560309  0.030595698  0.039571757            1 
   57000    1.2159535   -6.8358908    21.056232  0.030783965   0.03948918            1 
   58000    1.2494043   -6.8059626    21.582039  0.031008676  0.039434585            1 
   59000     1.248717   -6.8433951    21.934242  0.030980568  0.039380086            1 
   60000    1.2374937   -6.7879713    22.284415  0.030950576  0.039289639            1 
   61000    1.2407989   -6.8043512    22.888554  0.031268516  0.039212737            3 
   62000    1.2052194   -6.8397017    23.415687  0.031472697  0.039162934            2 
   63000    1.2291642   -6.8424786    23.808749  0.031493054  0.039122905            1 
   64000    1.2175026   -6.8445839    24.238976  0.031561166   0.03907204            2 
   65000    1.2268453    -6.815786    24.723174  0.031696376  0.039018312            2 
   66000    1.2157981    -6.847689    25.164211  0.031772994  0.038977039            2 
   67000    1.2338119   -6.8430769    25.669242  0.031926918  0.038937654            2 
   68000    1.2434506   -6.8431663    25.994183  0.031855616  0.038893529            2 
   69000    1.2335454   -6.8217175    26.478798  0.031979224   0.03884688            1 
   70000    1.2342262   -6.8383489    27.029487   0.03217796  0.038809907            1 
   71000    1.2442353   -6.8234357    27.466116  0.032237225  0.038786163            2 
   72000     1.215002   -6.8159964    27.753403  0.032121994  0.038740942            5 
   73000    1.2102722   -6.8795171    28.195638  0.032186802  0.038694865            1 
   74000    1.2418644   -6.8635962    28.588296  0.032194027  0.038651962            1 
   75000    1.2147167    -6.817019    29.216928  0.032463254  0.038615252            2 
   76000    1.2156722   -6.8176967    29.826048     0.032704   0.03859514            1 
   77000    1.2512706   -6.8152997    30.089778  0.032564694  0.038564806            3 
   78000    1.2225722   -6.8482841    30.444076  0.032525722  0.038530861            1 
   79000    1.2262881   -6.8408677    30.711006  0.032395576  0.038488434            1 
   80000    1.2271016   -6.8684971    31.143798  0.032441456   0.03843806            2 
   81000    1.2343052   -6.8490514    31.678253  0.032590795  0.038389675            2 
   82000    1.2153712   -6.8390175    32.015717  0.032536298  0.038338712            1 
   83000    1.2213482   -6.8519194    32.542203  0.032672895  0.038296219            2 
   84000    1.2156249   -6.8665187     32.87591   0.03261499  0.038257192            2 
   85000    1.2185885   -6.8638077    33.424383  0.032769003  0.038223441            1 
   86000     1.195908   -6.8586111    34.027619  0.032972499  0.038200245            1 
   87000    1.2034346   -6.8452609    34.327194  0.032880454  0.038175392            1 
   88000    1.2071006   -6.8502837    34.858639  0.033010074   0.03814158            1 
   89000    1.2233559   -6.8564657    35.370372  0.033118326  0.038115946            2 
   90000    1.2064143   -6.8797759    35.706561   0.03306163  0.038089432            1 
   91000    1.2104611   -6.8288516    36.184125  0.033135645  0.038066325            2 
   92000    1.2604506   -6.8676667    36.628778  0.033178241  0.038046389            1 
   93000    1.2092402    -6.851251    37.179053  0.033314563   0.03802298            1 
   94000    1.1979037   -6.8651113    37.540611  0.033280684  0.037999429            1 
   95000    1.1759092   -6.8485608    37.776232  0.033137046  0.037971384            3 
   96000    1.2071067   -6.8350883    38.438672  0.033366903  0.037948323            3 
   97000    1.2433512   -6.8392003    38.758791  0.033297931  0.037918283            2 
   98000    1.2461498   -6.8637745     39.00179  0.033164787  0.037883566            1 
   99000    1.2095141   -6.8501185    39.658861  0.033382879   0.03785228            1 
  100000    1.2177419   -6.8500193    40.037039  0.033364199  0.037829478            2 
  101000    1.2414162   -6.8583408    40.478418  0.033398035  0.037812922            2 
  102000    1.2206502   -6.8688853    41.032016  0.033522889    0.0377946            1 
  103000    1.2341875   -6.8349333    41.314232  0.033425754  0.037771733            1 
  104000    1.2314926   -6.8646794    41.541617  0.033286552  0.037741428            2 
  105000    1.1930112   -6.9006226    41.910566  0.033262354  0.037707932            3 
  106000    1.2045228   -6.8809594    42.425342  0.033353256  0.037674326            6 
  107000    1.2053363    -6.855993    42.964621  0.033461543   0.03764298            1 
  108000    1.2192869   -6.8458804    43.533305  0.033590513  0.037616081            1 
  109000    1.2074846   -6.8675247    43.794436  0.033481984  0.037593729            1 
  110000    1.2006174   -6.8223034     44.42285  0.033653674  0.037576831            1 
  111000    1.2073235   -6.8914987    44.808045  0.033639673  0.037561056            1 
  112000    1.2087881   -6.8925677    45.411005   0.03378795  0.037544755            2 
  113000    1.1938405   -6.8040202    46.107886  0.034002866   0.03753866            1 
  114000    1.1774958   -6.8433713      46.4305  0.033940424  0.037532365            1 
  115000    1.2066407   -6.8525023     47.03728  0.034084985  0.037527454       -1e+20 
  116000    1.1944978   -6.8873086     47.39928  0.034051207  0.037526501            1 
  117000    1.2197621   -6.8562064    47.960302  0.034159759  0.037529491            1 
  118000    1.2165009   -6.8578759    48.517989  0.034264116  0.037529699            1 
  119000    1.2159042   -6.8937732    48.912599   0.03425252  0.037535706            4 
  120000    1.1845791   -6.8348616    49.373122   0.03428689  0.037544183            1 
  121000    1.2039579    -6.835174    49.905289  0.034370034   0.03755644            3 
  122000    1.1887604   -6.8981743    50.308847  0.034363967  0.037563775            1 
  123000    1.1971269   -6.8687376    51.045312  0.034583545  0.037574966            1 
  124000    1.1888102   -6.8858705     51.29129  0.034469953   0.03758492            2 
  125000    1.1982592   -6.8888088    51.600774  0.034400516  0.037595935            2 
  126000    1.1810143    -6.893739    52.103949  0.034460284   0.03759905            2 
  127000    1.1913029   -6.8569082    52.732316  0.034601257  0.037606392            2 
  128000    1.1958577    -6.874785    53.293469  0.034696269  0.037616842            3 
  129000    1.1748864   -6.8877248    53.600261  0.034625492  0.037627418            1 
  130000    1.2091714   -6.9193026    53.877605  0.034536926  0.037636675            1 
  131000    1.1801058   -6.8948994    54.614706  0.034742179  0.037649356            1 
  132000    1.1912891   -6.8920959    54.955505  0.034694132  0.037662475            1 
  133000    1.2047818    -6.824846    55.733715  0.034920874  0.037674521            1 
  134000    1.1961123   -6.8894373    56.176283  0.034935499  0.037689016            2 
  135000    1.2038804   -6.9185292    56.442624  0.034841126  0.037703632            1 
  136000    1.1976967   -6.8737752    56.985289  0.034917456  0.037716652            3 
  137000    1.1979414   -6.8514981    57.826392  0.035174204  0.037732436            2 
  138000     1.195074   -6.8747692    58.114591  0.035093352  0.037748904            1 
  139000    1.1951197    -6.871423     58.74931  0.035221409  0.037764897            1 
  140000    1.1786329   -6.9231753    58.674357  0.034925212  0.037776021            1 
  141000    1.2059441   -6.8893636    58.929097  0.034828071  0.037781306            3 
  142000    1.1850242   -6.8975067    59.116987  0.034693067  0.037777256            1 
  143000    1.2008472   -6.8987214    59.554083  0.034705177  0.037769014            2 
  144000    1.2081906   -6.8994793    59.851839  0.034636481  0.037757768            1 
  145000    1.2153284   -6.8799326    60.470972  0.034753432  0.037744673            2 
  146000    1.1831246   -6.9024473    60.698014  0.034644985  0.037731098            1 
  147000     1.151415   -6.8971177    61.173584  0.034678902  0.037716553            2 
  148000    1.1896848   -6.9108282    61.312644  0.034522885  0.037703646            1 
  149000    1.1907003   -6.8947295    61.989005  0.034669466  0.037689046            1 
  150000    1.2100523   -6.9205493    62.310375  0.034616875  0.037676166            2 
  151000    1.2101848    -6.906733    62.471511  0.034476551  0.037656327            2 
  152000    1.1889179   -6.8920462    62.802263  0.034431065  0.037631976            2 
  153000    1.1858352   -6.9062161    63.105916  0.034371414  0.037605859            3 
  154000      1.17028   -6.8987665    63.457035  0.034338222  0.037577439            1 
  155000     1.186775   -6.9246768    63.685925  0.034239745  0.037548857            3 
  156000    1.2031154   -6.8988715    64.191699  0.034290438  0.037518898            1 
  157000    1.2137782   -6.9354561    64.760282  0.034373823  0.037491321            3 
  158000    1.1686159    -6.931915    65.505295  0.034549206   0.03746931            2 
  159000    1.2027788   -6.9304808    65.615197  0.034389516  0.037448386            1 
  160000    1.2096176   -6.8795432    66.221534  0.034490382  0.037425208            2 
  161000    1.2173295   -6.9269246    66.337664  0.034336265   0.03739864            1 
  162000    1.2170809   -6.8715212    66.767237  0.034345286  0.037365354            2 
  163000    1.1820103   -6.9052192    66.829717  0.034166522  0.037330313            2 
  164000      1.17954    -6.935008    67.014798  0.034052234  0.037296042            2 
  165000    1.1929792   -6.8866237    67.416375  0.034048674  0.037259669            2 
  166000    1.1973865   -6.9078562    67.902828  0.034087765  0.037221325            4 
  167000    1.1936521   -6.9136302    68.510014  0.034186634  0.037187961            3 
  168000    1.1746323   -6.9089405    68.910708  0.034181899  0.037156902            2 
  169000    1.1942849   -6.8994721    69.333081   0.03418791  0.037124706            1 
  170000    1.1925343   -6.9342567    69.488783  0.034063129  0.037090953            1 
  171000    1.1694311   -6.9192181    69.776836  0.034004306  0.037059687            1 
  172000    1.1680349   -6.9207877    70.237776   0.03402993  0.037025648            1 
  173000    1.1845727   -6.9532635    70.483544  0.033951611  0.036990822            2 
  174000    1.1815296   -6.9336054    70.900592  0.033956222  0.036955438            2 
  175000    1.1782209   -6.9177977    71.324956  0.033964265  0.036918556            1 
  176000    1.1836413   -6.9056325    71.386314  0.033800338  0.036879116            1 
  177000    1.1962929   -6.9361141    71.602465  0.033711141  0.036837813            1 
  178000    1.1756749   -6.9160826     72.27501  0.033836615  0.036796312            1 
  179000    1.1960776   -6.9434989      73.0845  0.034024441   0.03676114            4 
  180000    1.1883518   -6.9159823    73.316701  0.033942917  0.036728356            2 
  181000    1.1886674   -6.9328461    73.793293  0.033974812  0.036696722            1 
  182000    1.2014865    -6.911282    74.560071  0.034139226  0.036668549            1 
  183000    1.1950019   -6.9426662    74.624037  0.033981802  0.036642178            1 
  184000    1.1672943   -6.9492764    74.884051  0.033914878  0.036611428            2 
  185000    1.1892649   -6.9026139    75.355213  0.033943789  0.036580238            1 
  186000    1.1675159   -6.9105852    75.752748  0.033939403   0.03654961            2 
  187000    1.1824235   -6.9199359    76.460825  0.034073451   0.03652449            1 
  188000    1.1788254   -6.9568435    76.725488  0.034009525  0.036499882            2 
  189000    1.2118647   -6.9373454    77.150058   0.03401678  0.036474263            2 
  190000    1.1769897   -6.9328685    77.377423  0.033937466  0.036446491            1 
  191000    1.1556154   -6.9661976    77.559816  0.033839361  0.036416842            2 
  192000    1.2007617   -6.9023984    78.386735   0.03402202  0.036390343            2 
  193000    1.1936327   -6.9278344    78.325126  0.033819139  0.036364657            2 
  194000    1.1524667   -6.9387087    78.829766  0.033861583  0.036336204            2 
  195000     1.190452    -6.904886    79.279025  0.033879925   0.03630673            4 
  196000    1.1778029   -6.9419208    79.126445  0.033642196  0.036276414            2 
  197000    1.1756252   -6.9916833    79.572086  0.033659935  0.036245841            1 
  198000    1.1796203   -6.9417108    80.515537  0.033887011  0.036217539            1 
  199000     1.179012   -6.9562738    80.588331  0.033747207  0.036191017            2 
  200000    1.1579625    -6.939793    81.422941  0.033926225  0.036163772            1 
  201000      1.15438   -6.9313427    81.087803  0.033618492  0.036134721            3 
  202000    1.1682693    -6.986242    81.528845  0.033634012  0.036104666            1 
  203000     1.172075   -6.9756801    82.112723  0.033708014  0.036074412            2 
  204000    1.1742882   -6.9582713    82.698759  0.033782173  0.036044575            1 
  205000    1.1647452   -6.9512381     82.77461  0.033648215  0.036017345            2 
  206000    1.1870441   -6.9462523    83.333629  0.033711015  0.035989104            2 
  207000    1.1971124   -6.9424093    83.751433  0.033716358  0.035961248            2 
  208000    1.1839149   -6.9702646    84.148825  0.033713472    0.0359337            1 
  209000    1.1816106    -6.942826    84.374936  0.033642319  0.035906753            2 
  210000    1.1678355   -6.9352054    84.607713  0.033574489  0.035877039            2 
  211000    1.1682137   -6.9221507    85.286152  0.033683314  0.035848001            3 
  212000    1.1718366   -6.9747431    85.447314  0.033587781  0.035818684            2 
  213000    1.1782077   -6.9486053     85.93934   0.03362259  0.035789825            2 
  214000    1.1393181   -7.0029652    86.126262  0.033538264  0.035761479            1 
  215000    1.1790973   -6.9511313    86.718678  0.033611891   0.03573351            3 
  216000    1.1760077   -6.9596232    86.945999  0.033543981  0.035705691            2 
  217000    1.1518229   -6.9493127     87.45376  0.033584393  0.035679711            2 
  218000    1.1483644    -6.968097    87.609138  0.033489732  0.035653991            1 
  219000    1.1534426    -6.994805    88.109232  0.033527105  0.035627738            3 
  220000    1.1756206   -7.0147698    88.438056  0.033499263   0.03560319            1 
  221000    1.1563294   -6.9499774    89.164767  0.033621707  0.035578722            2 
  222000    1.1477222   -6.9979582     89.09085  0.033442511  0.035551275            1 
  223000    1.1619062   -6.9195057    89.677567  0.033511796  0.035524308            2 
  224000    1.1637621   -6.9731068     90.00357  0.033483471  0.035497207            2 
  225000    1.1659065   -6.9745266    89.796994  0.033258146  0.035468468            5 
  226000    1.1547075   -6.9681266    90.398026  0.033332606  0.035439202            3 
  227000    1.1532172   -6.9803991    90.517641  0.033229677  0.035407652            1 
  228000     1.155934   -6.9630498    91.177126  0.033324973   0.03537687            2 
  229000    1.1665961   -6.9490478    91.577629  0.033325192   0.03534735            3 
  230000    1.1695524   -6.9771975    92.017788  0.033339778  0.035319823            2 
  231000    1.1612422   -6.9585401    92.475207  0.033360464  0.035292409            1 
  232000    1.1594884    -6.981437    93.050175  0.033423195  0.035266457            3 
  233000    1.1378293   -7.0181756    93.080274  0.033290513  0.035240535            1 
  234000    1.1627896   -6.9887047    93.443207  0.033277495   0.03521395            1 
  235000    1.1364998   -6.9717967    94.055377   0.03335297  0.035187513            2 
  236000    1.1533997   -6.9637295    94.150517  0.033245239  0.035160727            2 
  237000    1.1738743   -6.9883071     94.29341  0.033155207  0.035133551            1 
  238000    1.1627261   -6.9443817    95.076513  0.033290095  0.035106728            2 
  239000    1.1688673    -6.986078    95.551173  0.033316309  0.035081182            2 
  240000    1.1742911   -6.9655883     95.89477  0.033296795  0.035056565            2 
  241000    1.1656416   -6.9663342     96.26022     0.033285  0.035030993            4 
  242000    1.1643828   -6.9784415    96.733367  0.033310388  0.035005895            1 
  243000    1.1164742   -6.9125708    96.727528  0.033171306  0.034980217            3 
  244000    1.1421343   -6.9726907    97.076137  0.033154418  0.034953004            1 
  245000    1.1399597   -6.9845117    97.585094  0.033192209  0.034927241            5 
  246000    1.1752506    -6.966312    97.400835  0.032994863  0.034901104            2 
  247000    1.1704514   -7.0130459    98.010091  0.033066832  0.034874726            2 
  248000    1.1547487   -6.9469006    97.989979   0.03292674  0.034847869            3 
  249000    1.1547687   -7.0485107    98.444703  0.032946688  0.034819649            2 
  250000    1.1769941   -7.0113524    98.701823  0.032900607  0.034791971            1 
  251000    1.1639295   -6.9849319    99.446653  0.033016817  0.034764543            2 
  252000    1.1704799   -7.0113357    99.627937  0.032945746  0.034737225            2 
  253000    1.1693723   -6.9953503    99.849508  0.032888507  0.034709401            3 
  254000    1.1356464    -6.995307    100.18786  0.032870034  0.034681182            1 
  255000    1.1450538   -6.9483852    100.72282  0.032915953  0.034653536            1 
  256000    1.1629768    -6.988376    100.97539  0.032869594  0.034627097            1 
  257000    1.1451517   -6.9765026    101.67416  0.032968276  0.034601442            1 
  258000    1.1685902   -6.9908214    102.06193  0.032965739  0.034577146            1 
  259000    1.1644447    -7.008446    102.46744  0.032968933  0.034552943            2 
  260000    1.1266658   -7.0050554     103.0308  0.033022693  0.034529388            1 
  261000    1.1504439   -6.9746585    103.35251  0.032998884  0.034506116            1 
  262000    1.1549334   -6.9404243    104.00366  0.033080043  0.034483242            4 
  263000    1.1479065   -7.0029117    103.76222  0.032877764  0.034460793            2 
  264000    1.1432622   -6.9996745      104.237  0.032903094  0.034437821            4 
  265000     1.160634    -7.020751    104.71025  0.032927751  0.034415047            1 
  266000    1.1623245   -7.0089185    105.24268  0.032970765  0.034391505            4 
  267000    1.1685586   -6.9875896    105.47404  0.032919487  0.034369251            1 
  268000    1.1444209   -7.0107279    105.93372  0.032939588  0.034347973            2 
  269000    1.1129789   -6.9975611    105.94101  0.032819397  0.034325918            1 
  270000    1.1422309     -6.99871     105.9838   0.03271105   0.03430277            2 
  271000    1.1382063   -7.0233308    106.20525  0.032658442   0.03427984            1 
  272000    1.1507267    -7.022387    106.86204  0.032739596  0.034255387            2 
  273000     1.173523     -6.99825    107.17162   0.03271417  0.034230945            2 
  274000    1.1362502   -7.0141218    107.16248  0.032591996  0.034205899            1 
  275000    1.1498005   -7.0125863    107.81419  0.032670968  0.034180807            1 
  276000    1.1142278   -6.9599817    108.37179   0.03272095    0.0341552            2 
  277000    1.1432298   -7.0362566    108.01528   0.03249557  0.034131702            1 
  278000    1.1516631   -6.9890718    109.32738  0.032771996  0.034108548            4 
  279000    1.1564381   -7.0063527    109.15918  0.032604294  0.034085964            1 
  280000    1.1215094   -7.0173746    109.51926  0.032595019  0.034062846            1 
  281000    1.1493149   -7.0231667    109.83224  0.032571839   0.03403958            2 
  282000    1.1556014   -6.9987234     109.9396  0.032488061  0.034015967            2 
  283000    1.1343357   -6.9722302    110.52989  0.032547082  0.033992544            2 
  284000    1.1690151   -6.9689115    111.27457  0.032650989   0.03396941            2 
  285000     1.165125   -7.0062404    111.38929  0.032569966  0.033946977            3 
  286000    1.1347119   -6.9760043    111.80645  0.032577636   0.03392431            2 
  287000    1.1344334    -7.019372    111.77697  0.032455567  0.033900131            2 
  288000    1.1138876   -7.0361003    111.99148  0.032404941  0.033875734            2 
  289000    1.1293603   -7.0067283    112.19039   0.03235017  0.033850704            2 
  290000      1.16126   -7.0106232    112.53035  0.032336306  0.033825053            2 
  291000    1.1173049   -7.0204356     112.8213  0.032308505  0.033799173            3 
  292000    1.1441833   -7.0170992    113.05845   0.03226554  0.033773003            1 
  293000    1.1398594   -6.9774785    114.43917  0.032548115  0.033747829            1 
  294000    1.1651204   -7.0055707    114.09244  0.032339126  0.033724411            1 
  295000    1.1459039   -6.9758407    114.94794  0.032471171  0.033701524            2 
  296000    1.1235078   -7.0359463    114.61084  0.032266566  0.033678808            1 
  297000    1.1463555   -7.0090293    115.02762  0.032274864  0.033655264            2 
  298000    1.1181504   -7.0360187    115.56397  0.032316546  0.033631886            1 
  299000    1.1389543   -7.0293774    115.70799  0.032248604  0.033608875            1 
  300000    1.1232697   -7.0428962    116.05314  0.032236982  0.033585572            2 
  301000     1.155074   -7.0572226    116.12851   0.03215075  0.033561444            1 
  302000    1.1182937   -7.0431757    116.60999   0.03217715  0.033537264            1 
  303000    1.1439535   -7.0581759    116.79293  0.032121267  0.033513323            3 
  304000    1.1197998   -7.0319845    117.56637  0.032227625  0.033489308            1 
  305000    1.1138212   -7.0202066    117.81042  0.032188641  0.033466613            2 
  306000    1.1537472   -7.0072219    118.59487  0.032297077  0.033444908            1 
  307000    1.1448307   -7.0107552    118.60588  0.032194864  0.033423195            2 
  308000     1.162567   -7.0351039    118.76053  0.032132177  0.033401469            5 
  309000    1.1209207    -7.028359     119.6427  0.032266101  0.033380088            2 
  310000    1.1218005    -7.046621     119.1917  0.032040779  0.033358769            2 
  311000    1.1054019   -7.0031316    119.77653  0.032094461  0.033335604            3 
  312000    1.1271491   -7.0424596    120.23533  0.032114138  0.033313871            1 
  313000    1.1377698   -7.0242031    120.22109  0.032007746  0.033292409            1 
  314000    1.1315174   -7.0719353    121.06119  0.032128767  0.033271228            2 
  315000     1.148208   -7.0591444    121.51797   0.03214761  0.033251185            1 
  316000    1.1214096   -7.0301637    122.00285  0.032173748  0.033231486            1 
  317000     1.146448   -7.0199891    122.97109  0.032326784  0.033213108            2 
  318000    1.1115832   -7.0197435    122.98573  0.032228964   0.03319504            1 
  319000    1.1243726   -7.0399354    122.76543  0.032070384  0.033176586            2 
  320000    1.1201219   -7.0234154    123.68137  0.032208691  0.033156838            1 
  321000    1.1143108   -7.0550993    123.38715  0.032031969  0.033137111            2 
  322000    1.1236784   -7.0591624    124.04478  0.032102687  0.033118646            1 
  323000    1.0928937   -7.0341548    124.59116  0.032144263  0.033099964            1 
  324000    1.1310585   -7.0351493    124.92532  0.032130999  0.033081661            1 
  325000    1.1438614   -7.0830134    125.06489  0.032067921  0.033063888            2 
  326000    1.0908357   -7.0387366    125.80274  0.032158164  0.033046198            4 
  327000    1.1272987   -7.0554196    125.82259   0.03206488  0.033028696            2 
  328000    1.1232459   -7.0533625    126.65712  0.032179147  0.033012326            1 
  329000    1.1104589     -7.08337    126.81797   0.03212208  0.032995806            3 
  330000    1.1029185   -7.0066797    127.41544  0.032175616  0.032979626            2 
  331000    1.1510134   -7.0667041    127.51657  0.032103871   0.03296411            2 
  332000    1.1022375   -7.0554061    128.39537  0.032227754  0.032947679            1 
  333000    1.1174552   -7.0664978    128.01848  0.032036656  0.032931056            2 
  334000     1.122256    -7.075631    128.26626  0.032002559  0.032913772            2 
  335000    1.1231655   -7.0470661    128.87758    0.0320591  0.032896397            4 
  336000    1.1282571   -7.0708339    128.87373   0.03196273  0.032878659            3 
  337000    1.1251677   -7.0691827    129.62629   0.03205398  0.032861371            3 
  338000    1.1537566   -7.0706854      129.644  0.031963511  0.032843161            2 
  339000    1.1167903   -7.0482027      130.037  0.031965832  0.032825748            2 
  340000    1.1186897   -7.0673338    130.14832  0.031899099  0.032808166            2 
  341000     1.127667   -7.0868998    130.34584  0.031853823  0.032790861            1 
  342000    1.1367155   -7.0341556    131.04419  0.031930845  0.032773781            4 
  343000    1.1100616   -7.0789303    130.87035  0.031795517  0.032755837            2 
  344000     1.121445   -7.0819158    131.80732  0.031930069  0.032738039            1 
  345000    1.0982802   -7.0449732    131.95821  0.031873963  0.032720101            6 
  346000    1.1235344   -7.0518511     132.1878  0.031837139  0.032702607            4 
  347000    1.1250055   -7.0795665    132.21561  0.031752067  0.032684618            3 
  348000    1.1486632   -7.1024378     132.8234  0.031806369  0.032666213            1 
  349000    1.1177335   -7.0474516      133.148  0.031792741  0.032647869            3 
  350000     1.118572   -7.0658692    133.46523  0.031777437  0.032630407            1 
  351000    1.1067897   -7.1004392    133.38201  0.031667144  0.032612063            1 
  352000    1.1191544   -7.0598222    134.39108  0.031816071  0.032594739            2 
  353000    1.1072049   -7.1020481    134.10448  0.031658282  0.032577002            2 
  354000    1.1119453   -7.0602106    134.69086  0.031706888  0.032558653            1 
  355000    1.1089306   -7.0268808    134.92773  0.031673177  0.032540221            2 
  356000    1.1025622   -7.0413521    135.30497  0.031672512  0.032521401            1 
  357000    1.1284526   -7.1034813    135.12187  0.031541054  0.032503233            2 
  358000    1.1190297   -7.0673633    135.64363  0.031574401   0.03248466            1 
  359000    1.0993841   -7.0895202    135.74819  0.031510721  0.032465688            2 
  360000    1.1286253    -7.117862    135.98033  0.031476929  0.032446212            2 
  361000    1.0919265   -7.0767007    136.89709  0.031601359  0.032427644            2 
  362000    1.1340553   -7.0660132    136.68937  0.031466245  0.032409673            2 
  363000    1.1286014   -7.0708841    137.38759  0.031539851  0.032390961            1 
  364000    1.0881629   -7.0632841    137.60777   0.03150361  0.032372577            4 
  365000    1.1155925   -7.0949967    137.82232  0.031466283   0.03235449            2 
  366000    1.1000645   -7.0799542    138.67222   0.03157382  0.032336201            4 
  367000    1.1126201   -7.1088021    138.63787  0.031479989  0.032317523            2 
  368000     1.105024   -7.0801745    139.00105  0.031476687  0.032298953            4 
  369000    1.0995057    -7.096179    138.82172  0.031350886  0.032280585            3 
  370000    1.0995072   -7.0560199    140.03274  0.031538905  0.032262254            1 
  371000    1.1149623   -7.0539613     139.9218  0.031428976  0.032244278            2 
  372000    1.0959282   -7.0496057    140.34051  0.031438286  0.032225356            1 
  373000    1.1048268    -7.113137    140.34461  0.031354918   0.03220667            2 
  374000     1.094553   -7.1110704    140.52537  0.031311357  0.032187276            1 
  375000    1.1147512   -7.0829555    140.54947  0.031233217  0.032167756            2 
  376000    1.1360551   -7.0739238    140.77252  0.031199582  0.032148664            1 
  377000    1.0703019   -7.0577943    141.59269  0.031298119  0.032129345            3 
  378000    1.1270734   -7.0987326    141.63347  0.031224309  0.032109349            2 
  379000    1.0885296   -7.1232289    141.72039  0.031161036   0.03208954            9 
  380000    1.0846437   -7.1211307    142.22729  0.031190195  0.032069573            1 
  381000    1.1086416   -7.0994623    142.53977  0.031176677  0.032049377            3 
  382000    1.1430137   -7.0488987    142.99302  0.031193939  0.032030212            2 
  383000     1.127852   -7.1233435    143.03746  0.031122162  0.032010603            2 
  384000    1.1056778   -7.0801669     143.9216  0.031232987  0.031991363            3 
  385000    1.1096977   -7.0792419     143.3696   0.03103238  0.031971936            2 
  386000    1.0956076    -7.152606    143.89885  0.031066246  0.031951703            2 
  387000     1.111512   -7.1173659    143.90825  0.030987996  0.031932027            2 
  388000     1.094748    -7.056895    145.15025  0.031174882  0.031912572            2 
  389000    1.1002266   -7.1096757    145.35513  0.031138632  0.031894066            2 
  390000    1.1128679   -7.1208684    145.11744     0.031008  0.031874906            2 
  391000    1.0864657   -7.1095029    145.62001  0.031035808  0.031855611            3 
  392000    1.1084198   -7.0944921    145.89833  0.031015802  0.031836572            1 
  393000     1.092596   -7.1043711    146.31323  0.031024858  0.031817505            2 
  394000    1.0967676   -7.0942191    146.45266  0.030975605  0.031797453            2 
  395000    1.1099823   -7.0970972    146.68681  0.030946585  0.031777691            2 
  396000    1.1033324   -7.1356824      146.859  0.030904672  0.031758536            4 
  397000    1.0966675   -7.1325602    146.79188  0.030812738  0.031738193            2 
  398000    1.0874053   -7.0914647    147.36024  0.030854321  0.031718854            1 
  399000    1.0931953   -7.0989052    147.77207  0.030863005  0.031698776            2 
  400000    1.0826864   -7.0809059    148.42959  0.030922831  0.031677961            2 
  401000    1.0758782   -7.1373812    148.15154  0.030787934  0.031657817            2 
  402000    1.0723734   -7.1016948    148.68008  0.030820913  0.031637421            3 
  403000    1.1088701   -7.0742364    148.70943  0.030750503  0.031618017            2 
  404000    1.0708489   -7.0822917    149.57783  0.030853513  0.031598807            4 
  405000    1.1083114   -7.1217667    150.24649  0.030914915  0.031580348            2 
  406000    1.1099608   -7.0877548    150.49069  0.030888894  0.031561526            2 
  407000    1.0770367   -7.1450846    150.35903  0.030786043  0.031542315            4 
  408000    1.1000862   -7.1150144    151.09915  0.030861755  0.031523853            1 
  409000    1.0827686   -7.1159071    151.17643  0.030802044  0.031505556            1 
  410000    1.0884699   -7.1323457    150.54163  0.030597891  0.031486834            4 
  411000    1.0899544   -7.1341704    151.74791  0.030768027   0.03146789            2 
  412000    1.0891485   -7.1213494    151.93333  0.030730852  0.031448865            1 
  413000    1.0977825   -7.1046464    152.08224   0.03068649  0.031429587            1 
  414000     1.094827   -7.1414867    152.07033  0.030609969  0.031410539            2 
  415000    1.0867552     -7.11992    152.88837  0.030700476  0.031391238            2 
  416000    1.1002457   -7.1734841    152.80184  0.030609343  0.031372904            1 
  417000    1.0885979      -7.0913    153.85788  0.030746979  0.031355038            2 
  418000    1.0800347   -7.1216634    154.21872  0.030745358  0.031338475            1 
  419000    1.1041949   -7.1320268    154.55989  0.030739835  0.031320991            1 
  420000    1.0848011   -7.1554703    154.78433  0.030711177  0.031304284            1 
  421000    1.0805106   -7.1116407     155.4781  0.030775553   0.03128825            2 
  422000    1.0810516   -7.0921954    155.02311  0.030612779  0.031271429            4 
  423000    1.0603086   -7.1352795    155.49966  0.030634291  0.031254184            3 
  424000    1.0820102   -7.1283464    155.91461  0.030643595  0.031236824            2 
  425000    1.0781795   -7.1431683    155.74674  0.030538576  0.031219355            2 
  426000    1.0638094   -7.1405313    155.98084  0.030512683  0.031201713            1 
  427000    1.0812625   -7.1514129     156.8086  0.030602771   0.03118485            3 
  428000    1.0827339   -7.1072198    157.54747   0.03067513   0.03116859            3 
  429000    1.0772588   -7.1190204    157.40755  0.030576447  0.031151895            1 
  430000    1.0728965   -7.1223778     157.8733    0.0305956  0.031135419            2 
  431000    1.1002444   -7.1810859    157.97485  0.030544248   0.03111882            2 
  432000    1.0665415   -7.1457361    158.14017  0.030505435  0.031101924            6 
  433000    1.0881697   -7.1541689    157.93607  0.030395703  0.031084206            1 
  434000    1.1022127   -7.1525416     158.9626  0.030522772  0.031066437            2 
  435000    1.0724322   -7.1574584    158.86017  0.030432982  0.031049098            2 
  436000    1.0840258   -7.1058149    159.11996  0.030412837  0.031031628            2 
  437000    1.0921962   -7.1756609    159.21605  0.030361565  0.031013476            4 
  438000    1.0869638   -7.1096422     159.8932   0.03042108  0.030995788            2 
  439000    1.0654085   -7.1635115    160.00412   0.03037284  0.030978174            2 
  440000    1.0584663   -7.1722869    160.35698  0.030370641  0.030960238            1 
  441000    1.0765649   -7.1701706     160.6686  0.030360658   0.03094235            2 
  442000    1.0697124   -7.1656263    160.33078  0.030228276  0.030924284            2 
  443000    1.0728241   -7.1282534    160.88698   0.03026467  0.030906456            1 
  444000    1.0784173   -7.1491985    161.58815  0.030328106  0.030889182            2 
  445000    1.0538797   -7.1941243    161.31064  0.030207986  0.030871275            2 
  446000    1.0664721   -7.1635063    162.00285  0.030269591  0.030853304            1 
  447000     1.073674   -7.1507373    162.00769  0.030202777  0.030835686            2 
  448000    1.0619378   -7.1705649    162.39776  0.030207916  0.030817579            2 
  449000    1.0785137   -7.1445196    163.11961  0.030274611  0.030799879            1 
  450000    1.0745933   -7.1596181    163.40512  0.030260207  0.030782599            2 
  451000    1.0492888   -7.1260731    163.46252  0.030203717  0.030765001            1 
  452000    1.0893589   -7.1992963    162.78511  0.030012003  0.030747296            4 
  453000    1.0588634   -7.1521328    163.99773  0.030168825  0.030728539            5 
  454000    1.0581125   -7.1940875    163.32291  0.029978507  0.030710225            1 
  455000     1.062342   -7.1657719     163.8085  0.030001556  0.030690741            2 
  456000     1.095708   -7.1580713     164.0236  0.029975073  0.030671787            1 
  457000    1.0935334   -7.1559144    164.58685   0.03001219  0.030653074            2 
  458000    1.0669446   -7.1492994    164.78696  0.029983071   0.03063403            1 
  459000    1.0617517   -7.1352825    164.82786  0.029925174  0.030614931            1 
  460000    1.0807726   -7.1563095    165.08874   0.02990738  0.030596755            2 
  461000    1.0643251    -7.170478     165.2349  0.029868926  0.030577838            1 
  462000    1.0669279   -7.1780492     165.6636  0.029881601  0.030558996            2 
  463000    1.0776992   -7.1646692    165.62248  0.029809662  0.030539738            6 
  464000    1.0706672   -7.1528315    166.75468  0.029948758  0.030520705            1 
  465000    1.0618074   -7.1269481    167.03022   0.02993373  0.030501793            1 
  466000     1.071842   -7.1665552    166.93127  0.029851801  0.030483392            1 
  467000    1.0567655   -7.1442968    167.31848  0.029856973  0.030464714            1 
  468000    1.0742394   -7.2045108    167.18789  0.029769924   0.03044553            1 
  469000    1.0731231   -7.1824727    167.10172  0.029691136  0.030425744            1 
  470000    1.0675045   -7.1851165    167.45814   0.02969116  0.030405951            1 
  471000    1.0638284   -7.1378119    167.88427  0.029703515  0.030386781            1 
  472000    1.0766391   -7.1680971    168.81793  0.029805425  0.030368493            2 
  473000    1.0588966   -7.2059157    168.49055  0.029684734  0.030349719            2 
  474000    1.0585206    -7.212556    169.19666  0.029746248  0.030331081            1 
  475000    1.0428286   -7.2104894    169.06313  0.029660197  0.030313089            1 
  476000    1.0597549   -7.1879256    169.38227   0.02965376  0.030295543            3 
  477000    1.0804934    -7.167901    169.93233  0.029687688  0.030277477            1 
  478000    1.0499518   -7.1582586    171.22814  0.029851488  0.030260209            1 
  479000    1.0573732   -7.1849772    171.13168  0.029772387  0.030243173            2 
  480000    1.0390614   -7.1919887    171.17078  0.029717149  0.030225445            1 
  481000    1.0739237   -7.1656091    171.25559  0.029670061  0.030207833            1 
  482000    1.0300676   -7.1814402    171.41809  0.029636599  0.030189945            3 
  483000    1.0464726   -7.1792979    171.86294  0.029651991  0.030172536            3 
  484000    1.0591232   -7.1198829    172.95381  0.029778549  0.030156209            1 
  485000    1.0606759   -7.1414334    173.47796  0.029807209  0.030139945            1 
  486000    1.0678328   -7.1800625    173.14775  0.029689258  0.030124152            2 
  487000    1.0345111   -7.2024516    173.34252  0.029661623  0.030108202            3 
  488000    1.0529333   -7.1714055    173.95454  0.029705352  0.030092247            2 
  489000    1.0644497   -7.1683729    173.88917  0.029633465  0.030075626            1 
  490000    1.0373935   -7.1965623    173.70081  0.029540954  0.030058898            3 
  491000    1.0553056   -7.1719696    174.39074  0.029597885  0.030041875            2 
  492000    1.0830273   -7.1978306    174.45648  0.029548863  0.030025004            2 
  493000    1.0759484   -7.1601823    175.08927  0.029595887  0.030008187            2 
  494000    1.0456777   -7.1784837     174.8726  0.029499427  0.029991239            1 
  495000    1.0591326   -7.2383251    175.28501   0.02950926   0.02997448            1 
  496000    1.0638782   -7.1796602    176.09072  0.029585134  0.029958117            2 
  497000    1.0511255   -7.2320667    175.55072  0.029435063  0.029941705            1 
  498000    1.0465396   -7.1700764    176.61411    0.0295539   0.02992507            1 
  499000    1.0689184   -7.1850537     176.1272  0.029413359  0.029908757            2 
  500000    1.0412508   -7.1970581    177.05324  0.029508873   0.02989227            2 
  501000    1.0536242   -7.2183814    176.69821   0.02939092  0.029875237            1 
  502000    1.0664477   -7.1883664    177.27257  0.029427718  0.029858221            2 
  503000    1.0554907   -7.1955735    177.18815  0.029355228  0.029841275            1 
  504000    1.0613505   -7.2082679     178.0107  0.029432986  0.029824482            1 
  505000     1.047217   -7.2078532    178.71831  0.029491471  0.029808029            3 
  506000      1.06785   -7.1929043    178.65251   0.02942235  0.029792197            2 
  507000    1.0659988   -7.2331257    178.76076  0.029382111  0.029776376            2 
  508000    1.0683149   -7.1947209      179.058  0.029373031  0.029760449            1 
  509000    1.0561628   -7.2212945    179.21523  0.029341066    0.0297444            3 
  510000    1.0505617   -7.2340327    179.74487  0.029370077  0.029728528            1 
  511000    1.0582576   -7.2288137    180.08912  0.029368742   0.02971249            1 
  512000    1.0531377   -7.2006912    180.65283   0.02940313   0.02969667            2 
  513000    1.0290758   -7.2134212    180.21882  0.029275311   0.02968053            2 
  514000    1.0569296   -7.2049538    180.87562  0.029324841  0.029664502            1 
  515000    1.0353216   -7.2175785    180.44189  0.029197717   0.02964828            3 
  516000    1.0623102    -7.257596    180.85304  0.029207532  0.029631822            3 
  517000    1.0276837   -7.1896029    181.93962   0.02932618  0.029615641            3 
  518000    1.0351088   -7.1847685    182.76278  0.029401992  0.029600061            6 
  519000    1.0627076   -7.2206386    181.83331  0.029196099  0.029584465            5 
  520000    1.0515082   -7.2467189    181.96073  0.029160374  0.029568296            2 
  521000    1.0232178   -7.2157529    182.71514  0.029225071  0.029552436            2 
  522000    1.0531172   -7.2678361    182.95493  0.029207364  0.029536868            1 
  523000    1.0470689   -7.2625501    182.57671  0.029091253  0.029520938            3 
  524000    1.0478756    -7.206759    183.23168  0.029139899  0.029504542            2 
  525000    1.0460857   -7.2130589    183.08719  0.029061459  0.029488081            1 
  526000    1.0526752   -7.2272999    182.92093  0.028979869  0.029471496            2 
  527000    1.0357789   -7.2252866    183.90816  0.029080987  0.029454468            2 
  528000    1.0157669   -7.2155466     184.0119  0.029042283  0.029437346            2 
  529000    1.0628938    -7.195601    183.83301  0.028959202  0.029420253            1 
  530000    1.0332158   -7.2271862    183.49193  0.028850932  0.029402831            2 
  531000    1.0249326   -7.2381384    184.97006  0.029028572   0.02938574            2 
  532000    1.0592628   -7.2473251    185.01089  0.028980402  0.029368928            1 
  533000    1.0536672   -7.2224663    185.16608  0.028950294  0.029352533            1 
  534000     1.025854   -7.2119709     185.9304  0.029015356  0.029336334            3 
  535000    1.0188272   -7.2243096    185.63685  0.028915398  0.029319436            3 
  536000    1.0243434   -7.1926537    185.90568  0.028903247  0.029302858            2 
  537000    1.0427051   -7.2576145    185.76967  0.028828316  0.029286176            3 
  538000     1.026916   -7.2505527    186.14685  0.028833156  0.029269027            2 
  539000     1.040319   -7.2820162    185.92067  0.028744693  0.029252055            3 
  540000    1.0428688   -7.2434496    187.41412  0.028921932  0.029235709            2 
  541000    1.0400945   -7.2261411    187.34404  0.028857678  0.029219386            3 
  542000     1.031639   -7.2555451    187.05894    0.0287606   0.02920247            3 
  543000     1.025504   -7.2487152     187.5669  0.028785589  0.029185794            4 
  544000    1.0370382   -7.2513506    187.92858  0.028788078  0.029169008            2 
  545000    1.0558869   -7.2368386    187.43817   0.02866027  0.029152246            3 
  546000    1.0129751   -7.2528238    187.84205  0.028669422  0.029135556            2 
  547000    1.0447625   -7.2266779    188.27689  0.028683255  0.029119077            1 
  548000    1.0164079   -7.2297605    188.64284  0.028686563  0.029102665            2 
  549000    1.0293948   -7.2361099    188.90606  0.028674266  0.029085611            1 
  550000    1.0541228   -7.1919286     189.6547  0.028735561  0.029068812            2 
  551000    1.0520256   -7.2351349    189.48376  0.028657556  0.029052788            2 
  552000    1.0200934   -7.2499291    190.38615   0.02874187  0.029036661            3 
  553000    1.0366168   -7.2487908    190.07755  0.028643392  0.029020533            4 
  554000    1.0286309   -7.2607565    190.82053  0.028703449  0.029004477            2 
  555000     1.072074   -7.2401285    191.25809  0.028717432  0.028988784            2 
  556000    1.0275896   -7.2514936    191.87038  0.028757551  0.028973805            1 
  557000    1.0349828   -7.2274713    192.16579  0.028750117  0.028958852            3 
  558000    1.0437627    -7.320535      191.656  0.028622461   0.02894344            2 
  559000    1.0448861   -7.2471323    192.26585  0.028662172  0.028928033            1 
  560000    1.0505644   -7.2550311    192.61588  0.028663077  0.028912187            2 
  561000    1.0336267   -7.2794084    192.81143  0.028641033   0.02889671            2 
  562000    1.0160615   -7.2524467     193.0644   0.02862758  0.028881453            2 
  563000    1.0323078   -7.2511302    193.18831  0.028595073   0.02886611            2 
  564000    1.0287737   -7.2477844    193.68233  0.028617365  0.028850517            2 
  565000    1.0332386   -7.2644867    193.82777  0.028588167  0.028834852            2 
  566000    1.0207077   -7.2626449    193.49602  0.028488814  0.028819499            2 
  567000    1.0557561   -7.2657481    193.92703  0.028501915  0.028803789            2 
  568000    1.0447361   -7.2855202    194.35504   0.02851453  0.028787839            1 
  569000    1.0334428   -7.2164453    193.96557  0.028407377  0.028772227            2 
  570000     1.024502   -7.2570882    194.51109  0.028437293  0.028756351            1 
  571000    1.0203962   -7.2827304    194.43159  0.028375889  0.028740202            2 
  572000    1.0217774   -7.2895631    194.97855  0.028405966  0.028723905            3 
  573000    1.0253361   -7.2803659     195.2841  0.028400828  0.028707909            4 
  574000    1.0155934   -7.2259908    196.55823  0.028536328  0.028692041            2 
  575000    1.0263957   -7.2785801    196.14323  0.028426555  0.028676131            1 
  576000    1.0385313   -7.2628827     195.5492  0.028291261   0.02866041            1 
  577000    1.0168316   -7.2727245    195.95789  0.028301255  0.028644614            5 
  578000   0.99702259   -7.2373349    197.34924  0.028452889  0.028628737            2 
  579000    1.0039386   -7.2858169    196.58238  0.028293377  0.028612696            2 
  580000    1.0063391    -7.277057     196.5396  0.028238448  0.028595933            3 
  581000    1.0088098   -7.2936147    196.95751  0.028249787  0.028579343            1 
  582000    1.0371285   -7.2418804    198.10185  0.028365099  0.028563464            3 
  583000    1.0199959   -7.2377466    197.76817  0.028268749  0.028547464            2 
  584000    1.0187093   -7.2917652    197.40946  0.028169157  0.028531592            1 
  585000    1.0201933   -7.2740414    198.51597  0.028278628   0.02851582            1 
  586000    1.0042405   -7.2842362    198.20411  0.028186022  0.028499807            3 
  587000    1.0055295   -7.2829389     198.3529  0.028159128  0.028483856            3 
  588000    1.0310901   -7.2835964    198.64791  0.028153048  0.028467371            2 
  589000    1.0066276   -7.2586202    198.94724    0.0281476  0.028450703            1 
  590000    1.0026576   -7.2943783    198.89088  0.028091932  0.028433929            3 
  591000    1.0342995   -7.3121003    198.92387  0.028049051  0.028417363            1 
  592000    1.0331263    -7.267261     199.4625  0.028077492  0.028400956            1 
  593000    1.0345223   -7.2928349    199.66875  0.028059127  0.028384305            2 
  594000    1.0323107   -7.2508462    199.52199    0.0279913   0.02836765            3 
  595000   0.98575434   -7.2955805     199.9697   0.02800696  0.028351046            1 
  596000    1.0246994   -7.2894899    200.69601  0.028061522  0.028334453            1 
  597000    1.0177527   -7.2565361    201.10869  0.028072123  0.028318415            2 
  598000    1.0206339   -7.2910656    201.05462  0.028017646  0.028302622            4 
  599000    1.0148756     -7.26629    202.17988  0.028127418  0.028287021            2 
  600000    1.0160509    -7.288171    201.42197  0.027975273  0.028270999            3 
  601000    1.0049646   -7.3176321    201.34222  0.027917668  0.028254815            2 
  602000    1.0116817   -7.2968506    202.01562   0.02796451  0.028238775            5 
  603000    1.0150393   -7.3093602    202.06539  0.027925013  0.028222853            2 
  604000    1.0154682   -7.3220884    202.92407  0.027997251  0.028207158            2 
  605000    1.0125312   -7.2858227    203.50574  0.028031093  0.028191738            3 
  606000    1.0060559   -7.3201883    203.00341   0.02791576  0.028176344            1 
  607000   0.99979264   -7.2711682    204.33824  0.028053025  0.028161186            1 
  608000    1.0053511    -7.284698    204.30642  0.028002524  0.028146202            3 
  609000   0.98355396   -7.3113214    204.01743  0.027916999  0.028131191            3 
  610000    1.0146797   -7.3114655    204.72477  0.027967865  0.028116343            2 
  611000   0.99348669   -7.2911682    205.15088  0.027980208   0.02810145            3 
  612000    1.0005256   -7.2754941    205.03549  0.027918776  0.028086592            2 
  613000   0.99350737   -7.3180719    205.82599  0.027980695   0.02807207            2 
  614000   0.99490956     -7.26952    206.00629  0.027959594  0.028057818            1 
  615000    1.0292602   -7.2810497    205.77886  0.027883315  0.028043278            1 
  616000    1.0218455   -7.2835106    206.60658  0.027950024  0.028028861            4 
  617000   0.98191726   -7.2886664    206.81127  0.027932371  0.028014359            1 
  618000    1.0169824   -7.2900421     206.9733  0.027909021  0.027999992            2 
  619000    1.0067268   -7.2856593    207.95247  0.027995755  0.027985848            2 
  620000    1.0182222   -7.2984744    207.63789  0.027908319  0.027972103            1 
  621000    1.0167492   -7.3061846    207.91271  0.027900256  0.027958473            3 
  622000    1.0119526   -7.3197139    207.96289  0.027862124  0.027944744            3 
  623000    1.0015409   -7.2820441    208.41631  0.027878052  0.027931343            2 
  624000    1.0015693   -7.2933691    208.97841  0.027908442  0.027917888            2 
  625000    1.0104502   -7.3263087    208.70233  0.027826978  0.027903926            2 
  626000   0.98093526   -7.3094097    209.06331  0.027830578  0.027890021            2 
  627000    1.0196231   -7.3011939    209.05587  0.027785204  0.027875958            2 
  628000    1.0148734   -7.3356394    209.40206  0.027786898  0.027861999            2 
  629000    1.0207554   -7.3474774    209.79484  0.027794759  0.027847886            2 
  630000    1.0285184   -7.3013883    209.51513  0.027713642  0.027833797            2 
  631000    1.0073996   -7.3222644    210.09891  0.027746818  0.027819485            3 
  632000    1.0297673   -7.2992986    210.18063   0.02771369   0.02780501            2 
  633000   0.99499347   -7.3546498    209.78747   0.02761815  0.027790209            2 
  634000   0.99632651   -7.3426771    210.85642  0.027715093  0.027775285            5 
  635000   0.99344686   -7.3260028    210.15294  0.027579126  0.027760732            1 
  636000   0.99496804   -7.3535356    210.96124  0.027641672   0.02774615            4 
  637000   0.99581084   -7.2686863    211.77355  0.027704546  0.027731835            2 
  638000   0.97913447   -7.3475118    210.98375  0.027557961  0.027717333            1 
  639000    1.0008636   -7.3146492    211.84793  0.027627534  0.027703134            1 
  640000   0.99033405   -7.3199848    212.64763  0.027688493   0.02768935            3 
  641000   0.99425238   -7.3049301    212.93544  0.027682715  0.027675378            3 
  642000   0.99252325   -7.3304222    211.98035  0.027515622  0.027661671            1 
  643000    1.0075105   -7.3343119    212.54396  0.027545874  0.027647646            1 
  644000   0.97684197   -7.3175344    213.37679  0.027610869   0.02763348            2 
  645000    1.0142325   -7.2806634     213.7241  0.027612933  0.027619345            2 
  646000      1.00588   -7.3144709    212.92401  0.027466977  0.027605215            3 
  647000    1.0040921     -7.33013    213.44696   0.02749188  0.027590723            3 
  648000    1.0046841   -7.3504374    213.84407  0.027500523  0.027576262            4 
  649000   0.99224673   -7.3107532    213.34619   0.02739422  0.027561687            1 
  650000   0.99670578   -7.2988833    213.39235  0.027357994  0.027547039            3 
  651000   0.99537334   -7.3620832    212.74376  0.027232944  0.027532249            1 
  652000   0.98026425   -7.3284038    213.97402  0.027348418  0.027517297            4 
  653000   0.97347441   -7.3254535    214.51376  0.027375416   0.02750237            2 
  654000   0.97727278   -7.3185642    214.99316  0.027394643  0.027487822            1 
  655000   0.98884917   -7.2978608    214.88068  0.027338509  0.027473025            6 
  656000   0.99232978   -7.3463781    214.75431  0.027280781  0.027458085            3 
  657000    1.0088261   -7.3465722    215.46016  0.027328787  0.027443367            2 
  658000   0.97562434   -7.3111503    215.11895  0.027244041  0.027429196            2 
  659000    1.0057405   -7.3288536     215.5036   0.02725134  0.027414878            3 
  660000   0.97341314   -7.3355212    215.96827  0.027268721   0.02740036            3 
  661000    1.0008561   -7.3267409    215.84642  0.027212106  0.027385976            2 
  662000    1.0136269   -7.3648018    216.37599  0.027237662  0.027371432            1 
  663000   0.99129532   -7.3731513    216.64152  0.027229955  0.027356545            2 
  664000    1.0103013   -7.3652007    216.35334  0.027152779  0.027341454            3 
  665000   0.99759616   -7.3632212    216.90192  0.027180692  0.027326195            2 
  666000   0.99610804   -7.3514822    217.02191  0.027154893  0.027311092            6 
  667000   0.99400908   -7.3137182    217.88425  0.027221921  0.027295867            1 
  668000    1.0097149     -7.35835    216.86752  0.027054331  0.027280832            3 
  669000   0.97260601   -7.3490017    217.57223  0.027101673  0.027265819            2 
  670000   0.97422647   -7.3664127    217.50019  0.027052263  0.027250725            1 
  671000   0.98669812   -7.3429683    217.99811  0.027073784  0.027235714            2 
  672000   0.99224851   -7.3664367    218.37096  0.027079732  0.027220817            1 
  673000   0.97435901   -7.3939194    218.39024  0.027041882  0.027205905            3 
  674000   0.98421866   -7.3300879    218.87902  0.027062193  0.027191254            2 
  675000   0.98031526   -7.3352999    218.90698  0.027025553  0.027176278            2 
  676000   0.98515208   -7.3135824    218.86384  0.026980256  0.027161309            3 
  677000    0.9788205   -7.3111568    219.76553  0.027051394  0.027146419            2 
  678000    0.9609433   -7.3573151    219.10738  0.026930602  0.027131022            1 
  679000   0.99902071   -7.3255844    219.52281  0.026941926  0.027115345            2 
  680000   0.98918022   -7.3449037    219.12019  0.026852965   0.02709979            1 
  681000    1.0015639   -7.3178226    219.83159  0.026900586  0.027084058            2 
  682000   0.98320201   -7.3326203    219.28624  0.026794507  0.027068009            2 
  683000   0.96243499   -7.4019586    218.71081  0.026685067  0.027051537            5 
  684000   0.98714339   -7.3831326    219.09138  0.026692419  0.027035153            3 
  685000   0.96454015   -7.3775403    220.09696  0.026775786   0.02701921            1 
  686000   0.95447419   -7.3463888    220.40579   0.02677427  0.027003119            2 
  687000   0.96647679   -7.3701631     220.8166  0.026785128  0.026987226            2 
  688000   0.97373093   -7.3400689    220.49245  0.026706935  0.026971098            3 
  689000   0.98704918   -7.3719312    220.03911  0.026613342  0.026955211            2 
  690000   0.97892701   -7.3834974    220.82371   0.02666953  0.026939311            3 
  691000   0.97284248   -7.3973415    220.89689   0.02663976  0.026923338            2 
  692000   0.97608413   -7.3555412    221.54751  0.026679614  0.026907372            2 
  693000   0.97123528   -7.3806953    221.58415  0.026645521  0.026891691            1 
  694000    1.0026387   -7.3954913    221.42467  0.026587976  0.026875495            1 
  695000   0.97222487   -7.3927966    221.36626  0.026542717  0.026859144            1 
  696000   0.98030419   -7.3684781    221.72673  0.026547741  0.026842817            1 
  697000   0.96025885    -7.369748    221.60168  0.026494701  0.026826539            2 
  698000   0.96785478   -7.3700416    222.19269  0.026527303  0.026809819            2 
  699000   0.98293052   -7.3881616     221.8246   0.02644547  0.026793113            3 
  700000   0.97742025   -7.3923798    222.04746  0.026434221   0.02677612            5 
  701000    0.9917436   -7.3651664    222.23953  0.026419345  0.026759201            3 
  702000   0.96481458   -7.3760745    222.84237  0.026453273  0.026742699            2 
  703000   0.98307925   -7.3962801    222.61277  0.026388427  0.026726373            5 
  704000   0.98058256   -7.3820693    222.48421  0.026335726  0.026709577            4 
  705000   0.96801877   -7.3912986    222.67687  0.026321143  0.026693118            1 
  706000   0.98064171   -7.3705754    223.78419  0.026414565  0.026676728            2 
  707000   0.96744659   -7.3919299    223.98369  0.026400717  0.026660499            4 
  708000    0.9637745   -7.4245779    224.08056   0.02637483  0.026644104            5 
  709000   0.96866441   -7.3845712    224.34873   0.02636915  0.026627843            2 
  710000   0.96252326   -7.3628746    224.49399   0.02634906  0.026611819            2 
  711000   0.99313215   -7.3809482    225.41147  0.026419535  0.026595553            2 
  712000   0.94570277   -7.3918347    224.45426  0.026270396  0.026579329            1 
  713000   0.95598127   -7.4234895    224.68544   0.02626057   0.02656294            1 
  714000   0.96886887   -7.3844685    225.75734  0.026348896    0.0265467            3 
  715000   0.97688215   -7.3873332    226.04423  0.026345481  0.026530773            4 
  716000   0.95842247   -7.4144738    224.96157  0.026182678  0.026514502            2 
  717000   0.95888029   -7.4172609    225.48932  0.026207499  0.026498062            2 
  718000   0.95681105    -7.417694    225.53751  0.026176591  0.026481371            1 
  719000   0.94818643   -7.3877422    225.37742  0.026121629  0.026464761            4 
  720000   0.93058488   -7.3643856     225.8449  0.026139456  0.026448266            1 
  721000   0.96401272   -7.3862539    226.44345  0.026172382  0.026431735            5 
  722000   0.95756965   -7.3643456     226.2397  0.026112615  0.026415371            2 
  723000   0.97063052   -7.3915655    226.56653  0.026114168  0.026398899            2 
  724000   0.97988852   -7.3811927     226.7703  0.026101554  0.026382413            3 
  725000   0.95992132   -7.4185261    226.32451  0.026014312  0.026365629            2 
  726000   0.96132672    -7.386367    227.18966  0.026077785  0.026349075            4 
  727000   0.96345486   -7.3874885    228.01644  0.026136685  0.026332756            2 
  728000   0.94825135   -7.4017681    227.26439  0.026014696  0.026316512            2 
  729000   0.95353586   -7.3896768    228.26061   0.02609289  0.026300542            2 
  730000    0.9539091   -7.3951449    228.54033  0.026089079  0.026284712            1 
  731000   0.96221305   -7.3998741    228.83322  0.026086778  0.026268843            2 
  732000   0.95129689   -7.4238233    228.12181  0.025970152  0.026252809            2 
  733000   0.93753985   -7.4102749    228.93138   0.02602676   0.02623657            2 
  734000   0.97310117   -7.4338462    228.68953  0.025963843   0.02622054            1 
  735000   0.98902335    -7.415796    228.65308  0.025924386  0.026204404            2 
  736000   0.96375739   -7.4508592    228.97605   0.02592573  0.026188135            2 
  737000   0.97831784   -7.4344879    229.44079  0.025943101  0.026171769            2 
  738000   0.98133406   -7.4029345    229.22867  0.025883996  0.026155344            2 
  739000   0.96356679   -7.3745401      229.885  0.025922982  0.026139175            2 
  740000   0.96140994    -7.431158    229.60279   0.02585617  0.026122887            2 
  741000    0.9605994   -7.4337936    229.43713  0.025802646  0.026106467            1 
  742000   0.95276144   -7.4151599    230.27971  0.025862501      0.02609            2 
  743000   0.96414644   -7.4238108    230.01793  0.025798333  0.026073643            5 
  744000   0.95727906   -7.4415049    230.43264  0.025810108  0.026057187            1 
  745000   0.95825964   -7.4318816    230.93345  0.025831482  0.026040819            3 
  746000   0.95424719   -7.4369569    231.04128  0.025808901  0.026024467            2 
  747000   0.96140331   -7.4358385    230.98741  0.025768342  0.026008287            2 
  748000   0.94889628   -7.3842895     231.8509  0.025830092  0.025992108            4 
  749000   0.94720793   -7.3805982    231.73741  0.025782978  0.025976212            1 
  750000   0.96398867   -7.4408243    231.18753  0.025687503   0.02596051            4 
  751000   0.95867799   -7.4089982    231.96553  0.025739628  0.025944738            3 
  752000   0.95824317    -7.423278    232.48147  0.025762574  0.025929039            4 
  753000   0.94645838   -7.3844736    232.76507  0.025759747  0.025913451            2 
  754000   0.94920318   -7.4520805    232.48439  0.025694561  0.025897493            3 
  755000    0.9488997   -7.4866641    231.34855   0.02553516  0.025881286            3 
  756000   0.95488673   -7.4437842    232.02326  0.025575756  0.025864817            3 
  757000   0.94916019   -7.4508682    231.90608  0.025529071  0.025848398            2 
  758000   0.94282882   -7.4046164    232.57387  0.025568808  0.025831964            2 
  759000   0.96438894   -7.4160815    232.99628  0.025581497  0.025815934            1 
  760000   0.95822327   -7.4058213    233.30169  0.025581325  0.025799901            2 
  761000   0.95463594    -7.448966    233.92198  0.025615636  0.025783624            2 
  762000   0.95117754   -7.4194399    233.75638  0.025563909  0.025767784            5 
  763000    0.9589142   -7.4324697    233.50669  0.025503133  0.025752063            3 
  764000   0.94516856   -7.4573193    233.68092  0.025488757    0.0257361            2 
  765000   0.94377125   -7.4315781    234.37118  0.025530629  0.025720061            2 
  766000   0.95755212    -7.421119    234.73641  0.025537033   0.02570431            1 
  767000   0.94454047   -7.4280358    234.97869  0.025530062  0.025688782            4 
  768000   0.92761907   -7.3957158    235.58055  0.025562125  0.025673397            4 
  769000   0.96472733   -7.4124308    235.72441  0.025544475  0.025658147            1 
  770000   0.96557484   -7.4557353    235.92976  0.025533524  0.025642766            2 
  771000   0.95282644   -7.4478001    235.45671  0.025449277  0.025627248            3 
  772000   0.96150478   -7.4452722    236.09913  0.025485658  0.025611737            1 
  773000   0.95884439   -7.4761045    235.48697  0.025386694  0.025595955            2 
  774000    0.9499453   -7.4296405    236.11427  0.025421433   0.02558021            4 
  775000   0.96643711   -7.4244455    236.18423  0.025396154  0.025564569            2 
  776000    0.9494883   -7.4459205    236.56233  0.025404031  0.025549166            1 
  777000   0.97130051   -7.4490547    236.66943  0.025382822  0.025533662            2 
  778000   0.93426291   -7.4614464    237.24082  0.025411399  0.025518223            1 
  779000   0.94278989   -7.4295874    237.49817  0.025406309  0.025502925            2 
  780000    0.9320206   -7.4565724    237.08992  0.025330119  0.025487737            2 
  781000   0.92912425   -7.4551671    238.28958  0.025425691  0.025472482            2 
  782000   0.92147116   -7.4365182    238.50446  0.025416076  0.025457421            2 
  783000   0.94794012   -7.4612295    238.43405  0.025376123  0.025442343            2 
  784000   0.93497495   -7.4428567    238.18912  0.025317721  0.025426919            3 
  785000   0.95719026   -7.4522515    238.20936  0.025287618  0.025411498            1 
  786000   0.93263947   -7.4189748    238.42469  0.025278275  0.025396199            2 
  787000   0.95177989   -7.4468017    238.74865  0.025280458  0.025380906            3 
  788000   0.94139705   -7.4360557    238.95545  0.025270246  0.025365647            5 
  789000   0.95333123   -7.4170175    239.25593  0.025269954   0.02535035            3 
  790000   0.92372762   -7.4502542    239.64449  0.025278954  0.025335034            2 
  791000   0.94405116   -7.4404325    239.36501  0.025217552  0.025319632            2 
  792000   0.93863986   -7.4152138    240.73023  0.025329359  0.025304649            3 
  793000   0.94202267   -7.4609029     239.4361  0.025161423  0.025289674            3 
  794000   0.95876518   -7.4480984    240.10196  0.025199618  0.025274579            1 
  795000   0.93831456    -7.456349    240.65901  0.025226311  0.025259716            3 
  796000   0.94628589    -7.496275    239.71448  0.025095737  0.025244502            1 
  797000   0.91724532   -7.4426792    240.84066  0.025182001  0.025229369           10 
  798000   0.92709141   -7.4846366    240.79976  0.025146173  0.025214396            2 
  799000   0.93904735   -7.4661331    241.36179   0.02517332  0.025199466            2 
  800000    0.9336835   -7.4838669    241.71083  0.025178212  0.025184547            1 
  801000   0.94282797   -7.4874738    241.67598  0.025143152  0.025169562            1 
  802000   0.93510716   -7.4871414    241.93371  0.025138582  0.025154518            2 
  803000   0.93356901   -7.4681106    242.30942  0.025146266  0.025139743            1 
  804000   0.94422832   -7.4761123    242.46244   0.02513085   0.02512509            1 
  805000   0.93120745   -7.4620262    242.96493  0.025151649  0.025110668            3 
  806000    0.9255163   -7.4555225    242.89238  0.025112942   0.02509627            2 
  807000   0.93468293   -7.4856547    242.73056  0.025065114  0.025081851            2 
  808000   0.92796108   -7.4730558    242.62627  0.025023337  0.025067215            1 
[...]
 1800000   0.54776442   -8.4116415    276.45509  0.012798847   0.01160723            6 
 1801000   0.53568894   -8.4162381    276.75105  0.012805434   0.01159758            1 
 1802000   0.53357692   -8.4262263    276.49469  0.012786473  0.011587926            4 
 1803000   0.54100076   -8.4191716    277.20232  0.012812087  0.011578296            4 
 1804000   0.53575333   -8.4174423    276.71641  0.012782539  0.011568667            3 
 1805000   0.53267401   -8.4072714    277.48099  0.012810757  0.011559054            3 
 1806000   0.52617185   -8.4287732    277.01269  0.012782055  0.011549455            3 
 1807000   0.52735544   -8.4249686    277.01382  0.012775033   0.01153986            2 
 1808000   0.53210011   -8.4238698    277.38658  0.012785148  0.011530287            3 
 1809000   0.53553355   -8.4181018    276.92258  0.012756706  0.011520724            3 
 1810000   0.53711512   -8.4221323    276.97636  0.012752134  0.011511157            1 
 1811000   0.53100728   -8.4298433    276.89329   0.01274127  0.011501604            3 
 1812000   0.53454559    -8.417922    276.70784   0.01272571  0.011492076            2 
 1813000   0.53709331   -8.4030372    276.87805  0.012726515  0.011482553            4 
 1814000   0.53740275   -8.4187911    276.94588  0.012722615  0.011473044            4 
 1815000   0.50468304   -8.4077808    276.79139  0.012708512  0.011463542            2 
 1816000   0.53071563   -8.4091089    276.66795  0.012695849  0.011454033            2 
 1817000    0.5360963   -8.4175572    277.19547  0.012713056  0.011444544            2 
 1818000   0.52871427   -8.4173286    276.71574  0.012684073  0.011435062            3 
 1819000   0.51737171   -8.4292687    276.32866  0.012659367  0.011425585            2 
 1820000   0.52117762   -8.4373678    276.72226  0.012670433   0.01141612            2 
 1821000   0.53850252   -8.4378992    277.12461  0.012681888  0.011406657            3 
 1822000   0.53710879   -8.4178144    276.93981  0.012666475  0.011397209            2 
 1823000   0.52205792    -8.419787    276.39803  0.012634761  0.011387765            1 
 1824000   0.52336072   -8.4152985    276.26666  0.012621832  0.011378326            2 
 1825000   0.53162836   -8.4230438    276.41248  0.012621575  0.011368904            4 
 1826000   0.52481054   -8.4449727    276.64553  0.012625298  0.011359477            3 
 1827000   0.52940733    -8.426404    276.62571  0.012617484  0.011350049            1 
 1828000   0.52448392   -8.4201729    276.95782  0.012625721  0.011340647            2 
 1829000   0.51471393    -8.433802    276.44636  0.012595515  0.011331251            2 
 1830000   0.52752347   -8.4304711    276.69133  0.012599788  0.011321865            5 
 1831000   0.51911468    -8.425678     276.7457   0.01259538  0.011312487            3 
 1832000   0.51405356   -8.4217137    276.66277  0.012584733  0.011303115            3 
 1833000   0.52932311   -8.4233626    277.09535  0.012597534  0.011293764            1 
 1834000   0.51883678   -8.4258386    276.34402  0.012556526  0.011284422            4 
 1835000   0.51181802   -8.4466555    276.42318  0.012553278  0.011275083            3 
 1836000   0.51818357   -8.4313008    276.21351  0.012536924  0.011265748            3 
 1837000   0.51304215   -8.4517245    276.55921  0.012545782  0.011256444            2 
 1838000   0.52761636   -8.4515582    276.35586  0.012529736  0.011247138            5 
 1839000   0.52264996    -8.433729    276.12273  0.012512359  0.011237839            2 
 1840000   0.51241523   -8.4301689    276.86683  0.012539259  0.011228557            3 
 1841000   0.51449726   -8.4503517    276.65498  0.012522858  0.011219285            2 
 1842000   0.52304837   -8.4400597    276.67545  0.012516985  0.011210017            4 
 1843000   0.51688695   -8.4333124    276.25747  0.012491294  0.011200763            2 
 1844000    0.5109049   -8.4285368    276.60571  0.012500258  0.011191504            2 
 1845000   0.51586372    -8.456738    276.09982  0.012470633  0.011182248            2 
 1846000   0.50731972   -8.4211305     276.7442  0.012492967  0.011173011            3 
 1847000   0.51965282   -8.4436241    276.88683  0.012492638  0.011163785            2 
 1848000   0.51916938   -8.4562409    276.82651  0.012483158  0.011154576            2 
 1849000   0.51654062   -8.4497833    276.81158  0.012475734  0.011145371            3 
 1850000   0.51067991   -8.4509834    276.41568  0.012451157  0.011136165            4 
 1851000   0.51955255   -8.4201189    276.50169  0.012448302  0.011126973            3 
 1852000   0.51276573   -8.4597012    276.37007  0.012435658  0.011117798            6 
 1853000   0.50751189   -8.4071057    276.50436  0.012434986  0.011108622            4 
 1854000   0.50462681   -8.4407328    276.60739   0.01243291  0.011099466            3 
 1855000   0.51532957   -8.4340423    276.55631  0.012423913  0.011090317            3 
 1856000   0.51839946   -8.4402069    276.05644  0.012394776  0.011081174            3 
 1857000   0.51831181   -8.4466458    276.55008  0.012410253  0.011072035            2 
 1858000   0.51596714   -8.4484519    276.09079  0.012382974    0.0110629            6 
 1859000   0.51719903   -8.4588566    276.30227  0.012385793  0.011053785            6 
 1860000   0.50976634   -8.4423447    276.08546   0.01236942  0.011044668            5 
 1861000   0.51344504   -8.4557145    275.74981  0.012347744  0.011035556            4 
 1862000   0.50328541    -8.445111    276.04269   0.01235422  0.011026455            2 
 1863000   0.50142389   -8.4561992    276.34678  0.012361191  0.011017361            4 
 1864000   0.51339529   -8.4702695     276.7143   0.01237099  0.011008275            4 
 1865000   0.50108274    -8.458518    275.94534  0.012329998  0.010999201            3 
 1866000    0.5074082   -8.4542249    276.09195  0.012329937  0.010990138            2 
 1867000   0.51046562   -8.4436215    276.05321  0.012321604  0.010981084            6 
 1868000   0.50611692   -8.4663473    276.33132  0.012327414  0.010972053            4 
 1869000   0.50747064   -8.4829171    276.03661  0.012307678  0.010963024            3 
 1870000   0.49847925    -8.444313    276.40606  0.012317561  0.010953999            4 
 1871000   0.50376439   -8.4541619    276.18228   0.01230101  0.010944992            3 
 1872000   0.50877815   -8.4630217    275.78394  0.012276707   0.01093598            3 
 1873000   0.50134087   -8.4609613    276.06256  0.012282549  0.010926973            5 
 1874000   0.49335904   -8.4438034    276.28895  0.012286062  0.010917977            2 
 1875000     0.498305   -8.4500802    276.48947  0.012288421  0.010908996            5 
 1876000   0.51136605   -8.4499649    276.23394   0.01227052  0.010900032            3 
 1877000   0.51059373   -8.4513036    276.34328  0.012268837   0.01089107            3 
 1878000   0.50882575    -8.464736    276.13827  0.012253207  0.010882124            3 
 1879000    0.4987093   -8.4519198    276.18986  0.012248974  0.010873181            3 
 1880000   0.49274302    -8.449248    276.00765  0.012234382   0.01086425            9 
 1881000   0.49747252   -8.4547735    276.17961  0.012235496  0.010855323            6 
 1882000   0.50391857   -8.4677505    276.22146  0.012230847  0.010846403            3 
 1883000   0.50141246   -8.4524793    276.36232  0.012230586  0.010837487            6 
 1884000   0.50676165   -8.4662495    275.97075  0.012206774  0.010828589            5 
 1885000   0.50483556   -8.4618832    276.03924  0.012203326  0.010819697            3 
 1886000   0.50338622   -8.4445753    275.93939  0.012192444   0.01081081            2 
 1887000    0.4993567   -8.4795738    276.04715  0.012190741  0.010801936            4 
 1888000   0.49481689   -8.4698139    275.76701   0.01217192  0.010793068            6 
 1889000   0.50881329   -8.4498776    275.97215  0.012174526  0.010784214            6 
 1890000   0.49151741   -8.4731025    276.18713  0.012177563  0.010775371            4 
 1891000   0.49892966   -8.4677295    275.67025  0.012148345   0.01076652            6 
 1892000   0.49990926   -8.4677438    275.89413  0.012151785  0.010757687            2 
 1893000   0.49517355   -8.4578079    275.78236  0.012140446  0.010748864            5 
 1894000   0.50144705    -8.471754    276.30419  0.012156995  0.010740039            8 
 1895000   0.49173215   -8.4614891    276.08708  0.012141033  0.010731223            2 
 1896000   0.50113426   -8.4721753    276.05734  0.012133322   0.01072242            3 
 1897000   0.50124358   -8.4833779     275.8823  0.012119236  0.010713623            4 
 1898000   0.49674924   -8.4688845     275.8985  0.012113563  0.010704839            5 
 1899000   0.50026392    -8.472247    275.69513  0.012098259  0.010696052            2 
 1900000   0.48942088    -8.484198    276.01687  0.012106003  0.010687289            2 
 1901000   0.50112593   -8.4477424    275.89674  0.012094369  0.010678542            2 
 1902000   0.49817377   -8.4879548    276.00387  0.012092704    0.0106698            2 
 1903000    0.4837877   -8.4638132    276.22986  0.012096245  0.010661066            3 
 1904000   0.49391876    -8.478624    275.91696  0.012076198  0.010652333            3 
 1905000   0.49588124   -8.4687895    275.75147  0.012062619  0.010643599            3 
 1906000    0.4913421   -8.4737405    276.01281  0.012067716  0.010634886            3 
 1907000   0.48540188   -8.4754893    275.63537  0.012044895  0.010626176            2 
 1908000   0.49461368   -8.5043966    275.69705  0.012041276   0.01061747            3 
 1909000   0.49214563   -8.4853783    275.99998  0.012048192  0.010608766            2 
 1910000   0.50332843   -8.4729237    275.37619  0.012014668  0.010600082            4 
 1911000   0.49227222   -8.4889986     275.9049  0.012031436  0.010591394            2 
 1912000   0.49354642   -8.4777727    275.48446  0.012006819  0.010582716            5 
 1913000   0.48850217   -8.4860395     275.5997  0.012005563  0.010574054            2 
 1914000    0.4828478   -8.4909376    275.38642  0.011990004  0.010565401            2 
 1915000   0.48229835   -8.4954116    275.65683   0.01199551  0.010556761            3 
 1916000   0.48532796   -8.4759419    276.05698  0.012006654  0.010548125            3 
 1917000   0.48203272   -8.4925607    275.90487  0.011993778  0.010539505            5 
 1918000   0.49351664    -8.496736    275.67899  0.011977711  0.010530891            3 
 1919000   0.47821697   -8.4835292    275.69976  0.011972371  0.010522278            4 
 1920000   0.48301958   -8.4934419     275.7845  0.011969813   0.01051368            3 
 1921000   0.48736261   -8.4822805    276.00896  0.011973319  0.010505089            5 
 1922000    0.5000412   -8.4794064      276.013  0.011967265  0.010496521            4 
 1923000   0.48347758    -8.495316    275.87875  0.011955224   0.01048796            2 
 1924000   0.47723153   -8.4976144    275.65793  0.011939446  0.010479397            2 
 1925000   0.48956811   -8.4822524      275.472  0.011925195  0.010470845            3 
 1926000   0.47494657   -8.5014697    275.80412  0.011933373  0.010462298            4 
 1927000   0.48006899   -8.5084307    275.59628  0.011918193  0.010453772            4 
 1928000   0.48194532   -8.4818618     275.7787  0.011919895  0.010445244            2 
 1929000   0.47338728   -8.4873668    275.51992  0.011902537  0.010436717            2 
 1930000   0.48723554    -8.473903    275.22409  0.011883596  0.010428202            3 
 1931000   0.47783927    -8.506039    275.97649  0.011909913  0.010419694            3 
 1932000    0.4741656   -8.4945349    275.47279  0.011882022  0.010411194            6 
 1933000   0.47754271   -8.4891842    275.72953  0.011886943  0.010402708            4 
 1934000   0.47873447   -8.4980111    275.80919  0.011884229  0.010394236            2 
 1935000    0.4812234   -8.4949026    275.42201  0.011861413  0.010385765            2 
 1936000   0.47626978   -8.4863203    275.80269  0.011871672  0.010377309            4 
 1937000   0.48729511   -8.4890499    275.62613  0.011857947  0.010368863            1 
 1938000   0.47260698   -8.5092203    275.72446  0.011856057  0.010360425            3 
 1939000   0.47059527   -8.5038161    275.73598  0.011850437  0.010351995            6 
 1940000   0.48346731   -8.5002489    275.45038  0.011832061  0.010343567            2 
 1941000   0.49200432   -8.4904313     275.4654   0.01182661  0.010335154            2 
 1942000   0.47763857   -8.5031141    275.31727  0.011814164  0.010326739            3 
 1943000   0.48128643   -8.5010758    275.68755  0.011823964  0.010318337            5 
 1944000   0.48931017   -8.5072666    275.71875  0.011819219   0.01030993            4 
 1945000   0.48101182   -8.5004716      275.852  0.011818852  0.010301547            7 
 1946000   0.47048823   -8.5051651     275.4203  0.011794292  0.010293172            4 
 1947000   0.46851539   -8.5065387    275.14132  0.011776293  0.010284797            3 
 1948000   0.47383308   -8.5196262    275.85402  0.011800737  0.010276438            8 
 1949000   0.48311737   -8.4929468    275.69246  0.011787774   0.01026809            4 
 1950000   0.48229154   -8.4940796    275.00593   0.01175239  0.010259742            4 
 1951000   0.46658409   -8.5118347    275.20109  0.011754702  0.010251401            3 
 1952000   0.46730171   -8.5179964    275.26223   0.01175129  0.010243067            3 
 1953000   0.47207199   -8.4966433    275.19698  0.011742489   0.01023474            5 
 1954000   0.47857766    -8.509788    275.32918  0.011742118  0.010226432            5 
 1955000   0.47974985    -8.512905    275.68135  0.011751123  0.010218128            4 
 1956000   0.47358395   -8.5249683    274.82997  0.011708843   0.01020983            4 
 1957000    0.4708992   -8.5038844    275.21542  0.011719274  0.010201537            3 
 1958000   0.46925581    -8.529728    275.54056  0.011727126  0.010193254            5 
 1959000   0.46950048   -8.5197242    275.36734  0.011713771  0.010184981            5 
 1960000   0.47456825   -8.5133774    275.56038  0.011716003  0.010176708            2 
 1961000    0.4761232   -8.5158689    275.06039  0.011688781  0.010168452            4 
 1962000   0.46710897    -8.511611    275.24065   0.01169048  0.010160204            6 
 1963000   0.46579177    -8.502447    275.48873  0.011695056  0.010151964            4 
 1964000   0.47996734   -8.5256795    274.82455  0.011660919  0.010143726            4 
 1965000   0.46636805   -8.5144154    275.44333  0.011681227  0.010135493            4 
 1966000   0.46358376   -8.5223602    275.26202    0.0116676  0.010127269            3 
 1967000   0.47557928   -8.5272452    274.87071   0.01164509  0.010119053            5 
 1968000   0.46322147   -8.5164268    275.30513  0.011657568  0.010110847            9 
 1969000   0.47306914   -8.5198903    275.54338  0.011661731  0.010102646            3 
 1970000   0.46875465   -8.5133853    275.37072  0.011648508  0.010094453            3 
 1971000   0.47214968   -8.5258239    275.13152  0.011632484  0.010086274            4 
 1972000   0.45039556   -8.5279185    275.28274  0.011632976  0.010078093            3 
 1973000   0.46352964   -8.5348125    275.38989  0.011631605  0.010069923            4 
 1974000   0.46534216   -8.5262268    275.16625  0.011616272  0.010061762            3 
 1975000   0.46979671    -8.534842    274.89895  0.011599112  0.010053611            3 
 1976000   0.45828308   -8.5418995    275.19521  0.011605736  0.010045463            4 
 1977000   0.46197054   -8.5033658     275.2489  0.011602129  0.010037325            6 
 1978000   0.45582775   -8.5389265    275.94739   0.01162569  0.010029196            1 
 1979000   0.45907294    -8.534461    274.98953  0.011579482  0.010021074            6 
 1980000   0.46685158    -8.526818    275.15468  0.011580584  0.010012958            6 
 1981000   0.46190728   -8.5274482    274.95064  0.011566155  0.010004849            4 
 1982000   0.46231662   -8.5326553     275.4926  0.011583106 0.0099967499            4 
 1983000   0.46766488   -8.5459892    274.91387  0.011552945 0.0099886553            7 
 1984000   0.46787159   -8.5229545    275.19184  0.011558797 0.0099805748            3 
 1985000   0.45785768   -8.5357193    275.24344   0.01155514 0.0099725023            4 
 1986000   0.46175718   -8.5334396    275.08886  0.011542836 0.0099644481            6 
 1987000    0.4510384   -8.5344472    274.76088  0.011523271  0.009956391            5 
 1988000   0.45314156    -8.520728    274.60591  0.011510979  0.009948344            4 
 1989000   0.45916478   -8.5373356    275.07425  0.011524814 0.0099403023            4 
 1990000   0.45844366   -8.5405302     275.0957  0.011519921 0.0099322562            4 
 1991000   0.45637546   -8.5381055    274.96944   0.01150885 0.0099242217            3 
 1992000   0.46174924   -8.5539207    275.41148  0.011521564 0.0099162015            4 
 1993000   0.45176951   -8.5361757    274.76397  0.011488709 0.0099081909            4 
 1994000   0.45802069   -8.5490831    275.35456   0.01150763 0.0099001888            5 
 1995000   0.45451574   -8.5442824    274.96502   0.01148559 0.0098921903            3 
 1996000     0.454204   -8.5579282    274.91049  0.011477559 0.0098842001            4 
 1997000   0.46349548   -8.5341862    274.85918   0.01146967 0.0098762214            3 
 1998000   0.46443941    -8.545056    275.20684   0.01147843 0.0098682497            6 
 1999000   0.45814381   -8.5478322     274.4683    0.0114419  0.009860287            5 
 2000000   0.44741908   -8.5362749    274.72054  0.011446689 0.0098523359            3 
 2001000   0.44916725   -8.5450494    275.30405  0.011465269 0.0098443925            3 
 2002000   0.45651586   -8.5452275    275.14067  0.011452742 0.0098364539            5 
 2003000   0.45320302   -8.5495492    274.85223  0.011435024 0.0098285224            4 
 2004000   0.46242018   -8.5326415    274.08653  0.011397477 0.0098205961            3 
 2005000   0.45179556   -8.5446535     274.5769  0.011412174  0.009812682            5 
 2006000   0.44880216   -8.5464994    275.44678  0.011442621 0.0098047733            3 
 2007000    0.4682174   -8.5466179    274.86475  0.011412753 0.0097968744            4 
 2008000   0.45158912   -8.5444606    274.80724  0.011404683 0.0097889891            4 
 2009000   0.44777062   -8.5383193    274.53927  0.011387891 0.0097811056            4 
 2010000   0.44939672    -8.545091    275.23721  0.011411161  0.009773232            5 
 2011000    0.4588691   -8.5638852    275.17737  0.011403007 0.0097653628            6 
 2012000   0.45305781   -8.5536229    275.37024  0.011405328 0.0097574988            3 
Loop time of 4750.14 on 48 procs for 2000000 steps with 4000 atoms

Performance: 72755.818 tau/day, 421.041 timesteps/s
99.4% CPU use with 48 MPI tasks x no OpenMP threads

MPI task timing breakdown:
Section |  min time  |  avg time  |  max time  |%varavg| %total
---------------------------------------------------------------
Pair    | 288.26     | 315.95     | 340.69     |  59.2 |  6.65
Neigh   | 30.906     | 32.237     | 33.92      |  13.7 |  0.68
Comm    | 292.07     | 321.77     | 353.3      |  65.1 |  6.77
Output  | 4.1353     | 4.1373     | 4.1727     |   0.3 |  0.09
Modify  | 4025.6     | 4033.8     | 4042.5     |   5.7 | 84.92
Other   |            | 42.26      |            |       |  0.89

Nlocal:        83.3333 ave          89 max          78 min
Histogram: 3 5 7 4 6 9 5 3 1 5
Nghost:        2027.42 ave        2052 max        1995 min
Histogram: 2 1 5 5 5 7 6 8 5 4
Neighs:        13029.0 ave       14249 max       11850 min
Histogram: 4 3 7 4 9 5 3 6 1 6
FullNghs:      26058.5 ave       28203 max       24321 min
Histogram: 2 7 4 8 9 7 5 0 2 4

Total # of neighbors = 1250809
Ave neighs/atom = 312.70225
Neighbor list builds = 107206
Dangerous builds = 0

#clear
#
#next RN
#
#jump SELF
Total wall time: 1:19:13
