
units lj                  # Use reduced LJ style units
atom_style atomic         # Uncharged point particles
atom_modify map hash      # Needed for indexing of clusters etc
                          # Used to be able to find where atoms are in relation to each other.

# Define a lattice with which to populate the simulation cell. With units
# set to 'lj' the second argument to the lattice command is the reduced
# density rho* and the spacings are multiples of that required to acheive
# that density. Also define a simulation cell called 'box' in lattice units
# and fill it with atoms. Here we're creating a box which is ten lattice
# constants in each direction.
lattice fcc 1.0 spacing 1 1 1                 # All equal sizes - gives the right reduced density.
Lattice spacing in x,y,z = 1.5874011 1.5874011 1.5874011

region box block 0 10 0 10 0 10 units lattice # Defines a region, "box", in lattice units
create_box 1 box                              # Creates a simulation box as specified above,
Created orthogonal box = (0.0000000 0.0000000 0.0000000) to (15.874011 15.874011 15.874011)
  2 by 4 by 4 MPI processor grid
                                              # with one type of atom
create_atoms 1 box                            # Creates particles on lattice points
Created 4000 atoms
  using lattice units in orthogonal box = (0.0000000 0.0000000 0.0000000) to (15.874011 15.874011 15.874011)
  create_atoms CPU = 0.002 seconds


# Set the mass of the first (and only) atom type.
mass 1 1.0

# Lennard-Jones interactions between particles, 3.5 sigma cut-off. Apply
# long range tail corrections to energy and pressure and set all coefficients
# to unity since we work in reduced units here. Note that this doesn't shift
# the potential such that it goes to zero at the cutoff. That would require
# pair_modify('shift', 'yes').
pair_style lj/cut  3.5      # non-GPU version
pair_modify tail  yes
pair_coeff 1  1  1.0  1.0   # Intearaction between 1 and 1 set with epsilon = 1 and sigma = 1

write_data data.*
System init for write_data ...
Neighbor list info ...
  update every 1 steps, delay 10 steps, check yes
  max neighbors/atom: 2000, page size: 100000
  master list distance cutoff = 3.8
  ghost atom cutoff = 3.8
  binsize = 1.9, bins = 9 9 9
  1 neighbor lists, perpetual/occasional/extra = 1 0 0
  (1) pair lj/cut, perpetual
      attributes: half, newton on
      pair build: half/bin/atomonly/newton
      stencil: half/bin/3d
      bin: standard

#############################
#   M E L T   S Y S T E M   #
#############################

velocity all create 2.4 6583654 mom yes dist gaussian # Assign velocities
                                                    # Temperature 2.4, random number seed, zero linear momentum
						                                                        # Gaussian distribution

timestep 0.002   # simulation timestep
thermo 100       # output thermodynamic data every 100 steps

# Define a fix  in this case with index 1 applied to all
# particles in the simulation. This fix is for simulations
# in the anisotropic NPT ensemble. Note that we use the MTK
# correction.
fix 1 all npt temp 2.4 2.4 0.1 iso 5.68 5.68 0.5 mtk yes tchain 5 pchain 5 # Use NPT ensemble
                                                                         # Set temperature and pressure and damping
                                                                         # Numbers of thermostats in chain and in barostat
run 1000         # run for 10000 steps
Per MPI rank memory allocation (min/avg/max) = 3.660 | 3.660 | 3.660 Mbytes
Step Temp E_pair E_mol TotEng Press Volume 
       0          2.4   -8.3859253            0   -4.7868253   -2.2405722         4000 
     100    1.2691967   -6.5422289            0   -4.6389098    5.3378653    4090.7551 
     200    1.4787625   -6.3158233            0   -4.0982341    6.0374862    4137.2558 
     300    1.5708342   -6.0123056            0   -3.6566434    5.8269752    4273.6084 
     400    1.6935755   -5.7191311            0    -3.179403    5.9540602    4395.1747 
     500    1.7875886   -5.4095267            0   -2.7288141    6.0322401    4536.9038 
     600    1.8873111   -5.1521313            0   -2.3218724    5.7297832     4702.884 
     700    2.0258918   -4.9144312            0   -1.8763532    5.9082203    4824.8495 
     800    2.1522544   -4.7292823            0   -1.5017078    5.7781683    4963.9277 
     900     2.239714   -4.5446635            0   -1.1859323    5.7477122    5090.6319 
    1000    2.3765823   -4.4738755            0  -0.90989327    5.6796077     5154.488 
Loop time of 0.256633 on 32 procs for 1000 steps with 4000 atoms

Performance: 673334.580 tau/day, 3896.612 timesteps/s
99.4% CPU use with 32 MPI tasks x no OpenMP threads

MPI task timing breakdown:
Section |  min time  |  avg time  |  max time  |%varavg| %total
---------------------------------------------------------------
Pair    | 0.13431    | 0.13909    | 0.14388    |   0.6 | 54.20
Neigh   | 0.025724   | 0.026411   | 0.02719    |   0.2 | 10.29
Comm    | 0.06168    | 0.068945   | 0.07469    |   1.2 | 26.87
Output  | 0.00020073 | 0.00020508 | 0.00025173 |   0.0 |  0.08
Modify  | 0.017702   | 0.020042   | 0.021867   |   0.8 |  7.81
Other   |            | 0.001938   |            |       |  0.76

Nlocal:        125.000 ave         138 max         116 min
Histogram: 1 2 6 7 6 8 0 1 0 1
Nghost:        1666.91 ave        1703 max        1646 min
Histogram: 3 5 7 4 5 4 1 0 2 1
Neighs:        11088.0 ave       12468 max       10095 min
Histogram: 1 2 5 8 9 2 2 1 1 1

Total # of neighbors = 354817
Ave neighs/atom = 88.704250
Neighbor list builds = 86
Dangerous builds = 20

# Equilibrate just above the melting temperature to avoid step fn in T

fix 1 all npt temp 1.25 1.25 0.1 iso 5.68 5.68 0.5 mtk yes tchain 5 pchain 5
run 1000
Per MPI rank memory allocation (min/avg/max) = 3.661 | 3.661 | 3.661 Mbytes
Step Temp E_pair E_mol TotEng Press Volume 
    1000    2.3765823   -4.4738755            0  -0.90989327    5.6796077     5154.488 
    1100    1.9625951   -4.6989107            0   -1.7557541    5.6812496    4983.8841 
    1200    1.7289901   -4.9599136            0   -2.3670769    5.8142104    4790.1519 
    1300    1.5792657   -5.2249024            0   -2.8565961    5.6289859    4660.4039 
    1400    1.4517319   -5.4215948            0   -3.2445414    5.5197346    4561.4045 
    1500     1.364265   -5.5680033            0   -3.5221174    5.5958139    4483.3542 
    1600    1.3084699   -5.6759595            0   -3.7137453    5.6057769    4426.4503 
    1700    1.2550401   -5.7394736            0   -3.8573841    5.7381181    4381.4433 
    1800    1.2507956   -5.8140506            0   -3.9383263    5.7576039    4349.7766 
    1900    1.2205858   -5.8218536            0   -3.9914327    5.7234503    4347.2659 
    2000    1.2599896   -5.8219529            0    -3.932441    5.7139167    4350.4536 
Loop time of 0.249676 on 32 procs for 1000 steps with 4000 atoms

Performance: 692097.942 tau/day, 4005.196 timesteps/s
99.7% CPU use with 32 MPI tasks x no OpenMP threads

MPI task timing breakdown:
Section |  min time  |  avg time  |  max time  |%varavg| %total
---------------------------------------------------------------
Pair    | 0.13435    | 0.13839    | 0.14333    |   0.7 | 55.43
Neigh   | 0.022668   | 0.023189   | 0.024138   |   0.2 |  9.29
Comm    | 0.058915   | 0.066468   | 0.071293   |   1.3 | 26.62
Output  | 0.00019788 | 0.00020079 | 0.00024627 |   0.0 |  0.08
Modify  | 0.01747    | 0.019178   | 0.021679   |   0.9 |  7.68
Other   |            | 0.002253   |            |       |  0.90

Nlocal:        125.000 ave         130 max         115 min
Histogram: 1 0 0 2 4 3 6 7 4 5
Nghost:        1853.16 ave        1868 max        1832 min
Histogram: 1 0 2 6 2 5 3 6 3 4
Neighs:        13129.4 ave       13744 max       12058 min
Histogram: 1 0 2 3 3 2 5 8 5 3

Total # of neighbors = 420140
Ave neighs/atom = 105.03500
Neighbor list builds = 75
Dangerous builds = 9


# Small amount of linear quench

fix 1 all npt temp 1.25 ${temp} 0.1 iso 5.68 5.68 0.5 mtk yes tchain 5 pchain 5
fix 1 all npt temp 1.25 0.88 0.1 iso 5.68 5.68 0.5 mtk yes tchain 5 pchain 5
run 2000
Per MPI rank memory allocation (min/avg/max) = 3.661 | 3.662 | 3.662 Mbytes
Step Temp E_pair E_mol TotEng Press Volume 
    2000    1.2599896   -5.8219529            0    -3.932441    5.7139167    4350.4536 
    2100    1.2439211   -5.8585541            0   -3.9931389    5.6821254    4335.7952 
    2200    1.1987191    -5.860867            0    -4.063238    5.6282883     4332.785 
    2300    1.2163911   -5.9122139            0   -4.0880834    5.6512919    4312.4989 
    2400     1.203122   -5.9308835            0   -4.1266516    5.7324142    4298.0564 
    2500    1.1870083   -5.9905782            0   -4.2105109    5.5775482    4285.8513 
    2600    1.1606004   -5.9998867            0   -4.2594213    5.7651195    4263.2295 
    2700    1.1446417   -6.0132822            0   -4.2967488    5.8240866    4252.2573 
    2800    1.1163841   -6.0363758            0   -4.3622182    6.0048395    4230.1001 
    2900    1.1159381   -6.0851355            0   -4.4116469    5.8506213    4220.5945 
    3000    1.0810237    -6.116248            0   -4.4951179     5.609743    4223.6035 
    3100    1.0510375   -6.1415035            0   -4.5653414    5.4651571    4222.8638 
    3200    1.0328529    -6.164294            0   -4.6154019    5.5445443    4207.1694 
    3300    1.0126695   -6.1838818            0   -4.6652572    5.7099388    4185.4927 
    3400    1.0052587   -6.2285382            0    -4.721027     5.653396    4172.8228 
    3500    1.0034349   -6.2682572            0   -4.7634811    5.7588249      4148.32 
    3600     0.975121   -6.2996852            0   -4.8373694    5.6877721    4140.3499 
    3700   0.95321756   -6.3322477            0   -4.9027788    5.5689711    4135.1224 
    3800   0.94599721   -6.3747317            0   -4.9560906    5.6088612    4116.3543 
    3900    0.9136313   -6.3891741            0   -5.0190698    5.6697133    4104.1149 
    4000   0.90602717   -6.4357946            0   -5.0770936    5.5209181    4098.2742 
Loop time of 0.521063 on 32 procs for 2000 steps with 4000 atoms

Performance: 663259.412 tau/day, 3838.307 timesteps/s
99.7% CPU use with 32 MPI tasks x no OpenMP threads

MPI task timing breakdown:
Section |  min time  |  avg time  |  max time  |%varavg| %total
---------------------------------------------------------------
Pair    | 0.28746    | 0.29738    | 0.30889    |   1.0 | 57.07
Neigh   | 0.037998   | 0.039423   | 0.040779   |   0.3 |  7.57
Comm    | 0.1255     | 0.13908    | 0.15402    |   1.7 | 26.69
Output  | 0.00040903 | 0.00041595 | 0.00050691 |   0.0 |  0.08
Modify  | 0.034904   | 0.039465   | 0.046319   |   1.4 |  7.57
Other   |            | 0.005303   |            |       |  1.02

Nlocal:        125.000 ave         131 max         117 min
Histogram: 1 0 5 5 3 3 4 3 2 6
Nghost:        1927.91 ave        1946 max        1912 min
Histogram: 1 2 3 3 7 11 2 1 1 1
Neighs:        13960.4 ave       14900 max       12981 min
Histogram: 1 1 6 3 6 4 4 1 3 3

Total # of neighbors = 446733
Ave neighs/atom = 111.68325
Neighbor list builds = 123
Dangerous builds = 0

#############################
# F R E E Z E  S Y S T E M  #
#############################

# Define solid atoms. This closely follows ten Wolde  Ruiz-Montero and Frenkel  Faraday Discuss  1996  104  93-110
# Compute components of the per-atom q6 vector
compute q6 all orientorder/atom degrees 1 6 components 6 nnn NULL cutoff 1.3 # compute the Q6 parameter.
                                                                             # Use all neighbours within 1.3 unit cell.

# get number of connections
compute coord_number all coord/atom orientorder q6 0.5

# An atom is solid if it has 8 or more connections (of a possible 14)
variable is_solid atom c_coord_number>=8
group solid dynamic all var is_solid    # Must be dynamic to update
dynamic group solid defined

# do clustering
compute cluster solid cluster/atom 1.3 # Create a cluster where all atoms within are solid and max 1.3 units from another member

# define chunks one chunk per cluster
compute clus_chunks solid chunk/atom c_cluster nchunk every compress yes  # Says which atoms are in which chunk

# count the size of each chunk
compute size_chunks solid property/chunk clus_chunks count


# Find the maximum entry in the vector of chunk sizes
variable max_n equal max(c_size_chunks)


# Thermo style which includes this variable
thermo_style custom step temp pe vol v_max_n

thermo ${N}  # Print the thermo information every 100 steps
thermo 100  

# Reset the npt fix at a lower temperature (below freezing)
fix 1  all npt temp  ${temp} ${temp}  0.1  iso  5.68  5.68  0.5  mtk yes tchain  5  pchain  5
fix 1  all npt temp  0.88 ${temp}  0.1  iso  5.68  5.68  0.5  mtk yes tchain  5  pchain  5
fix 1  all npt temp  0.88 0.88  0.1  iso  5.68  5.68  0.5  mtk yes tchain  5  pchain  5

dump dmp2 all dcd ${N} traj_${rand}.dcd
dump dmp2 all dcd 100 traj_${rand}.dcd
dump dmp2 all dcd 100 traj_462431.dcd


# fix rnuntil all halt ${N} v_max_n >= 3980 error soft message no   # Stop when solidified


run 100000 # 5000000  # Run for this many steps
Neighbor list info ...
  update every 1 steps, delay 10 steps, check yes
  max neighbors/atom: 2000, page size: 100000
  master list distance cutoff = 3.8
  ghost atom cutoff = 3.8
  binsize = 1.9, bins = 9 9 9
  4 neighbor lists, perpetual/occasional/extra = 1 3 0
  (1) pair lj/cut, perpetual
      attributes: half, newton on
      pair build: half/bin/atomonly/newton
      stencil: half/bin/3d
      bin: standard
  (2) compute orientorder/atom, occasional
      attributes: full, newton on
      pair build: full/bin/atomonly
      stencil: full/bin/3d
      bin: standard
  (3) compute coord/atom, occasional
      attributes: full, newton on
      pair build: full/bin/atomonly
      stencil: full/bin/3d
      bin: standard
  (4) compute cluster/atom, occasional
      attributes: full, newton on
      pair build: full/bin/atomonly
      stencil: full/bin/3d
      bin: standard
Per MPI rank memory allocation (min/avg/max) = 9.446 | 9.448 | 9.450 Mbytes
Step Temp PotEng Volume v_max_n 
    4000   0.90602717   -6.4357946    4098.2742           10 
    4100   0.88459414    -6.439469    4084.1887           15 
    4200   0.87359107   -6.4678676    4079.7497           10 
    4300   0.87936052   -6.4787271     4071.224            6 
    4400    0.8830108   -6.4849989    4051.0348           11 
    4500   0.89525836   -6.4551943    4058.6004            8 
    4600   0.89202074   -6.4704866    4064.3765           10 
    4700   0.87336972    -6.479175    4058.6207           14 
    4800   0.88144687   -6.4735233    4065.0215           13 
    4900   0.87540864   -6.4734159      4076.64           16 
    5000   0.88264511   -6.4884671    4063.1545           10 
    5100   0.88085429   -6.5040117    4073.2785           15 
    5200   0.88616693   -6.4830071      4089.73           14 
    5300   0.87619846   -6.4539038    4090.6216            9 
    5400    0.8834722   -6.4794603     4076.245           20 
    5500   0.87521505   -6.4994241    4065.5448           16 
    5600   0.87659111   -6.4836412    4063.6454           14 
    5700   0.86911346   -6.4622705    4081.4122           16 
    5800   0.87214491   -6.4784461    4075.7611           14 
    5900    0.8838972   -6.5061821    4076.7179           15 
    6000   0.86163489   -6.5157554    4066.0727           12 
    6100   0.89061056   -6.5282882    4062.4038           14 
    6200   0.90639972   -6.4985886    4059.3848           20 
    6300   0.87858924   -6.4864331    4055.5044           20 
    6400   0.87316988   -6.4993126    4049.0047           23 
    6500   0.87640283   -6.5307698    4043.1587           28 
    6600   0.88301256   -6.5041855    4062.0609            7 
    6700   0.89121403   -6.5098136    4059.9672            8 
    6800   0.86773288   -6.4986385    4050.8061            7 
    6900   0.87421071   -6.4630501     4069.437            9 
    7000   0.88595616   -6.4992591    4067.7346           16 
    7100   0.88183553   -6.5184723    4069.5362            9 
    7200   0.88246125   -6.5130159    4065.8933           17 
    7300   0.88009605   -6.5232864    4064.8962           13 
    7400   0.87184714   -6.4755601    4071.1028           19 
    7500   0.88658205   -6.4855282    4073.9467            3 
    7600   0.86380362    -6.498857    4059.5118            8 
    7700   0.89081889   -6.4965271    4061.5552           12 
    7800   0.87565333   -6.4642516    4065.9783           11 
    7900   0.90263124   -6.4802996    4083.0277            5 
    8000   0.88513017   -6.4711139    4078.9133            7 
    8100   0.87330036    -6.490548    4072.8657           15 
    8200   0.88711609   -6.4672473    4073.2165           16 
    8300   0.89817532    -6.429964    4078.5345           11 
    8400   0.89237054   -6.4627415    4066.3642           12 
    8500   0.89145605   -6.4767391     4060.126           23 
    8600   0.88674667   -6.4943198     4045.937           15 
    8700   0.87586603   -6.5059806    4039.1648            9 
    8800   0.88490928   -6.4779206    4054.5531            7 
    8900   0.86995826   -6.4668545    4063.8859            9 
    9000   0.88872195   -6.4592973    4069.3508           14 
    9100    0.8704464   -6.4786125    4072.5477            8 
    9200   0.88798876   -6.5054655    4067.1439            7 
    9300   0.88585625   -6.5133477    4065.3356           13 
    9400   0.90052097   -6.5116022    4065.8939            8 
    9500   0.88380442     -6.47289    4064.3097           18 
    9600   0.88305004   -6.5255977    4057.0534           17 
    9700   0.87948587   -6.5099886    4071.2576           33 
    9800   0.87028082   -6.4814999    4079.2336           17 
    9900    0.8680374   -6.4699993    4080.4693           17 
   10000   0.86005572   -6.5008562    4065.4964           11 
   10100   0.87330574   -6.5024733    4074.9518           12 
   10200    0.8778886   -6.4895528    4077.0434            6 
   10300   0.87668995     -6.50445    4072.2402           16 
   10400    0.8616606   -6.5196948    4060.9687           20 
   10500   0.88928555   -6.5315909    4062.8223           17 
   10600   0.87814736   -6.4660305    4066.2877           24 
   10700    0.8693253    -6.477282    4064.7102           22 
   10800   0.87512717   -6.5046637    4061.5431           13 
   10900   0.85319505    -6.492578    4051.3575            7 
   11000   0.88231713    -6.494161    4066.1571            6 
   11100   0.88761888    -6.497065    4070.6383            7 
   11200   0.86909054    -6.515321     4063.315           14 
   11300   0.87511276   -6.4997821    4073.4646            5 
   11400   0.87106542    -6.493841    4070.0569           10 
   11500   0.88630188   -6.5164178    4062.6568            6 
   11600   0.86999787   -6.5004294    4051.7563            4 
   11700   0.87603365   -6.5071582     4055.844            8 
   11800   0.89068761   -6.4879844    4062.9162            9 
   11900   0.87394887   -6.4944579    4052.6329            9 
   12000   0.89490508   -6.5045073     4055.861           10 
   12100   0.88658622   -6.4842371    4050.2351           18 
   12200   0.87973118   -6.5151082    4045.0859           14 
   12300   0.88410015   -6.5118299    4043.1696           12 
   12400   0.89999715    -6.502477    4052.0347           14 
   12500   0.89179497   -6.5247945    4044.3874           18 
   12600   0.87156324   -6.5167425    4056.2423           24 
   12700   0.87673288    -6.507563    4066.1102           20 
   12800   0.87257755   -6.5191728    4074.9353           26 
   12900   0.87425517   -6.5178323     4072.659           41 
   13000   0.86709744   -6.5329605    4051.1831           31 
   13100   0.88046109   -6.4977749    4060.0131           24 
   13200    0.8797166   -6.5049982    4061.7872           24 
   13300   0.88047513   -6.5092802    4053.5146           27 
   13400   0.88790523   -6.5067421    4063.0383           28 
   13500   0.87782884     -6.47894    4062.9742           18 
   13600   0.88667818   -6.5338242    4049.9531           13 
   13700   0.87320131   -6.4925863    4052.2378           23 
   13800   0.88560606   -6.5046985    4059.7322           13 
   13900   0.87443743   -6.5033108    4056.1782           11 
   14000   0.86127791   -6.5115322    4050.4556           15 
   14100   0.87933635   -6.4912275     4055.857           13 
   14200   0.86355484   -6.4992454    4065.4799           18 
   14300   0.89498555    -6.500547    4065.7449           24 
   14400   0.87680515   -6.4853076    4060.4476            6 
   14500   0.89178246   -6.4749904    4068.9338           26 
   14600   0.87687877   -6.5037115    4071.1124           14 
   14700   0.87545568   -6.5118778    4063.4464            9 
   14800   0.87229092   -6.4794725    4063.3434            6 
   14900   0.87406677   -6.4768848    4067.8339           14 
   15000   0.88563916   -6.4830119    4065.4017           11 
   15100   0.91094429   -6.5050459    4057.9881           26 
   15200   0.89045993     -6.47111    4050.4349           24 
   15300    0.8678615   -6.4773007    4048.3315           20 
   15400   0.88425225   -6.4865886    4048.8812           13 
   15500   0.88824522    -6.492579    4055.9662           11 
   15600   0.88765656   -6.4910839    4056.6108           10 
   15700   0.89079905   -6.5098012     4051.086           22 
   15800   0.88543491   -6.4996116      4064.08           24 
   15900   0.88494808   -6.5022572    4068.5279           21 
   16000   0.86348546   -6.5184784    4057.8823           15 
   16100   0.89205416   -6.5180434    4063.0875           30 
   16200   0.86889586   -6.5212204    4066.3337           14 
   16300   0.88420934   -6.5274705    4058.9225           23 
   16400   0.88047485   -6.4853617    4051.5214           22 
   16500   0.88522749   -6.4629428    4054.2755           27 
   16600   0.87906482   -6.5110393    4055.2326           31 
   16700   0.87654119   -6.4963918    4058.9209           18 
   16800   0.88659622   -6.5000871    4067.4846           16 
   16900   0.87295518   -6.4750927    4067.8368           12 
   17000   0.88335609   -6.4915243     4059.737            7 
   17100   0.87794102   -6.4928143    4060.0739            9 
   17200   0.88109824   -6.4991073    4057.9869           23 
   17300   0.87182741   -6.5147683    4053.3827           20 
   17400   0.88063064   -6.5015789    4063.6936           13 
   17500   0.89432697    -6.480327    4075.4702           15 
   17600   0.88293755   -6.5022777    4068.4762            9 
   17700   0.86915765   -6.4926965    4055.6161           22 
   17800   0.89500978   -6.5192877    4050.1993           17 
   17900   0.87855693   -6.4866152    4057.2395           24 
   18000   0.89784906   -6.4844038    4063.5169           24 
   18100   0.87443755   -6.4880452    4052.2106           17 
   18200   0.88953983    -6.482311    4061.8809           19 
   18300   0.89194228   -6.4667046    4057.8332           15 
   18400   0.86684142    -6.489971     4060.397           18 
   18500   0.88316812   -6.4807008    4075.0633            9 
   18600   0.87698534   -6.4827304    4074.8684           13 
   18700   0.88350793   -6.5198718    4074.3896           14 
   18800   0.87147763   -6.5028473    4065.0523           19 
   18900   0.88195898   -6.4758249    4058.0425           17 
   19000   0.88868127   -6.4664971    4070.9266           18 
   19100   0.87146623   -6.4663996    4063.4761           27 
   19200   0.86708466   -6.5062749    4071.6023           15 
   19300   0.89063972   -6.4904417    4075.8743            4 
   19400   0.88281976   -6.4934041    4064.4094           12 
   19500   0.88674137   -6.5146544    4066.3241           13 
   19600   0.87811397   -6.4832143    4066.4958           15 
   19700   0.89294719   -6.4551194    4087.4532            5 
   19800   0.89728339   -6.4850745    4073.3954            7 
   19900   0.87410431   -6.4889883     4065.059           13 
   20000      0.86901   -6.5088776    4059.5731           13 
   20100    0.8922659   -6.4879958    4060.3588            8 
   20200   0.89493782   -6.4817476    4061.6925            6 
   20300   0.87730907   -6.4973823    4053.4265            9 
   20400    0.8743496   -6.4885559    4057.4753           13 
   20500   0.88911291   -6.4810018    4072.7518            5 
   20600   0.86472228   -6.4824354    4065.8072            6 
   20700   0.89462713   -6.4711486    4075.9019            8 
   20800   0.88526688   -6.4877397     4081.956           13 
   20900   0.89223403    -6.485714    4068.9825            6 
   21000   0.86840643   -6.4827857    4048.2262           11 
   21100   0.89035739   -6.4883113    4055.5589           13 
   21200    0.8926634   -6.4820998    4061.2557            9 
   21300   0.86690696   -6.4861564    4048.8695           11 
   21400   0.86853898    -6.504489    4052.6107            6 
   21500   0.89298949   -6.4836052    4057.1554            9 
   21600   0.88456135   -6.4903901    4045.0428           10 
   21700   0.87653088    -6.472413    4046.2529            6 
   21800   0.89256884   -6.4757245    4051.5826           10 
   21900   0.88946112   -6.4931818    4061.9908           19 
   22000   0.88916521   -6.5070985    4072.5466           20 
   22100   0.86685199   -6.5142429     4064.147            9 
   22200   0.87245682   -6.4979524    4067.5557           11 
   22300   0.88894159   -6.5111195    4066.5406           13 
   22400   0.88758468   -6.5006539    4054.9863           11 
   22500   0.87370699   -6.5185151    4045.7931           12 
   22600   0.88280471   -6.4971894    4058.9372           20 
   22700   0.88743651   -6.4901926    4058.8946            9 
   22800   0.86815331    -6.493752    4047.3526           12 
   22900   0.87413377   -6.5157341    4047.7703           13 
   23000    0.8862459   -6.4972166     4058.801            6 
   23100   0.88572215   -6.4811273    4060.0646            9 
   23200   0.88645654   -6.5160935    4071.9145           13 
   23300   0.87928599   -6.5209425    4061.5635            7 
   23400   0.86036246   -6.5301967    4052.8841            7 
   23500   0.88576308    -6.515811    4050.4931           14 
   23600    0.8746701   -6.5214252    4052.2577            6 
   23700    0.8863834   -6.4845808    4056.0675            7 
   23800    0.8724299   -6.4776762     4059.179            9 
   23900    0.9059085   -6.4991419    4054.8266           16 
   24000     0.876359   -6.4902667    4053.5681           11 
   24100   0.86415647    -6.501098     4044.885           15 
   24200   0.87261059   -6.5084312    4040.6595            9 
   24300   0.88673512   -6.5026263    4060.7831            7 
   24400   0.87810708   -6.4949108    4070.7131            9 
   24500   0.89771416   -6.4983709    4071.6983            9 
   24600   0.86309196   -6.4930792    4059.8741           12 
   24700   0.88349141   -6.4919221    4064.7625            9 
   24800    0.8853525   -6.5012686    4072.4346            8 
   24900   0.88062332   -6.5195462    4069.4618            8 
   25000   0.88931249   -6.4794003    4066.4786           11 
   25100   0.87793044   -6.4723505    4049.0062            9 
   25200   0.88501949   -6.5031878    4039.9338            7 
   25300   0.87602002   -6.5357341    4042.9236           15 
   25400   0.89232431   -6.5207189    4056.3679            8 
   25500   0.87805762   -6.4942354    4052.2032           15 
   25600   0.87378636   -6.5151038    4043.2913           11 
   25700   0.88123632   -6.4971331    4054.8568            7 
   25800   0.88801146   -6.4759531    4058.2471           12 
   25900   0.87931043   -6.5177431    4060.3238           14 
   26000   0.87431792   -6.4946165    4059.4138            9 
   26100   0.90887474   -6.4968311    4063.6489            9 
   26200   0.88271769   -6.5116084    4062.4785           16 
   26300   0.86091292   -6.5133839     4061.338           13 
   26400   0.85556895   -6.5003168    4065.9908           12 
   26500   0.89546099   -6.5171993    4060.9442           15 
   26600   0.88029337   -6.4930481    4060.4246           12 
   26700   0.86974385   -6.4909882    4068.9412            7 
   26800    0.8807206   -6.5328995    4050.7794           17 
   26900   0.86604747   -6.5223746    4049.8709           17 
   27000   0.86803674   -6.4815609    4050.7722           14 
   27100   0.89506668    -6.502149    4053.5622           10 
   27200   0.87726419   -6.5150614    4049.2405            5 
   27300   0.88345648   -6.5087113    4050.6474            7 
   27400   0.89148256    -6.503895    4076.9075           15 
   27500   0.88324879   -6.5029269    4078.1718            8 
   27600   0.86824377   -6.5085542    4064.8845           10 
   27700   0.86059666    -6.534747     4059.102           13 
   27800   0.86620396   -6.5292991    4062.7025            9 
   27900   0.86559362   -6.5207165    4069.4544            6 
   28000   0.87323194   -6.5090856    4070.9092           11 
   28100   0.88727033   -6.4904929    4066.1324            7 
   28200   0.86013943   -6.4857298    4052.6035            7 
   28300   0.87343304   -6.4935169      4064.11           12 
   28400   0.89078396   -6.4903452    4058.7238           13 
   28500    0.8494557   -6.4885687    4040.3317           16 
   28600   0.88428382   -6.5110025    4049.3554           12 
   28700   0.87956102    -6.487058    4060.7171           12 
   28800   0.86992902   -6.4908645    4064.4009            8 
   28900   0.87470605   -6.4864259    4061.0208           11 
   29000    0.8902897   -6.4962537    4058.9403           10 
   29100   0.88452155   -6.4844549     4059.715            9 
   29200    0.8818911   -6.4930843    4054.6413            8 
   29300   0.87324073   -6.5160017    4045.9335           14 
   29400   0.90808699   -6.5379004    4047.1846            8 
   29500   0.88847897   -6.4830702    4051.5761            6 
   29600   0.87826494   -6.4707346    4055.4765           15 
   29700    0.8705688   -6.4945377    4062.5017            4 
   29800   0.85583385   -6.5222814    4067.6627            9 
   29900   0.86814162   -6.5021381    4067.3907           10 
   30000   0.87399397   -6.4808803    4071.0275            8 
   30100   0.90709088   -6.4803404    4072.5864            7 
   30200   0.86366067   -6.4595339    4056.2611            7 
   30300   0.89397273   -6.5016358    4055.6699            7 
   30400   0.87506263   -6.5037683     4050.423           15 
   30500   0.89102392   -6.5219849    4059.1213            7 
   30600   0.88003688   -6.5028082    4055.0098            7 
   30700   0.88608871   -6.5056701    4045.9471            7 
   30800   0.87735614   -6.5255213    4047.2868           20 
   30900   0.88018725   -6.4907699    4065.6347            6 
   31000   0.88739765   -6.5024421    4066.4642            6 
   31100   0.87662636   -6.5234148    4060.7272           17 
   31200   0.87728759   -6.5147932    4070.9767            9 
   31300   0.87257304   -6.4841486    4071.7987            7 
   31400   0.86413661   -6.4890909    4066.5968            7 
   31500   0.88359441   -6.5090399    4066.7702           15 
   31600    0.8809355   -6.4986566    4071.6031           11 
   31700   0.89187498   -6.5086019    4062.4277           10 
   31800   0.87661075   -6.5119935    4059.9362            9 
   31900   0.88309282   -6.4848641    4076.8413            8 
   32000   0.88502062   -6.5114675    4072.9564            7 
   32100   0.87180016   -6.5087364    4066.2677            6 
   32200   0.86783616   -6.4896284    4061.1013            5 
   32300   0.88870053   -6.4687371    4055.4053            5 
   32400    0.8779361    -6.497717    4047.4511           11 
   32500   0.88441829   -6.5137285    4051.2889            8 
   32600   0.88665199   -6.4931973    4053.3387           11 
   32700   0.88011364   -6.5071567    4063.5814           15 
   32800   0.88448215   -6.4775621    4069.2035            7 
   32900   0.86938028   -6.4843867    4062.1434            7 
   33000   0.88162956   -6.5168938    4053.0947           10 
   33100   0.87214925   -6.5145843     4058.912           13 
   33200   0.88507262   -6.4904451    4059.1526           14 
   33300   0.87161466   -6.5178945    4057.0865           10 
   33400   0.89556241   -6.5234719    4052.3624           12 
   33500   0.88653003   -6.4998239    4053.5203            6 
   33600   0.87317944   -6.4788415    4043.0416            9 
   33700   0.87997798   -6.5199369    4043.4269           19 
   33800    0.8857137   -6.4861125     4066.355            9 
   33900   0.89126448   -6.4819077    4060.5514            9 
   34000    0.8799343   -6.4971765    4049.5022           19 
   34100   0.88092621   -6.5006098    4057.4256           11 
   34200   0.87534277   -6.4679483    4060.3295           10 
   34300   0.87786298   -6.5151367    4052.3611            9 
   34400   0.87568502   -6.4876052    4045.9747            6 
   34500   0.88326662    -6.486621    4056.3544           13 
   34600   0.89865263   -6.4777047    4072.8838            8 
   34700   0.88762985   -6.5123045    4061.4699            7 
   34800    0.8723078    -6.522733    4056.7721            6 
   34900   0.88471065   -6.5154831    4059.0849            7 
   35000   0.87301487   -6.4996062    4064.7189           14 
   35100   0.89461505   -6.4935229    4064.5664            9 
   35200   0.87718671   -6.4733353     4049.066           17 
   35300   0.89468307   -6.5343239     4051.241           19 
   35400   0.88453811   -6.4804223    4046.8877           14 
   35500    0.8996079   -6.5041502    4050.1796            7 
   35600   0.89903849   -6.5123366    4053.4955            7 
   35700   0.85902874   -6.5186635    4047.8746            8 
   35800    0.8747594   -6.5114399    4057.9036           10 
   35900   0.88163181   -6.4963081    4066.7898           11 
   36000    0.8978998   -6.5003563    4074.9962           12 
   36100   0.86932067   -6.5057624    4065.1046            9 
   36200   0.88215244   -6.4909228    4061.1589            8 
   36300   0.87114313   -6.5090103    4061.2459            9 
   36400   0.87367631   -6.5234287    4057.9453           10 
   36500   0.88699727   -6.4872218    4061.8654            9 
   36600   0.86671129   -6.4861136    4053.9613            8 
   36700   0.86592513    -6.524532    4054.5134            7 
   36800   0.88007696   -6.5340474    4056.1908            8 
   36900   0.88075557   -6.5017513    4061.6107           10 
   37000   0.86067935   -6.5118831    4062.4627            9 
   37100   0.87310511   -6.4790774    4065.4712            7 
   37200   0.89500556   -6.4912918    4065.2433           11 
   37300   0.87990864   -6.5197601    4059.0553           13 
   37400   0.88317188   -6.5033855    4055.8461           11 
   37500   0.86537874   -6.4736631    4064.3272           10 
   37600   0.87135121   -6.4787893    4061.5318            8 
   37700   0.89329267   -6.5187138     4058.142           14 
   37800   0.87717186    -6.494237    4051.5186           10 
   37900   0.88075737   -6.5054786    4046.8227            9 
   38000   0.88372415   -6.4888101    4060.8416           12 
   38100    0.8799496   -6.4977329    4064.1725            7 
   38200   0.86451257   -6.4815952    4083.8388           10 
   38300   0.87291618   -6.4820084    4083.4003           11 
   38400    0.8829587   -6.5211489    4075.4408           12 
   38500   0.87399702   -6.5058557    4061.9376           10 
   38600    0.8748258   -6.5216505    4062.9749            9 
   38700    0.8811074   -6.4981329    4057.8992           10 
   38800   0.87972201   -6.4936203    4067.5428           13 
   38900   0.86072032   -6.5066361     4066.765           16 
   39000   0.87671615   -6.4863955    4070.8459           11 
   39100   0.87886615   -6.5239641      4064.98            9 
   39200   0.86731695   -6.5053822     4067.894           17 
   39300   0.87755796   -6.5014826    4065.0128           24 
   39400   0.87775212   -6.4902638    4064.1928           18 
   39500   0.86474603   -6.4724106    4061.5701           17 
   39600   0.88319633   -6.4580956    4064.4805           17 
   39700   0.90045712   -6.4711989    4070.9584           22 
   39800   0.88659436    -6.508598    4069.1272           22 
   39900   0.87926716    -6.501163    4065.9241           21 
   40000   0.86843644   -6.4783572    4062.8484           11 
   40100   0.87017144   -6.4992644    4066.1755           21 
   40200   0.88516972   -6.4794947    4071.6283           25 
   40300    0.8537338   -6.4607769    4068.4529           17 
   40400   0.90843968   -6.4953187    4062.6286           18 
   40500   0.88261764   -6.4895842    4062.1912           19 
   40600   0.86363206   -6.5115004    4056.9965            7 
   40700   0.88252498   -6.5088158    4063.4331           12 
   40800   0.88089064    -6.487445    4061.2398            5 
   40900   0.86922688   -6.5080351    4059.0591            5 
   41000   0.87823124   -6.5127204    4059.5623           14 
   41100   0.88161937   -6.4800995     4060.066            5 
   41200   0.88765956   -6.5431864    4050.4689            7 
   41300   0.89341259   -6.5108715    4040.7709            9 
   41400   0.86537455   -6.5009269    4044.9918           10 
   41500   0.89633756   -6.5105568    4057.4458           15 
   41600   0.89737452   -6.5128058    4048.5455            9 
   41700   0.87765599    -6.517738    4054.2814           11 
   41800   0.88382571   -6.5026842    4068.6446            8 
   41900    0.8981688    -6.493946    4080.9116           12 
   42000   0.86774428   -6.4693813    4079.2781           10 
   42100   0.86979216   -6.4952526    4069.6809            6 
   42200   0.87642484   -6.4837673    4064.3578            5 
   42300   0.90430672   -6.4820909    4069.8282            6 
   42400   0.88182715   -6.4945753    4064.6406           22 
   42500   0.87873694   -6.5017447     4064.172           10 
   42600   0.87585092   -6.4789572    4060.4551           21 
   42700    0.8737687   -6.4790031    4063.0842           13 
   42800   0.90093121   -6.5015037     4076.607            5 
   42900   0.87404525   -6.5112515    4075.7986           14 
   43000   0.86500846   -6.5033495    4074.9816           18 
   43100   0.86679598   -6.4697144    4073.2342            7 
   43200   0.88946052   -6.4619696    4071.9722            7 
   43300    0.8824721   -6.4915524    4054.9394           13 
   43400   0.88235407   -6.5001973    4048.8631           13 
   43500   0.88328051   -6.5096752    4046.6568            8 
   43600   0.90054064   -6.4876202    4056.8503           13 
   43700   0.88860529   -6.4855947    4056.2335            9 
   43800   0.87027285   -6.5025985    4053.3449            9 
   43900   0.88791199   -6.4890347    4052.8989           10 
   44000   0.89080984    -6.471176    4056.9131           12 
   44100   0.90876855   -6.4918454    4057.9128           16 
   44200   0.88631799   -6.5047173    4056.6082            9 
   44300   0.89356645   -6.5066703    4057.1628           18 
   44400   0.88982149   -6.4539935    4068.1993           13 
   44500   0.88233306   -6.4805271    4076.9803            8 
   44600    0.8654515   -6.4962844    4075.9311           15 
   44700   0.86830972   -6.5024142    4068.9244            8 
   44800   0.87641531   -6.4960393    4083.6341            6 
   44900   0.87813676   -6.4777064    4080.7797            7 
   45000   0.85954268   -6.4930224    4063.1929           19 
   45100   0.87812558   -6.4795956    4066.9582            8 
   45200   0.87619832   -6.4612274    4066.4147            9 
   45300   0.88485954   -6.4975824    4067.3136           16 
   45400   0.86105915   -6.4982613     4061.456           23 
   45500   0.88612239   -6.4990907    4066.0634           10 
   45600   0.87479933   -6.4697291    4059.0156           10 
   45700   0.86573711   -6.4954399    4049.5828           10 
   45800    0.8899113   -6.5086696    4059.7593           16 
   45900   0.87260536   -6.4737941     4060.365           13 
   46000   0.89112061   -6.4684782     4056.451            6 
   46100    0.8877009   -6.5178598    4050.5149           10 
   46200   0.86917135   -6.4862209    4051.5935            8 
   46300   0.91142357   -6.5064328    4063.6616            7 
   46400   0.89197785   -6.4986041    4065.8079            9 
   46500   0.88593883   -6.4891557    4048.9782            7 
   46600   0.88625719   -6.4648494    4051.3114            7 
   46700   0.89431317   -6.4850376    4060.7641           12 
   46800   0.88730533   -6.5025627    4056.0581            6 
   46900   0.86418917   -6.4989343    4044.8868            8 
   47000   0.88749721   -6.5417924    4058.4183           13 
   47100    0.8886505   -6.5167509    4067.5162           10 
   47200   0.87572346   -6.5128188    4069.8276           10 
   47300   0.86903529   -6.5016775    4063.3863            9 
   47400   0.86629473   -6.4754699    4063.3651           13 
   47500   0.86537062   -6.4923355    4058.7383           10 
   47600   0.88110489    -6.493744    4060.7923           10 
   47700   0.88293682   -6.4778938    4066.4487           22 
   47800   0.86787174   -6.4927209     4076.194           15 
   47900   0.89101728   -6.4964625    4079.7114           15 
   48000   0.88746634   -6.5197001    4073.8185           14 
   48100   0.87041776   -6.5148867    4064.4094           15 
   48200   0.89057765   -6.4853384    4063.0172            8 
   48300   0.89338796   -6.4887902    4060.7323           14 
   48400   0.87229248   -6.5080962    4059.7666           12 
   48500   0.88773394   -6.4956902      4070.01            8 
   48600   0.87772629   -6.4774132    4069.0455            7 
   48700   0.87734274   -6.5011072    4067.7497           13 
   48800   0.86650362    -6.500679    4063.2579           11 
   48900     0.883135   -6.4943258    4064.5189           12 
   49000   0.87187954   -6.5174279    4071.0818            5 
   49100   0.87822811   -6.4867592    4071.1941            8 
   49200   0.89589079   -6.4947957    4070.7551           13 
   49300   0.88737695   -6.5177314    4060.8379           10 
   49400   0.88592175   -6.5094506    4055.6538            7 
   49500      0.86003   -6.4787253    4057.2567           10 
   49600    0.8917908    -6.487587    4072.9269           11 
   49700   0.89099341   -6.4852744    4059.8377           10 
   49800   0.87949379   -6.4795839    4056.6297            6 
   49900   0.88679432   -6.4817517    4059.6226            9 
   50000   0.89622622   -6.5025775    4047.3543            9 
   50100   0.88020355   -6.5033019     4050.768            6 
   50200   0.88807012   -6.4801638    4054.9407           10 
   50300   0.87170297    -6.494858    4054.3897           17 
   50400   0.89133981   -6.5205232    4067.3813           14 
   50500   0.86537609   -6.4681927    4065.1166            8 
   50600   0.87670205   -6.4991291    4069.5962           10 
   50700   0.87138832   -6.5333612    4055.0904           10 
   50800   0.87917051   -6.5343555    4053.3118            9 
   50900   0.87040029   -6.4683629    4061.5419           12 
   51000   0.88705151   -6.4701603    4065.0642            8 
   51100   0.90802807   -6.4552032     4077.489            7 
   51200   0.88509826   -6.4632981    4071.2811            6 
   51300   0.86982283   -6.4858742    4069.2978            6 
   51400    0.8972352   -6.4931303    4069.4558            8 
   51500   0.87392708   -6.4760293    4066.5523            7 
   51600   0.88693401   -6.4978371    4060.7867            8 
   51700   0.86722335   -6.4669611    4070.9584            6 
   51800   0.88863819   -6.4819305    4071.5154            7 
   51900   0.87716465   -6.5009494    4062.6325           12 
   52000   0.89141112   -6.4950895     4061.255           11 
   52100   0.86249475   -6.4700021    4067.9044            8 
   52200   0.89476875   -6.4682995    4074.4403           10 
   52300   0.86187493   -6.4528812    4072.8842            7 
   52400   0.85476057   -6.4598294    4078.1841            9 
   52500   0.87382597   -6.5059667    4079.6959            7 
   52600   0.86645473   -6.5105726    4074.8833            7 
   52700   0.87753826   -6.4709921    4073.0665            9 
   52800   0.89553162   -6.5018152    4072.2972            8 
   52900   0.87145666   -6.5001277    4059.4011            6 
   53000   0.87858841   -6.4938542    4059.5445            3 
   53100   0.89174372   -6.5026145    4057.3516            7 
   53200   0.87842297   -6.5166976    4050.3717           10 
   53300   0.89362317   -6.4979767    4056.5773            6 
   53400   0.88323957   -6.4774731    4059.8007           19 
   53500   0.86207854   -6.4898662    4064.6727           25 
   53600   0.89302166   -6.5160733    4070.5496           34 
   53700   0.86369405   -6.4645353    4065.7244           32 
   53800    0.8696933    -6.489518    4059.1291           16 
   53900   0.88557182    -6.487442    4067.5091            9 
   54000   0.86033146   -6.4975008    4070.1097            9 
   54100   0.87715552   -6.4695033    4079.1413           10 
   54200   0.86894294   -6.4671972    4081.5887           12 
   54300   0.89242453   -6.4768849    4066.9898           16 
   54400   0.87492725    -6.502965    4063.2184           10 
   54500   0.87070437   -6.4591215    4069.8579            5 
   54600   0.88430781   -6.4820609    4071.1041            4 
   54700   0.86844546   -6.4890194    4069.0792           16 
   54800   0.89754586    -6.482357    4071.9008           14 
   54900   0.87705555   -6.4794888    4065.7084           15 
   55000   0.86716839   -6.4859319    4072.4968            6 
   55100   0.86949834   -6.4881683    4083.7397            9 
   55200   0.87437996   -6.5000294    4072.6962            6 
   55300   0.87959624   -6.4896974    4066.5402            9 
   55400   0.88119035   -6.4862828    4058.9254            6 
   55500   0.88170976   -6.5105697     4057.184            4 
   55600   0.89396097   -6.4716314    4052.3297            7 
   55700   0.88263745   -6.4965679    4057.3377           12 
   55800   0.89720928   -6.4816078    4050.0427           12 
   55900    0.8903123   -6.4701745    4061.4235           11 
   56000   0.88430037   -6.5141874    4061.5816           21 
   56100    0.8647814   -6.4835954    4062.9071            8 
   56200    0.8807845   -6.4764858    4082.7605            9 
   56300   0.87827407    -6.512943    4076.2252           11 
   56400   0.87710245   -6.5217846    4067.9727            8 
   56500   0.87005636   -6.5013942    4060.3494            8 
   56600   0.89272337   -6.4942815    4070.9511           12 
   56700    0.9021878    -6.518454    4065.8983           10 
   56800   0.86939683   -6.5077492    4056.1753           11 
   56900   0.86767285   -6.4861275    4065.2313            4 
   57000   0.89023456   -6.5097124    4073.1819           11 
   57100   0.87141885   -6.4891189     4061.786           10 
   57200   0.89496936    -6.479584    4070.9588           11 
   57300   0.87755439   -6.4848952    4056.1775            8 
   57400    0.8709896   -6.4964152    4053.1893            8 
   57500   0.89714337   -6.4986255    4061.1733           10 
   57600   0.87427078   -6.4768406    4068.9882            5 
   57700   0.89420768   -6.5178853    4063.4742            6 
   57800   0.87616811   -6.5219844    4057.9222           11 
   57900    0.8797391   -6.5098667    4064.9514            5 
   58000   0.88604035   -6.5000305    4072.1626            7 
   58100   0.87467263   -6.5128964    4064.0098            9 
   58200   0.84986852   -6.4984057    4057.1763            5 
   58300    0.8822091   -6.5022415    4062.5552            9 
   58400    0.8824928   -6.4910378     4058.591            9 
   58500   0.88675678   -6.4888013    4063.1271           13 
   58600   0.86293726   -6.4780187    4069.6663           11 
   58700   0.88794353   -6.4998699     4067.868            8 
   58800   0.86861618   -6.5165279    4060.7028           10 
   58900   0.88666596   -6.4944905    4059.6423           10 
   59000   0.86826991    -6.466449    4056.8023            7 
   59100   0.89118392   -6.4896285    4055.4535           14 
   59200   0.88250189   -6.4912497    4056.2341           12 
   59300   0.86688294   -6.5036113     4069.885            7 
   59400    0.8616765   -6.4695292    4078.6772            8 
   59500   0.87220718   -6.4634192    4084.3863           13 
   59600    0.8781592   -6.4976076      4081.29            8 
   59700   0.87491319   -6.5191946    4077.8289            9 
   59800   0.87256725   -6.4931738    4074.2362            9 
   59900   0.88120333    -6.465941    4071.7505           10 
   60000   0.87686449   -6.4977979    4059.8372           10 
   60100   0.84697621   -6.4819519     4061.482            8 
   60200   0.88281587     -6.47821    4066.0668            8 
   60300   0.88052558   -6.4828169    4066.1335            5 
   60400   0.88222357   -6.4759404    4061.4811            8 
   60500   0.88497981   -6.4595483    4076.7486            6 
   60600   0.85413029    -6.461194    4071.3755            9 
   60700   0.87225279   -6.4696642    4069.1897            7 
   60800   0.89535688   -6.4736816    4071.8946            7 
   60900   0.88308219   -6.5035782    4068.4555            8 
   61000   0.90206401    -6.485018    4057.1153            6 
   61100   0.89487137   -6.5095717    4039.0965           10 
   61200   0.89374714   -6.5171034    4044.3848            9 
   61300   0.88079788   -6.4728515    4055.1631           12 
   61400   0.86577821   -6.4782669    4065.4374            9 
   61500   0.86900448    -6.497156    4059.8284            6 
   61600   0.88185688   -6.4789345    4068.9863            9 
   61700   0.88877317   -6.4844043    4070.7253           11 
   61800   0.87168215   -6.5048676    4062.2425           11 
   61900   0.88737746   -6.5221396     4063.882           11 
   62000   0.88131072   -6.4711989    4068.0854            8 
   62100   0.88064602   -6.4793477    4059.3639            6 
   62200   0.88225878    -6.478061    4056.4497           10 
   62300   0.89344116   -6.4577845    4059.2299            6 
   62400    0.8890197   -6.4730925    4055.6506            8 
   62500   0.88214344   -6.4828383      4056.79            9 
   62600   0.89569622   -6.4836289    4065.0194            7 
   62700   0.88315449   -6.4636229    4075.5431            6 
   62800   0.89262053   -6.4742099    4076.9786            7 
   62900     0.884221   -6.5092436     4060.434           10 
   63000   0.87231251   -6.5075758    4065.6944            7 
   63100   0.88668892   -6.4897966    4058.1832           11 
   63200   0.87206586   -6.4785951      4055.08            8 
   63300   0.88853723   -6.5084647    4054.6061           12 
   63400   0.88077157     -6.48641    4057.1952            6 
   63500   0.88577254   -6.4714962    4073.6995           14 
   63600   0.87723209   -6.4989152    4066.1592           11 
   63700   0.86986535    -6.508581     4064.833            7 
   63800   0.87676435   -6.4752688    4066.9249           11 
   63900   0.90184398   -6.4580009    4076.7496           25 
   64000   0.89630506   -6.4693805    4070.2425           12 
   64100   0.87646938   -6.4778244    4067.4579           35 
   64200   0.89115018    -6.504144    4058.1826           23 
   64300   0.87008717   -6.5022435    4057.2564           57 
   64400   0.89059329   -6.5059661    4065.2346           14 
   64500   0.88445641   -6.4955599    4058.2178           16 
   64600    0.8719219   -6.5214448    4054.9022           16 
   64700    0.8792532    -6.506634    4058.0364           19 
   64800   0.87773496   -6.5154057    4061.6942           19 
   64900   0.84439713   -6.5214741    4065.6748           27 
   65000   0.86988319   -6.4990074    4074.8454            9 
   65100   0.86909972   -6.4639233    4070.6121           18 
   65200   0.85781887   -6.4785752     4062.817           17 
   65300    0.8629865   -6.4975352    4063.5894           12 
   65400   0.89317269   -6.4902643    4064.3005           14 
   65500   0.88676199   -6.5118397    4061.1478           12 
   65600    0.8669325    -6.504799    4056.0009           12 
   65700    0.8945838   -6.4887378    4065.0754           11 
   65800   0.86851331   -6.4677389    4058.8605           20 
   65900   0.89045333   -6.5288044    4048.7538           19 
   66000    0.8680135   -6.4981952    4050.9658           11 
   66100   0.87683463   -6.4895214    4050.8393            8 
   66200    0.8973323   -6.4760122    4064.9387            5 
   66300   0.89933448   -6.5027151    4068.8496           17 
   66400   0.87102735   -6.4833759    4068.2434            8 
   66500    0.9027389   -6.4887322    4067.4474            7 
   66600   0.88054313   -6.4975906    4076.7873            7 
   66700   0.87735288    -6.470127    4081.7495            8 
   66800   0.85690288   -6.4553187    4081.4885           10 
   66900   0.85868376   -6.4737274    4078.3651            9 
   67000   0.87109491   -6.4748786    4079.6104           11 
   67100   0.86653692   -6.5106144    4071.8739           11 
   67200   0.87282891   -6.4806711    4068.2295           19 
   67300   0.87833473   -6.4651274    4071.5527           17 
   67400   0.87341349   -6.5152704    4069.2773           17 
   67500   0.87134152    -6.504266    4080.3638           10 
   67600    0.8837725   -6.4790752    4067.6138           17 
   67700   0.89045028   -6.5037475    4059.2403           46 
   67800   0.87113758   -6.5155839    4054.6676           33 
   67900    0.8793856   -6.4787641     4057.214           20 
   68000   0.89569647   -6.4823179    4057.6762           23 
   68100   0.87719629   -6.4915019    4049.2551           27 
   68200   0.87277142   -6.4953644    4045.0367           17 
   68300   0.89790984   -6.4941118    4061.9246           18 
   68400   0.89747548   -6.5184185    4052.5604           16 
   68500    0.8891808   -6.5384497    4047.5846           14 
   68600   0.89071451   -6.5125502    4056.3738           27 
   68700   0.88633689   -6.5014996    4062.4103           20 
   68800   0.87125551   -6.5212697    4059.0003           14 
   68900   0.88490394   -6.5340068    4058.8692           10 
   69000   0.86923616   -6.5306091    4062.4206           14 
   69100   0.87768295   -6.4926796    4067.9105           15 
   69200   0.87078138   -6.4644548    4071.6477           23 
   69300   0.86487895   -6.4976778    4072.0919           16 
   69400   0.87158305   -6.5079925     4070.544           15 
   69500   0.86759619   -6.5376743    4065.6949           12 
   69600   0.87014244   -6.5086223    4059.7439            7 
   69700   0.88636472   -6.4875378    4064.7745           11 
   69800   0.89220792   -6.5095715    4061.2416           17 
   69900   0.87909267   -6.5180185    4056.0008           10 
   70000    0.8586294   -6.5212482    4049.5157           14 
   70100   0.88295723   -6.5081557    4059.3396           10 
   70200    0.8647848   -6.5132566    4060.6863           17 
   70300    0.8846014   -6.4951682    4069.7602            9 
   70400   0.87844775   -6.5079559    4063.4885           19 
   70500   0.88347773   -6.5105634    4071.0965           18 
   70600   0.87219221   -6.4611105    4078.8192           10 
   70700   0.87915525   -6.5028217    4065.5306            9 
   70800   0.87662837   -6.5086075    4057.5029           13 
   70900   0.86058806   -6.5239793    4049.0174           13 
   71000   0.86843817     -6.48187    4056.4788           24 
   71100   0.88053993   -6.4975047    4053.5981           24 
   71200   0.86628475   -6.5019066     4050.104           18 
   71300   0.88301206   -6.4871185    4064.6537           10 
   71400   0.87058591   -6.4661193    4063.4091            9 
   71500    0.8964424   -6.5064939    4059.9805           16 
   71600   0.86754278   -6.5089389     4060.897           22 
   71700   0.87277233    -6.493119    4060.3327           32 
   71800   0.89571681   -6.5047206    4060.8782           22 
   71900   0.88549571   -6.5224539    4058.8654           21 
   72000   0.88706473   -6.5148251    4054.4671           31 
   72100   0.88119323   -6.4640618    4057.3314           29 
   72200   0.88743347   -6.4998898    4065.1045           22 
   72300   0.88019695   -6.4988395    4062.1143           21 
   72400   0.86244093   -6.5224856     4059.795           13 
   72500   0.86603471   -6.4868945    4075.8038            7 
   72600   0.88656343    -6.511265    4069.9984           12 
   72700   0.89201051   -6.5218499    4059.3839           19 
   72800    0.8753058   -6.5066762    4048.8909           12 
   72900   0.88674484   -6.4915003    4050.0657            6 
   73000   0.89386613   -6.4753653    4058.0452            7 
   73100   0.87274767   -6.4879728    4052.0211            7 
   73200   0.88372799   -6.5049213    4057.6869            9 
   73300   0.87796165    -6.446723    4064.6378           18 
   73400   0.89248917   -6.4803413    4064.7639           13 
   73500   0.87639688   -6.4973305    4058.9661           16 
   73600   0.88172369   -6.5251471    4064.3488           12 
   73700   0.88189946   -6.4820608    4081.8153           18 
   73800   0.87652937   -6.4752109    4076.6723           11 
   73900   0.86944223   -6.5125596    4065.7744           16 
   74000   0.87021229   -6.5182614    4072.0916           10 
   74100   0.87186776   -6.4976235    4068.8703           11 
   74200   0.88694583   -6.5024253    4072.9793            6 
   74300   0.88552582   -6.4829265    4076.1549            9 
   74400   0.87498788    -6.498784    4050.9831            8 
   74500    0.8821782   -6.4984211    4052.6676            9 
   74600   0.87841591   -6.4908856    4058.6601           12 
   74700   0.89627849   -6.4900757    4075.3607           11 
   74800   0.86917519   -6.4842272    4078.4201           13 
   74900    0.8875396   -6.5268808    4073.9119           17 
   75000   0.86582586   -6.4769199    4057.4018           20 
   75100   0.89426231    -6.504788    4064.0616           34 
   75200   0.86742749   -6.4600028    4055.3739           16 
   75300   0.89739235   -6.4764294    4066.8603           28 
   75400   0.87162533   -6.4849509    4057.0858           30 
   75500   0.87691825   -6.4909693    4053.0977           14 
   75600   0.90264548   -6.4942035    4062.2469           23 
   75700   0.88506729   -6.4779804    4056.9578           11 
   75800   0.88108718   -6.4992095     4058.891           11 
   75900     0.881515   -6.5080505    4070.7464           13 
   76000   0.87099125   -6.5109495    4078.6333           13 
   76100   0.89654485   -6.5171266    4085.7667           12 
   76200   0.86148198   -6.4986591    4071.1151            7 
   76300   0.85976968   -6.5087818    4064.0369           11 
   76400    0.8808634   -6.5020373    4067.3412           10 
   76500    0.8588394   -6.5046214    4062.7866           17 
   76600   0.87251188   -6.4909544    4064.3442           11 
   76700    0.8759519   -6.4765791    4064.3313           13 
   76800   0.89127543   -6.4936591    4064.4099           13 
   76900   0.88318106   -6.5055038    4055.1385           21 
   77000   0.87923906   -6.5055934    4052.9239           38 
   77100    0.8754715   -6.4904665    4070.0258           18 
   77200   0.88238564   -6.4905665    4069.5334           12 
   77300   0.87414458    -6.495642     4067.004           13 
   77400     0.866375   -6.5059423    4062.0724           11 
   77500   0.87346122   -6.4748684    4070.3953            6 
   77600   0.85835049   -6.4641818    4085.8316            9 
   77700   0.86777367   -6.4734386    4079.7978           14 
   77800   0.87976194    -6.498455    4075.5039            8 
   77900   0.85111639   -6.4922309     4055.694           17 
   78000   0.89598346   -6.5304724    4054.8904           12 
   78100    0.8853041   -6.4794371    4053.8194           18 
   78200    0.8998191   -6.4851988    4054.8094           15 
   78300   0.89286623   -6.5174391    4058.6023           25 
   78400   0.87551709   -6.5276472    4058.6279           29 
   78500   0.86137164   -6.5238286    4052.5828           21 
   78600   0.86531115    -6.470798    4060.7896           32 
   78700    0.8830052   -6.4870601    4061.8742           26 
   78800   0.88027335   -6.5080651    4055.7854           26 
   78900   0.88799756    -6.543631    4056.7603           12 
   79000    0.8948642   -6.5079654    4061.2524           12 
   79100   0.86748377   -6.5041801    4050.5003           11 
   79200   0.87612663   -6.5151383    4041.8278           25 
   79300   0.89665099      -6.5261    4046.8442           12 
   79400   0.87611954   -6.5292297    4049.1335           15 
   79500   0.89303198   -6.5147168    4058.5222           12 
   79600   0.86623399   -6.4939087    4065.8903           17 
   79700   0.88537879   -6.4930339      4057.77            7 
   79800   0.87311942   -6.5159571    4055.5203           14 
   79900   0.88475708   -6.5071429    4059.8076           16 
   80000   0.90251778   -6.4978732     4070.559            6 
   80100   0.90226231   -6.5099021    4076.3865            9 
   80200   0.86287478    -6.500362    4068.9639           11 
   80300   0.88265095     -6.50073    4065.0655           14 
   80400   0.86723584   -6.5175291    4051.6011           12 
   80500   0.88005843   -6.4997765    4056.2594           19 
   80600   0.88218849     -6.47268    4062.4224           20 
   80700   0.89080401   -6.4891333    4056.1222           34 
   80800   0.88179581   -6.4796924    4053.5422           15 
   80900   0.86914527   -6.4920676    4052.9218           15 
   81000   0.87170125   -6.5059356    4047.1172           15 
   81100   0.88025278   -6.4821236    4053.7733           16 
   81200   0.88164135   -6.4890837    4058.1437           10 
   81300   0.86746409   -6.5037542    4054.0945           17 
   81400    0.8785481   -6.4862111     4056.897           14 
   81500   0.89786179   -6.4931502    4069.9386            9 
   81600   0.86930763   -6.4750184    4068.2046           16 
   81700   0.88300668   -6.4952662    4065.9196           11 
   81800   0.89126776   -6.4801525    4060.8194           13 
   81900   0.87634109   -6.4979501    4057.1551           14 
   82000   0.89501812   -6.4869304    4053.6356           12 
   82100   0.88073283   -6.5219844    4048.9209           22 
   82200   0.88824407    -6.503471    4055.1444           13 
   82300   0.89214921   -6.5106704    4049.4114           10 
   82400   0.87996219   -6.4984748    4054.6504            5 
   82500   0.87478935   -6.5093132     4065.116            9 
   82600   0.88174812   -6.4944151    4065.8135            5 
   82700   0.85353251   -6.4950272    4070.7788            9 
   82800   0.87942354   -6.4875812    4076.1908            8 
   82900   0.86160627    -6.490909    4074.8109            6 
   83000   0.87701066   -6.5009331    4064.1247           13 
   83100   0.89648882   -6.4811452     4063.856           11 
   83200   0.86999613   -6.4764099    4063.5466           10 
   83300   0.87757775   -6.4990191    4059.1794           12 
   83400    0.8566978   -6.5154813    4056.7701            7 
   83500   0.87535513   -6.5074638    4065.3532            7 
   83600   0.88749631   -6.5019423    4068.2466            8 
   83700   0.88713569   -6.4516003    4069.6601            7 
   83800   0.88552658   -6.4791457    4068.7943            6 
   83900   0.88317211   -6.4936771    4063.3205           13 
   84000   0.87228404   -6.5023257    4054.3398           19 
   84100   0.86485071   -6.4954211    4064.6418           13 
   84200   0.88087166   -6.4886184    4071.9775           22 
   84300   0.86870917   -6.4876462    4075.7944           21 
   84400   0.85859438   -6.4731741    4075.1872           17 
   84500   0.86696386   -6.5004262    4072.6585           11 
   84600   0.88964321   -6.4925199    4070.1899            9 
   84700   0.86778858   -6.5037297    4065.0056            8 
   84800   0.89313303   -6.4906403    4068.6879            6 
   84900   0.89079161   -6.4795213    4061.9093            5 
   85000   0.85786482   -6.4739484    4054.5207           12 
   85100   0.88871338   -6.4986605    4065.6844            9 
   85200   0.90635414   -6.4659124    4071.2752            6 
   85300   0.88148037   -6.4578584    4066.4994           13 
   85400   0.89038474   -6.4906305    4068.1017           11 
   85500   0.87130308   -6.5013747    4050.6037           10 
   85600   0.89457781   -6.4850679    4058.7315           11 
   85700   0.88474678   -6.4760376    4064.3745           12 
   85800   0.86497295   -6.4826698    4065.6629            9 
   85900   0.88592075   -6.4965561    4075.2647           16 
   86000   0.86242454   -6.4819583    4084.9085           15 
   86100   0.86507556   -6.4858445    4081.8433           11 
   86200   0.85387672   -6.5115054    4069.7396            8 
   86300   0.87883613   -6.5069063     4065.698           12 
   86400   0.88929275   -6.4728295    4062.6356           11 
   86500   0.89342228   -6.4777753    4062.1093            6 
   86600   0.87255098   -6.4867967    4058.8263           14 
   86700   0.90084864   -6.4752552    4054.8378           16 
   86800   0.91132478   -6.4489605    4059.6161           13 
   86900   0.88860818   -6.4732798    4055.7435           14 
   87000   0.89844185   -6.4963533    4050.9604           19 
   87100   0.88821214   -6.4906275    4053.1046           13 
   87200   0.88633872   -6.4781803    4059.2985           13 
   87300   0.87551244   -6.4952499    4054.2474           10 
   87400   0.88648731   -6.4779702    4069.0628            5 
   87500   0.89763532   -6.5101132    4071.8287           15 
   87600   0.87473624   -6.4714268    4060.1521           27 
   87700   0.87124536   -6.4972703    4066.4722           23 
   87800   0.86731608   -6.5028657     4058.639           23 
   87900   0.87158685   -6.5249693     4058.716           18 
   88000   0.88584406   -6.5035878    4070.5242           16 
   88100   0.86626085   -6.4760508    4062.4698           24 
   88200   0.88389477   -6.5054141    4051.6577           21 
   88300    0.8745246   -6.5073568    4059.8453           20 
   88400   0.89755796    -6.502055    4079.3658           26 
   88500   0.87081032   -6.4764926    4072.5306           23 
   88600   0.90791389   -6.4885104    4055.2284           23 
   88700   0.87359513   -6.4740547     4052.596           22 
   88800   0.89525136   -6.4807692    4055.8665           16 
   88900   0.89378262   -6.4976062     4062.424           11 
   89000   0.86990205   -6.4929915    4061.5006            7 
   89100   0.87594861   -6.4771839    4067.6503            9 
   89200   0.89184055   -6.4657241    4068.1442           15 
   89300   0.89300171   -6.5079996    4047.1307           12 
   89400   0.87495543   -6.4788162    4058.1297           15 
   89500   0.88662414   -6.4974424    4069.3886           12 
   89600   0.88064082    -6.478529    4064.1804           11 
   89700   0.88057876    -6.486532    4069.4143           13 
   89800   0.87225984   -6.5039271    4058.0298           11 
   89900   0.89237854   -6.4674775    4059.5892           15 
   90000    0.8866819   -6.4702408    4059.8709           22 
   90100   0.87010621   -6.4908358    4059.2268           14 
   90200    0.8906887   -6.5050598    4072.4273           11 
   90300   0.86452978   -6.4923908    4071.7654           15 
   90400   0.87394447   -6.5216821    4062.6184           13 
   90500    0.8708405   -6.5003601    4059.9492           14 
   90600   0.89562985   -6.5057321    4060.8441           18 
   90700   0.84973194   -6.4845377    4058.8954           10 
   90800   0.88887701   -6.5023987     4067.171            8 
   90900   0.86529825   -6.5130739    4071.3019           12 
   91000   0.86391141   -6.5340566    4068.0859           16 
   91100   0.87499467   -6.4988066    4069.6654           12 
   91200   0.86675281   -6.4785785    4068.9603           11 
   91300   0.87992573   -6.5141138    4043.3088            4 
   91400   0.89545752   -6.5175702    4042.0402            8 
   91500   0.87366069   -6.4800087    4047.8994            8 
   91600   0.87498069   -6.5040624    4055.4141           16 
   91700   0.86840744   -6.5047466    4045.4067           11 
   91800     0.890335   -6.5035028    4057.6522           10 
   91900   0.90120414   -6.5140356    4057.9009           13 
   92000   0.85865798   -6.4930843    4055.2745            8 
   92100   0.90540535   -6.5075697    4054.3333           12 
   92200   0.86342383   -6.5009757    4051.4784           14 
   92300   0.88884549    -6.513161    4052.3634           14 
   92400   0.88512832   -6.5190754    4057.3011           12 
   92500   0.86376032   -6.4967603    4056.0437           11 
   92600   0.88739407   -6.5190015    4058.4015           18 
   92700   0.87846159     -6.48591    4062.8328           17 
   92800   0.90720185   -6.4796625     4048.936           16 
   92900    0.8866588   -6.5046862    4047.2553           19 
   93000   0.88832001   -6.5063067    4042.6261           19 
   93100   0.90878858   -6.4943627    4053.2108           15 
   93200   0.88053237   -6.4866237    4055.3119           29 
   93300   0.86623846   -6.5224771    4053.0692            8 
   93400    0.8756051   -6.5161922    4055.7282           12 
   93500   0.86988939   -6.4624416    4073.6209           15 
   93600   0.89117096   -6.5017803    4069.2688           12 
   93700   0.86849907   -6.4845313    4069.8988            9 
   93800   0.87383199   -6.4875227    4074.1435           14 
   93900   0.86252271   -6.5062746    4064.0141            7 
   94000   0.86629159   -6.5052622    4062.2937           15 
   94100   0.87364776   -6.4727745    4067.1633            4 
   94200   0.88142201   -6.4698728    4066.4846            7 
   94300   0.87670242    -6.510708    4064.7887           14 
   94400   0.88640106   -6.4817241    4067.4659            9 
   94500   0.88597184   -6.4928583    4069.3636           12 
   94600   0.88400787   -6.4997816    4072.8276           10 
   94700   0.86808544   -6.4579501    4079.8337           14 
   94800   0.85737236   -6.4919508    4075.2505           11 
   94900   0.86852155   -6.4922185    4067.1278           16 
   95000   0.89345665   -6.5000399    4057.8289           14 
   95100   0.88335207   -6.4861489    4051.9802           14 
   95200   0.90742632   -6.4832883    4050.9663           32 
   95300   0.89312488   -6.4674093    4058.5076           11 
   95400   0.88859198   -6.5089204    4043.1294           25 
   95500   0.88217882   -6.4852427    4050.8645           30 
   95600   0.89601518   -6.4870414     4056.409           22 
   95700    0.8688801   -6.4929275    4052.7716            7 
   95800   0.88199483   -6.4861972    4063.0663           11 
   95900   0.88101548   -6.4683597    4072.8334           10 
   96000   0.88218207   -6.4724206    4060.2995           13 
   96100   0.87944428   -6.4906405    4062.8423            5 
   96200   0.88074571   -6.4709782    4069.1749            7 
   96300   0.89126887    -6.456782    4077.1011            5 
   96400    0.8751778   -6.4708813    4079.6233            7 
   96500   0.88127666   -6.4759348    4076.4718           11 
   96600   0.86674535   -6.4719352    4075.8086            5 
   96700   0.87094858   -6.4907916     4067.352           14 
   96800   0.88674393   -6.4776773    4067.6455            7 
   96900   0.88025931   -6.4733767    4070.4531           10 
   97000   0.87888823   -6.4697606    4061.7057           12 
   97100   0.86970901   -6.4777563    4049.1903            7 
   97200   0.87821845   -6.4995822    4050.1967           18 
   97300   0.88505447   -6.4819491    4058.8348           10 
   97400   0.89307722   -6.4960063    4065.2295           20 
   97500   0.87419093   -6.4867231    4045.8533           15 
   97600   0.88531902   -6.5135713    4052.3486            8 
   97700   0.89522965    -6.503987    4064.8465           10 
   97800   0.88901691   -6.4637948    4076.0038           12 
   97900   0.89175929   -6.4950045    4084.5103           17 
   98000   0.87784925   -6.5118588    4077.9519           17 
   98100   0.87317895   -6.5217167    4066.3676           16 
   98200   0.87121048    -6.492408    4053.6116           19 
   98300   0.88568609   -6.5027828    4060.4641           11 
   98400   0.87708671   -6.5204694    4058.4616            8 
   98500   0.87506883   -6.4938414    4053.2746            8 
   98600   0.87032001   -6.5114549     4050.969            8 
   98700   0.87798731   -6.5300984    4051.7647            7 
   98800   0.88516852   -6.5082257    4060.3094            6 
   98900   0.89489073    -6.508944    4050.3603            9 
   99000   0.87426005    -6.512912    4048.9967            6 
   99100   0.87693542   -6.4872639    4059.9451            7 
   99200   0.88268943   -6.5084555    4058.0285           14 
   99300   0.85202829   -6.4994126    4049.1995           22 
   99400   0.88452782   -6.5116998    4059.1715           14 
   99500    0.8880167   -6.5035793    4074.7536            9 
   99600   0.88880292   -6.4828055    4081.2524            9 
   99700   0.86115016   -6.5085936    4070.1248           12 
   99800   0.87974957   -6.5144704    4069.7331            7 
   99900   0.88692065   -6.4786899    4068.9043           10 
  100000    0.8822667   -6.4806496    4065.3013           10 
  100100   0.88224236   -6.4980346    4064.9901           15 
  100200    0.8767733   -6.5055885    4072.5328            6 
  100300   0.89709335   -6.4812656    4080.7653            7 
  100400   0.88428416   -6.5059322    4062.5872           10 
  100500   0.87280303    -6.502688    4054.9155            8 
  100600   0.89931981   -6.4864561    4058.5056           11 
  100700   0.87471405   -6.4809085    4050.5823           12 
  100800   0.86289879   -6.4903068     4062.882            9 
  100900   0.88174251   -6.4920725    4071.1523           14 
  101000   0.86233116   -6.5014401    4064.9848            8 
  101100   0.87999107   -6.5119005     4065.398            9 
  101200   0.87535652   -6.5008292    4067.2406            9 
  101300   0.85383964   -6.5102562    4064.3289            6 
  101400   0.88101471   -6.4987967    4071.3263            8 
  101500   0.86519804   -6.4738447    4058.8916            7 
  101600   0.87803139   -6.4769861     4054.987            5 
  101700   0.88500667   -6.4608499    4069.0544           16 
  101800    0.8684547   -6.4771264    4077.6279            6 
  101900   0.87599337   -6.5114381    4069.0442           13 
  102000   0.86298114   -6.5404389    4068.9822           14 
  102100   0.88099931    -6.512764    4068.1375           28 
  102200   0.87511773   -6.4782058    4069.9412           13 
  102300   0.89561237   -6.4820298    4068.2695            6 
  102400   0.88997519   -6.4995536    4056.9807            8 
  102500   0.88358154   -6.5112045    4050.3869           19 
  102600   0.87927298   -6.4999666    4050.4397           19 
  102700   0.89083212   -6.4947856    4067.4035           16 
  102800    0.8805273   -6.4822825    4062.7887           17 
  102900    0.8818779   -6.5056049    4059.4026           20 
  103000   0.87550448   -6.4973922    4073.7469           27 
  103100    0.8875695   -6.5070569    4079.9293           10 
  103200    0.8664152   -6.5108792    4064.4416            8 
  103300   0.88616149     -6.52134    4067.4952            6 
  103400   0.87695713   -6.5143231    4062.3534            9 
  103500   0.87374018   -6.5022629    4061.7698           13 
  103600   0.86992674   -6.4797408    4059.1439            9 
  103700   0.89449376   -6.4946181    4055.3587           12 
  103800   0.88225724   -6.5190829     4041.968           14 
  103900   0.89664475   -6.5157303    4044.8329            8 
  104000   0.89312774   -6.4900933    4064.1992            5 
Loop time of 184.09 on 32 procs for 100000 steps with 4000 atoms

Performance: 93867.382 tau/day, 543.214 timesteps/s
99.7% CPU use with 32 MPI tasks x no OpenMP threads

MPI task timing breakdown:
Section |  min time  |  avg time  |  max time  |%varavg| %total
---------------------------------------------------------------
Pair    | 15.781     | 15.928     | 16.211     |   2.4 |  8.65
Neigh   | 1.8169     | 1.8283     | 1.8544     |   0.5 |  0.99
Comm    | 8.2418     | 9.1629     | 10.624     |  16.4 |  4.98
Output  | 4.2682     | 4.2688     | 4.2808     |   0.1 |  2.32
Modify  | 147.76     | 150.61     | 152.14     |   8.4 | 81.81
Other   |            | 2.295      |            |       |  1.25

Nlocal:        125.000 ave         134 max         115 min
Histogram: 2 0 2 5 5 5 7 3 1 2
Nghost:        1928.47 ave        1941 max        1913 min
Histogram: 1 1 2 3 7 5 4 3 3 3
Neighs:        14088.1 ave       15133 max       12760 min
Histogram: 1 1 2 4 3 6 6 5 3 1
FullNghs:      28178.1 ave       30401 max       25731 min
Histogram: 2 1 0 6 7 5 3 5 2 1

Total # of neighbors = 901698
Ave neighs/atom = 225.42450
Neighbor list builds = 5598
Dangerous builds = 0

#clear
#
#next RN
#
#jump SELF
Total wall time: 0:03:05
