
units lj                  # Use reduced LJ style units
atom_style atomic         # Uncharged point particles
atom_modify map hash      # Needed for indexing of clusters etc
                          # Used to be able to find where atoms are in relation to each other.

# Define a lattice with which to populate the simulation cell. With units
# set to 'lj' the second argument to the lattice command is the reduced
# density rho* and the spacings are multiples of that required to acheive
# that density. Also define a simulation cell called 'box' in lattice units
# and fill it with atoms. Here we're creating a box which is ten lattice
# constants in each direction.
lattice fcc 1.0 spacing 1 1 1                 # All equal sizes - gives the right reduced density.
Lattice spacing in x,y,z = 1.5874011 1.5874011 1.5874011

region box block 0 10 0 10 0 10 units lattice # Defines a region, "box", in lattice units
create_box 1 box                              # Creates a simulation box as specified above,
Created orthogonal box = (0.0000000 0.0000000 0.0000000) to (15.874011 15.874011 15.874011)
  2 by 2 by 5 MPI processor grid
                                              # with one type of atom
create_atoms 1 box                            # Creates particles on lattice points
Created 4000 atoms
  using lattice units in orthogonal box = (0.0000000 0.0000000 0.0000000) to (15.874011 15.874011 15.874011)
  create_atoms CPU = 0.002 seconds


# Set the mass of the first (and only) atom type.
mass 1 1.0

# Lennard-Jones interactions between particles, 3.5 sigma cut-off. Apply
# long range tail corrections to energy and pressure and set all coefficients
# to unity since we work in reduced units here. Note that this doesn't shift
# the potential such that it goes to zero at the cutoff. That would require
# pair_modify('shift', 'yes').
pair_style lj/cut  3.5      # non-GPU version
pair_modify tail  yes
pair_coeff 1  1  1.0  1.0   # Intearaction between 1 and 1 set with epsilon = 1 and sigma = 1

write_data data.*
System init for write_data ...
Neighbor list info ...
  update every 1 steps, delay 10 steps, check yes
  max neighbors/atom: 2000, page size: 100000
  master list distance cutoff = 3.8
  ghost atom cutoff = 3.8
  binsize = 1.9, bins = 9 9 9
  1 neighbor lists, perpetual/occasional/extra = 1 0 0
  (1) pair lj/cut, perpetual
      attributes: half, newton on
      pair build: half/bin/atomonly/newton
      stencil: half/bin/3d
      bin: standard

#############################
#   M E L T   S Y S T E M   #
#############################

velocity all create 2.4 5833274 mom yes dist gaussian # Assign velocities
                                                    # Temperature 2.4, random number seed, zero linear momentum
						                                                        # Gaussian distribution

timestep 0.002   # simulation timestep
thermo 100       # output thermodynamic data every 100 steps

# Define a fix  in this case with index 1 applied to all
# particles in the simulation. This fix is for simulations
# in the anisotropic NPT ensemble. Note that we use the MTK
# correction.
fix 1 all npt temp 2.4 2.4 0.1 iso 5.68 5.68 0.5 mtk yes tchain 5 pchain 5 # Use NPT ensemble
                                                                         # Set temperature and pressure and damping
                                                                         # Numbers of thermostats in chain and in barostat
run 1000         # run for 10000 steps
Per MPI rank memory allocation (min/avg/max) = 3.681 | 3.682 | 3.682 Mbytes
Step Temp E_pair E_mol TotEng Press Volume 
       0          2.4   -8.3859253            0   -4.7868253   -2.2405722         4000 
     100    1.2560543   -6.5166947            0   -4.6330842    5.4738617     4090.264 
     200    1.4620147   -6.2944328            0    -4.101959    6.0489469    4141.8953 
     300    1.5805517   -6.0148662            0   -3.6446313    5.8775706    4268.7287 
     400    1.6834669   -5.7107066            0   -3.1861375    5.9071358    4403.4982 
     500    1.7905016   -5.4263411            0   -2.7412601    5.8268731    4549.0839 
     600    1.8978346    -5.162881            0   -2.3168407    5.7228626    4703.0892 
     700    1.9845484    -4.865807            0   -1.8897287     6.002426    4840.6855 
     800    2.1384022    -4.696791            0   -1.4899895    5.9101296    4967.4306 
     900    2.2534752   -4.5516747            0    -1.172307    5.7523082    5085.8653 
    1000    2.3409821   -4.4247023            0  -0.91410702    5.7016656    5179.7126 
Loop time of 0.483575 on 20 procs for 1000 steps with 4000 atoms

Performance: 357338.479 tau/day, 2067.931 timesteps/s
99.6% CPU use with 20 MPI tasks x no OpenMP threads

MPI task timing breakdown:
Section |  min time  |  avg time  |  max time  |%varavg| %total
---------------------------------------------------------------
Pair    | 0.26057    | 0.28071    | 0.30343    |   2.1 | 58.05
Neigh   | 0.050387   | 0.053363   | 0.057345   |   0.8 | 11.04
Comm    | 0.098202   | 0.12223    | 0.14372    |   3.5 | 25.28
Output  | 0.00018835 | 0.00019401 | 0.00025346 |   0.0 |  0.04
Modify  | 0.021758   | 0.02376    | 0.026674   |   1.2 |  4.91
Other   |            | 0.003317   |            |       |  0.69

Nlocal:        200.000 ave         214 max         185 min
Histogram: 1 1 2 4 1 2 4 2 2 1
Nghost:        2060.35 ave        2080 max        2025 min
Histogram: 1 0 0 1 4 0 5 5 0 4
Neighs:        17663.0 ave       19553 max       16156 min
Histogram: 1 3 2 3 4 1 1 4 0 1

Total # of neighbors = 353260
Ave neighs/atom = 88.315000
Neighbor list builds = 87
Dangerous builds = 21

# Equilibrate just above the melting temperature to avoid step fn in T

fix 1 all npt temp 1.25 1.25 0.1 iso 5.68 5.68 0.5 mtk yes tchain 5 pchain 5
run 1000
Per MPI rank memory allocation (min/avg/max) = 3.682 | 3.683 | 3.683 Mbytes
Step Temp E_pair E_mol TotEng Press Volume 
    1000    2.3409821   -4.4247023            0  -0.91410702    5.7016656    5179.7126 
    1100    1.9394202   -4.6489983            0   -1.7405953    5.7043192    5010.4975 
    1200    1.7538302   -4.9709308            0   -2.3408432    5.7068483    4807.0107 
    1300    1.5722219   -5.1950829            0   -2.8373396    5.6802724    4673.3381 
    1400    1.4568845   -5.4057081            0   -3.2209276    5.5567683    4573.8845 
    1500    1.3503547   -5.5212706            0   -3.4962449    5.7302676    4490.7966 
    1600    1.3147643   -5.6482764            0   -3.6766229    5.6898925    4434.2315 
    1700    1.2716924   -5.7297408            0   -3.8226791    5.6958397    4391.1098 
    1800    1.2648862   -5.7893213            0   -3.8924664    5.8003465    4355.9343 
    1900    1.2354209   -5.8175189            0   -3.9648509     5.800932    4342.1233 
    2000    1.2349334    -5.850737            0      -3.9988    5.7262948    4335.4701 
Loop time of 0.472501 on 20 procs for 1000 steps with 4000 atoms

Performance: 365713.188 tau/day, 2116.396 timesteps/s
100.0% CPU use with 20 MPI tasks x no OpenMP threads

MPI task timing breakdown:
Section |  min time  |  avg time  |  max time  |%varavg| %total
---------------------------------------------------------------
Pair    | 0.25663    | 0.27789    | 0.29488    |   2.1 | 58.81
Neigh   | 0.043823   | 0.046555   | 0.050333   |   0.8 |  9.85
Comm    | 0.10132    | 0.12033    | 0.14255    |   3.6 | 25.47
Output  | 0.0001897  | 0.0001955  | 0.00025553 |   0.0 |  0.04
Modify  | 0.021812   | 0.023809   | 0.026239   |   0.9 |  5.04
Other   |            | 0.003717   |            |       |  0.79

Nlocal:        200.000 ave         208 max         193 min
Histogram: 3 2 2 0 3 2 4 1 0 3
Nghost:        2288.05 ave        2299 max        2264 min
Histogram: 1 0 0 2 0 3 2 3 5 4
Neighs:        21066.1 ave       22634 max       19412 min
Histogram: 1 2 3 1 3 1 2 4 2 1

Total # of neighbors = 421322
Ave neighs/atom = 105.33050
Neighbor list builds = 76
Dangerous builds = 7


# Small amount of linear quench

fix 1 all npt temp 1.25 ${temp} 0.1 iso 5.68 5.68 0.5 mtk yes tchain 5 pchain 5
fix 1 all npt temp 1.25 2 0.1 iso 5.68 5.68 0.5 mtk yes tchain 5 pchain 5
run 2000
Per MPI rank memory allocation (min/avg/max) = 3.683 | 3.683 | 3.684 Mbytes
Step Temp E_pair E_mol TotEng Press Volume 
    2000    1.2349334    -5.850737            0      -3.9988    5.7262948    4335.4701 
    2100    1.2668925   -5.8391347            0   -3.9392711    5.5592905    4354.8087 
    2200    1.2850372   -5.7926838            0   -3.8656099     5.562548    4374.9611 
    2300    1.3331277     -5.76816            0   -3.7689685    5.4668319    4399.0017 
    2400    1.3375739   -5.6845846            0   -3.6787253    5.5485807    4429.8295 
    2500    1.4264277   -5.6680811            0   -3.5289744    5.7175041    4429.8665 
    2600     1.435498   -5.5483138            0   -3.3956051    6.1028834    4449.0287 
    2700    1.4515183   -5.4925847            0   -3.3158516     5.831988    4497.4166 
    2800    1.5237528    -5.493524            0   -3.2084662    5.7014063    4516.4022 
    2900    1.5590186   -5.4386607            0   -3.1007174    5.6322348    4551.0019 
    3000    1.5571985   -5.3704372            0   -3.0352235    5.5822694    4590.6335 
    3100    1.6232062   -5.3103986            0    -2.876198    5.8802778    4594.4668 
    3200    1.6636168   -5.2536075            0    -2.758806    5.8303416    4628.3553 
    3300    1.7205415    -5.239087            0     -2.65892    5.7092184    4662.1723 
    3400    1.7485843    -5.176758            0   -2.5545373    5.6417375    4699.3838 
    3500    1.7410011   -5.0686459            0   -2.4577971    5.8516297    4725.6685 
    3600    1.8396752   -5.0664961            0   -2.3076731    5.7590473    4749.6585 
    3700    1.8519545   -5.0240447            0   -2.2468075    5.5712318    4798.9093 
    3800    1.8922399   -4.9666189            0   -2.1289687    5.6605202    4817.8726 
    3900    1.9286781   -4.9120987            0   -2.0198048    5.5964708    4866.8919 
    4000    2.0013546   -4.8807949            0   -1.8795134    5.6947788    4870.4165 
Loop time of 0.928353 on 20 procs for 2000 steps with 4000 atoms

Performance: 372272.377 tau/day, 2154.354 timesteps/s
100.0% CPU use with 20 MPI tasks x no OpenMP threads

MPI task timing breakdown:
Section |  min time  |  avg time  |  max time  |%varavg| %total
---------------------------------------------------------------
Pair    | 0.51819    | 0.55298    | 0.57961    |   2.8 | 59.57
Neigh   | 0.087276   | 0.091734   | 0.098504   |   0.9 |  9.88
Comm    | 0.20153    | 0.2291     | 0.26488    |   4.6 | 24.68
Output  | 0.00036594 | 0.00037536 | 0.00048432 |   0.0 |  0.04
Modify  | 0.040867   | 0.046763   | 0.052649   |   1.8 |  5.04
Other   |            | 0.0074     |            |       |  0.80

Nlocal:        200.000 ave         207 max         194 min
Histogram: 4 1 1 2 0 6 1 3 0 2
Nghost:        2134.55 ave        2149 max        2119 min
Histogram: 2 1 3 2 0 3 3 0 4 2
Neighs:        18764.2 ave       20406 max       16813 min
Histogram: 1 0 4 2 2 1 4 2 2 2

Total # of neighbors = 375284
Ave neighs/atom = 93.821000
Neighbor list builds = 149
Dangerous builds = 3

#############################
# F R E E Z E  S Y S T E M  #
#############################

# Define solid atoms. This closely follows ten Wolde  Ruiz-Montero and Frenkel  Faraday Discuss  1996  104  93-110
# Compute components of the per-atom q6 vector
compute q6 all orientorder/atom degrees 1 6 components 6 nnn NULL cutoff 1.3 # compute the Q6 parameter.
                                                                             # Use all neighbours within 1.3 unit cell.

# get number of connections
compute coord_number all coord/atom orientorder q6 0.5

# An atom is solid if it has 8 or more connections (of a possible 14)
variable is_solid atom c_coord_number>=8
group solid dynamic all var is_solid    # Must be dynamic to update
dynamic group solid defined

# do clustering
compute cluster solid cluster/atom 1.3 # Create a cluster where all atoms within are solid and max 1.3 units from another member

# define chunks one chunk per cluster
compute clus_chunks solid chunk/atom c_cluster nchunk every compress yes  # Says which atoms are in which chunk

# count the size of each chunk
compute size_chunks solid property/chunk clus_chunks count


# Find the maximum entry in the vector of chunk sizes
variable max_n equal max(c_size_chunks)


# Thermo style which includes this variable
thermo_style custom step temp pe vol v_max_n

thermo ${N}  # Print the thermo information every 100 steps
thermo 100  

# Reset the npt fix at a lower temperature (below freezing)
fix 1  all npt temp  ${temp} ${temp}  0.1  iso  5.68  5.68  0.5  mtk yes tchain  5  pchain  5
fix 1  all npt temp  2 ${temp}  0.1  iso  5.68  5.68  0.5  mtk yes tchain  5  pchain  5
fix 1  all npt temp  2 2  0.1  iso  5.68  5.68  0.5  mtk yes tchain  5  pchain  5

dump dmp2 all dcd ${N} traj_${rand}.dcd
dump dmp2 all dcd 100 traj_${rand}.dcd
dump dmp2 all dcd 100 traj_462431.dcd


# fix rnuntil all halt ${N} v_max_n >= 3980 error soft message no   # Stop when solidified


run 100000 # 5000000  # Run for this many steps
Neighbor list info ...
  update every 1 steps, delay 10 steps, check yes
  max neighbors/atom: 2000, page size: 100000
  master list distance cutoff = 3.8
  ghost atom cutoff = 3.8
  binsize = 1.9, bins = 9 9 9
  4 neighbor lists, perpetual/occasional/extra = 1 3 0
  (1) pair lj/cut, perpetual
      attributes: half, newton on
      pair build: half/bin/atomonly/newton
      stencil: half/bin/3d
      bin: standard
  (2) compute orientorder/atom, occasional
      attributes: full, newton on
      pair build: full/bin/atomonly
      stencil: full/bin/3d
      bin: standard
  (3) compute coord/atom, occasional
      attributes: full, newton on
      pair build: full/bin/atomonly
      stencil: full/bin/3d
      bin: standard
  (4) compute cluster/atom, occasional
      attributes: full, newton on
      pair build: full/bin/atomonly
      stencil: full/bin/3d
      bin: standard
Per MPI rank memory allocation (min/avg/max) = 9.486 | 9.492 | 9.496 Mbytes
Step Temp PotEng Volume v_max_n 
    4000    2.0013546   -4.8807949    4870.4165            2 
    4100    2.0022426   -4.8430471    4932.8926            1 
    4200    1.9992302   -4.8080706    4899.8653            1 
    4300    1.9943546   -4.7665135    4913.2955       -1e+20 
    4400    1.9961592   -4.7998576    4938.1805       -1e+20 
    4500     2.002463   -4.7615992    4923.7263            1 
    4600    1.9991618   -4.7624843    4945.1721            1 
    4700    2.0325322   -4.8439366    4922.2437            1 
    4800      1.99186   -4.8250987     4903.735            1 
    4900    2.0032714   -4.7955413    4910.7413            1 
    5000    2.0193499   -4.8427361    4918.7109            1 
    5100    1.9848078   -4.8379837    4909.3365       -1e+20 
    5200    2.0224579   -4.8381678    4899.7602            1 
    5300     2.029269   -4.8086626    4964.1865            1 
    5400    2.0098269    -4.782894    4941.3324       -1e+20 
    5500    2.0327757   -4.7904346    4934.2403            1 
    5600    1.9747238   -4.8171777    4930.7227            2 
    5700    2.0124134   -4.7943107    4891.1316            1 
    5800    2.0086852   -4.7356857    4940.7221            1 
    5900    1.9807338    -4.771244    4948.5788            1 
    6000    2.0275058   -4.7786929    4904.4688            1 
    6100    1.9738048   -4.8318859    4913.9665            1 
    6200    1.9556874   -4.8453522    4901.7093            1 
    6300    2.0144146   -4.7951828    4902.5915            1 
    6400     2.003523   -4.8013995    4927.6671            1 
    6500    1.9975719   -4.7760732    4931.7925            1 
    6600    1.9917463   -4.7650594    4909.9355            1 
    6700    2.0084219   -4.8034239    4942.2444            1 
    6800    2.0011562   -4.8123912    4926.3434            2 
    6900    2.0184056   -4.7493852    4940.1926       -1e+20 
    7000    2.0300953   -4.7851641    4950.6298            1 
    7100    1.9855685   -4.8176643    4937.4289            1 
    7200     1.991438   -4.8052933    4886.2475            1 
    7300    1.9995177   -4.8287821    4898.9403       -1e+20 
    7400    1.9873993   -4.8415245     4930.125            1 
    7500    2.0237933   -4.7589302    4910.4281            1 
    7600    1.9915822   -4.7920507    4958.7821            2 
    7700    2.0330985   -4.7893748    4932.2677            1 
    7800      2.02486   -4.8361209    4916.0507            1 
    7900    2.0157615   -4.8038093    4928.7059            1 
    8000    2.0188675   -4.8093366    4935.8192            1 
    8100    1.9888071    -4.808455    4901.3111            1 
    8200    1.9907425   -4.7536602    4940.6326       -1e+20 
    8300    2.0114855   -4.7748526    4953.1158            1 
    8400    1.9983168   -4.7995566    4884.0304            1 
    8500     1.948983   -4.7898191    4914.4169            2 
    8600    2.0133586   -4.7933223    4935.0197            1 
    8700    1.9640128   -4.7851244     4905.242            1 
    8800    2.0058021   -4.8317388    4903.4665            1 
    8900     2.003519   -4.7962331    4913.9645            1 
    9000    1.9240906   -4.8028244    4925.2049            1 
    9100    2.0300001   -4.8234708    4895.5614            1 
    9200    1.9912012   -4.8369347    4886.7653            1 
    9300    1.9848332   -4.8445312    4916.7484       -1e+20 
    9400    1.9948643    -4.774958    4907.6485            2 
    9500    2.0108691   -4.7890669    4929.2985       -1e+20 
    9600    1.9788844   -4.8175172    4914.3521            1 
    9700    2.0393114   -4.8078967    4909.2799            1 
    9800    1.9566195   -4.7912534    4939.4186            1 
    9900     2.060735    -4.782798    4929.5697            1 
   10000    2.0127011   -4.7958458    4910.7223            1 
   10100    1.9713755   -4.8360619    4924.1759            1 
   10200    2.0130599   -4.7703501    4887.3183            1 
   10300    1.9839439   -4.8185305    4926.7902            1 
   10400    1.9758244   -4.7965101    4918.0528            1 
   10500    2.0092335   -4.7841934    4917.7978            1 
   10600     2.016472   -4.8146156    4937.6824            1 
   10700    1.9609546   -4.7938481    4903.6184            1 
   10800     2.009739   -4.8411105    4902.0149            1 
   10900    1.9947568   -4.8131696    4927.9543            1 
   11000    1.9892449   -4.7768283    4909.4435            1 
   11100    1.9793096   -4.7853238    4902.2071            2 
   11200    2.0010348   -4.7744944    4926.9849       -1e+20 
   11300    2.0139908   -4.7334601    4947.4465            1 
   11400    1.9610186   -4.7750115    4939.3576            1 
   11500    1.9939319   -4.8133362    4904.8709       -1e+20 
   11600    2.0002236   -4.7934596    4923.9075            1 
   11700    1.9953773   -4.7890409    4956.4164            1 
   11800    2.0752983   -4.7670507    4934.1043            1 
   11900    1.9767882   -4.7403586    4958.9425            1 
   12000    1.9829395   -4.7426695    4935.3486            2 
   12100    2.0220873   -4.8012994    4909.8737            1 
   12200    1.9412919   -4.7794159    4912.0139            2 
   12300    2.0234462   -4.7957023    4920.2345            2 
   12400     2.003151   -4.8183529     4923.088            1 
   12500    1.9972791   -4.8996286    4895.9736            1 
   12600    1.9957777   -4.8069325    4899.4155            1 
   12700    2.0337771   -4.8258798    4920.4053            1 
   12800    1.9825492   -4.7987853    4953.8734            4 
   12900    2.0012218    -4.808077    4884.5997            1 
   13000    1.9783282   -4.7882016    4921.4814            1 
   13100    1.9902955   -4.8134416    4939.0334            1 
   13200    2.0172227   -4.7582272    4887.6152            1 
   13300    1.9615246   -4.7434861    4942.2755            1 
   13400      1.99525   -4.7617359    4958.7934            1 
   13500    2.0460842   -4.7736708    4938.6624            1 
   13600    1.9768347   -4.7542444    4969.3988            1 
   13700    2.0043493   -4.7761738    4907.5084            1 
   13800    1.9943668   -4.7889802    4917.1272            2 
   13900    2.0371713   -4.8440114    4963.1193       -1e+20 
   14000    2.0151724    -4.831804    4890.7916            1 
   14100    2.0073161   -4.8185508    4910.1106            1 
   14200    1.9783124   -4.7826801    4936.2633            1 
   14300    1.9986969   -4.7719353    4905.4787            1 
   14400    1.9917755   -4.8113339    4930.2118            1 
   14500    2.0265452   -4.8830454    4884.2992            1 
   14600    1.9815575    -4.873302    4883.1743            1 
   14700    1.9970467   -4.8191962    4903.6854            3 
   14800    2.0275846   -4.7970306    4936.1988            2 
   14900    2.0005923   -4.8057595     4937.232            1 
   15000    2.0160865   -4.8000842    4910.5973            1 
   15100     2.043334   -4.8191866    4926.4571            1 
   15200    1.9697745   -4.8350825    4954.6381            2 
   15300    2.0478729   -4.8003193    4880.4127            1 
   15400    2.0092688   -4.7696345    4944.4126       -1e+20 
   15500    1.9934255   -4.8038702    4922.6887            2 
   15600    2.0062307   -4.8153103    4899.5883            1 
   15700    1.9867367   -4.7909339     4912.778            1 
   15800    1.9927859   -4.7764342    4909.3495            1 
   15900    1.9597914   -4.7891384    4928.8947            1 
   16000    2.0347364    -4.805043    4900.8419            1 
   16100     1.994477   -4.8087773    4913.2997            1 
   16200    1.9568437   -4.8550192    4926.8414            1 
   16300    2.0511662   -4.8568464    4886.2732            1 
   16400    1.9697199   -4.8196066    4901.1893       -1e+20 
   16500    1.9973638   -4.7776162     4943.823            1 
   16600    2.0352518   -4.7737602    4920.8089            1 
   16700    1.9492663   -4.7667188    4941.1281       -1e+20 
   16800    2.0346056   -4.8084321    4926.5735            1 
   16900    2.0102173   -4.8099704    4906.5824            1 
   17000    1.9750206   -4.8087746    4928.3783            1 
   17100    2.0476236   -4.8162418    4897.3705       -1e+20 
   17200    2.0029497   -4.8153842    4916.6436            2 
   17300    1.9830969   -4.8132602    4908.3619            2 
   17400    1.9888843   -4.8030972    4891.7956            1 
   17500    1.9980969     -4.78306    4922.5178            1 
   17600    1.9784304   -4.7808084    4950.9864            1 
   17700    2.0379292   -4.7852904    4940.9282            1 
   17800     1.970225   -4.7418054    4921.1606            1 
   17900    1.9702346   -4.8038805    4928.0941            1 
   18000    2.0406907   -4.8091932    4916.9096            1 
   18100    1.9671693   -4.7915915    4906.2385            1 
   18200    2.0221139   -4.7813756    4921.8625            1 
   18300    1.9640355   -4.7749507    4927.4283       -1e+20 
   18400    2.0101406   -4.8009506    4929.0401            1 
   18500    2.0067965   -4.8122998    4904.1197            1 
   18600    2.0028533   -4.8461052    4902.5221            2 
   18700    2.0158896   -4.8277624    4957.1772            1 
   18800    2.0287704   -4.8040999    4918.1169            1 
   18900    2.0013284   -4.8068769    4909.4869            3 
   19000      1.96072   -4.8005017    4937.9702            1 
   19100     2.024972   -4.7811728    4935.6781            1 
   19200    2.0298858   -4.8051081     4919.486            1 
   19300    2.0024621   -4.8656232    4889.1237            1 
   19400    2.0079521   -4.7949775    4910.4084            1 
   19500    1.9794088   -4.7494042    4949.9124       -1e+20 
   19600    2.0278205   -4.7787691    4935.1866            1 
   19700    1.9794692   -4.7897675    4922.6756            1 
   19800    1.9816684   -4.7859747    4938.2504            1 
   19900    2.0587339   -4.7612131    4939.1988            1 
   20000    2.0016386   -4.7616375    4910.7388            1 
   20100    1.9623086   -4.8174927    4921.2887            1 
   20200    1.9841658   -4.7397598    4920.8741            1 
   20300    2.0184486   -4.7671168    4934.6554            1 
   20400     1.951951   -4.7884369    4926.6192            1 
   20500    1.9986254    -4.798234    4880.7314            2 
   20600    2.0073391   -4.8189682    4897.1737            1 
   20700    1.9676921    -4.806831    4966.5031            1 
   20800    2.0567416   -4.7967051    4909.0818            1 
   20900    2.0012791   -4.8246159    4892.0246       -1e+20 
   21000    1.9481226   -4.8285339    4910.4214            1 
   21100    2.0394747   -4.8156074    4925.5974            1 
   21200    1.9966861   -4.8245268    4931.1081            1 
   21300    1.9791575    -4.850346    4885.6975            1 
   21400    2.0285086   -4.8519665    4908.4848            1 
   21500    1.9953077    -4.803507    4940.6476       -1e+20 
   21600    2.0472048   -4.7832367     4941.525       -1e+20 
   21700    2.0310177   -4.8081377    4912.8678            2 
   21800    1.9706078   -4.8555231    4908.5038            1 
   21900    2.0592434   -4.8688061    4877.6981            1 
   22000    1.9776872   -4.8313833     4913.357       -1e+20 
   22100    1.9948099    -4.838603    4946.7341            2 
   22200    2.0210715   -4.7570138     4891.097       -1e+20 
   22300    1.9634328   -4.7848741    4952.0608            1 
   22400    2.0149164    -4.794859    4894.4592            1 
   22500    2.0189148   -4.8323643    4919.5329            1 
   22600    2.0025521   -4.8285552    4917.3344            1 
   22700    2.0332326   -4.8462394    4890.5626            1 
   22800    1.9752026   -4.8684366    4895.6798            1 
   22900    2.0150769   -4.8580144    4912.8198            1 
   23000    2.0474142   -4.7922425    4904.1131            1 
   23100    1.9689951   -4.8098713    4930.5112            1 
   23200    1.9993647   -4.8204275    4903.7266            1 
   23300    2.0475658   -4.8247163    4918.0341            1 
   23400    1.9741952   -4.7832335    4942.0391            1 
   23500    2.0220696   -4.8033577    4907.9918            1 
   23600    1.9600752    -4.820685    4907.0813            1 
   23700    2.0027686   -4.8261487    4904.2575            1 
   23800    1.9787609   -4.7942341    4896.8284            1 
   23900    1.9795027   -4.7871149    4935.3812            1 
   24000    2.0253822   -4.7856948    4926.6004            1 
   24100    1.9748838   -4.7926787    4930.7739            1 
   24200    2.0032427   -4.8071771    4909.0639            1 
   24300    1.9932744   -4.7948541    4907.3195            1 
   24400    1.9759494   -4.7671499    4950.8055            1 
   24500    2.0367588   -4.7488887    4929.3027            1 
   24600    2.0026328   -4.7652725    4935.1866            1 
   24700    1.9367643   -4.7877725    4932.9901            1 
   24800     2.018454   -4.8072951    4887.7552            2 
   24900     1.988338   -4.7595398    4919.8018            1 
   25000    2.0233846   -4.8305186    4957.5463            1 
   25100    1.9938635    -4.804661     4895.352            2 
   25200     1.988837   -4.7895579    4916.0382            1 
   25300    2.0300461   -4.8241771     4960.096            1 
   25400    1.9997784   -4.8193826    4917.6544            1 
   25500    2.0376996   -4.8303214    4894.8142            1 
   25600    1.9242767   -4.7762858    4924.5905            1 
   25700    1.9991985   -4.7874758    4944.2502       -1e+20 
   25800    2.0367629   -4.7615417    4938.8272            1 
   25900    1.9784659   -4.7960035     4930.202            1 
   26000    1.9867545   -4.7680568    4924.5172            1 
   26100    1.9984876   -4.7662763    4928.2528            1 
   26200    2.0050992   -4.7847644    4932.7424            1 
   26300    1.9965704    -4.834717    4881.9549            1 
   26400    2.0007626   -4.8438553    4930.2944            1 
   26500    2.0096769   -4.7854877    4922.9471            1 
   26600    1.9904813      -4.7973    4904.0771            3 
   26700    1.9627489   -4.7885165    4921.8932            1 
   26800    2.0107633   -4.7778763    4941.6938            1 
   26900    1.9715313   -4.7702546    4912.3872       -1e+20 
   27000    2.0184882    -4.792447    4933.5892            1 
   27100    2.0211501   -4.8038851    4917.5606            1 
   27200    1.9498324   -4.7536385     4936.347            1 
   27300    2.0413126   -4.7867414    4926.9005            1 
   27400    1.9683662   -4.7559597     4928.619       -1e+20 
   27500    1.9894941   -4.7844519    4905.0047            2 
   27600    2.0069293   -4.8676565    4902.5475            1 
   27700    1.9781735   -4.7921251    4932.2078            1 
   27800    2.0230884   -4.7873305    4901.0143       -1e+20 
   27900    1.9701336   -4.8061563    4937.5502            1 
   28000    2.0051049   -4.7925066    4903.6899            1 
   28100    2.0305907   -4.8514099    4925.2169            1 
   28200    1.9854937   -4.8196344    4938.1917            2 
   28300    2.0990749   -4.8276235    4902.7203            1 
   28400    1.9551015   -4.7873521    4946.7663       -1e+20 
   28500    1.9756053   -4.8088518    4924.1877            2 
   28600    2.0373666   -4.7852419    4894.1596            2 
   28700    1.9981467   -4.8514377    4922.0633            1 
   28800    2.0311714   -4.8298276    4923.1497            2 
   28900    1.9964618   -4.7464885    4947.6641            3 
   29000    1.9679109   -4.7721536    4880.1138            1 
   29100    1.9891423   -4.8211069    4930.4689       -1e+20 
   29200    1.9882043   -4.7772588    4932.6473            2 
   29300    2.0265071   -4.7563911    4940.2664            1 
   29400    1.9958586   -4.7542194    4925.6703            1 
   29500    1.9826929   -4.7944001    4928.6114            1 
   29600    2.0440179   -4.7649175    4915.1376            1 
   29700    1.9863148   -4.7807399    4939.7193            1 
   29800    1.9620657   -4.7898521    4911.7196            1 
   29900    2.0263417   -4.8036188    4905.9017            1 
   30000    1.9854533   -4.8017793    4926.4692            1 
   30100    2.0104506   -4.7700793    4930.4123            1 
   30200    2.0446024   -4.7463307    4959.6988            1 
   30300    1.9935926   -4.7644127    4928.7615            1 
   30400     2.013382   -4.7954344    4950.6663            2 
   30500    2.0086418   -4.7753595    4943.2993            2 
   30600     1.998686   -4.7924383    4888.2721            1 
   30700    1.9771528   -4.8193921    4905.9582            1 
   30800    1.9653554   -4.8398487    4894.9451            1 
   30900    2.0274975   -4.8207637    4905.5188            1 
   31000    1.9478316   -4.7412568    4947.0217            2 
   31100    2.0149188   -4.7576552    4932.9374            1 
   31200    1.9807897   -4.7793789    4916.4412            2 
   31300    1.9455379   -4.8288563    4898.4569       -1e+20 
   31400    1.9965005   -4.7980797    4913.1263            1 
   31500     2.010566     -4.74505    4930.4763            1 
   31600    1.9732693     -4.74813    4945.8504            2 
   31700    1.9926459   -4.7735568    4918.0094            1 
   31800    2.0002737   -4.8319471    4905.4172       -1e+20 
   31900    1.9754004   -4.7708027    4941.6028            1 
   32000    2.0234547    -4.769765    4912.0114            1 
   32100    1.9660441    -4.785019    4916.1023            1 
   32200    2.0333361   -4.8049906     4944.152            2 
   32300     2.006682    -4.803326    4942.4614            1 
   32400    1.9983779   -4.8259618    4898.2694            1 
   32500    1.9974264   -4.7625557    4910.4019            1 
   32600    1.9832213   -4.7795518    4950.5929            1 
   32700    1.9861992   -4.7901624    4899.5568            1 
   32800    1.9776419   -4.7635149    4877.6468            1 
   32900      1.98368   -4.7872491    4963.4697            1 
   33000    2.0331813   -4.7323188    4930.7481            1 
   33100    2.0048803   -4.7741596    4936.6234            1 
   33200    1.9678873   -4.8152266    4929.2151            1 
   33300    1.9939771   -4.7512319     4920.186            1 
   33400    2.0100391   -4.7886632    4925.5293            2 
   33500    1.9665606   -4.8191773    4914.3337       -1e+20 
   33600    2.0286051   -4.8099153     4907.995            1 
   33700    1.9708908   -4.7661128    4946.2117            2 
   33800     2.025194   -4.7898652    4942.3157            2 
   33900    2.0033508     -4.78976    4901.0434       -1e+20 
   34000    1.9920347   -4.7866698    4928.1433            1 
   34100    2.0053576   -4.8140585    4916.6974            1 
   34200    2.0029972   -4.7996184    4904.0041            1 
   34300      1.97258   -4.7779907    4927.9558       -1e+20 
   34400    1.9766311   -4.7886131    4906.0998            1 
   34500     2.043564   -4.8524222    4924.4161            1 
   34600    1.9883783   -4.8485602    4896.3958            1 
   34700     2.003336   -4.8082333    4919.0815            1 
   34800    2.0072593   -4.7614051     4952.787            1 
   34900    2.0004434    -4.773897    4929.0618            1 
   35000    1.9834718   -4.7735384    4918.3492            1 
   35100    1.9640771   -4.7881647     4930.682       -1e+20 
   35200    2.0067652   -4.7378653    4921.0355            1 
   35300    1.9449846   -4.7865071    4929.8599            1 
   35400    1.9853142   -4.8161966    4908.6692            1 
   35500    1.9789019   -4.7149755    4945.8967            1 
   35600    2.0127666   -4.7604307    4922.6317            2 
   35700    1.9788915   -4.7991088    4913.5081            1 
   35800    1.9362266   -4.7799642    4922.5622            1 
   35900    2.0169436   -4.7588269     4909.778            1 
   36000    1.9708697   -4.7923715     4910.682       -1e+20 
   36100    1.9768814   -4.7910403    4932.0688            1 
   36200    2.0052547   -4.8015853    4904.5911            1 
   36300    1.9701078   -4.7734022    4914.9946            1 
   36400     1.971963   -4.8229006    4931.6693            1 
   36500    2.0444559    -4.802537    4892.4313            1 
   36600    1.9763561   -4.7744062    4945.8036            1 
   36700    2.0482404   -4.7972582    4932.2344            1 
   36800    2.0112329   -4.8171832    4905.7542            1 
   36900    1.9849571   -4.8629602    4924.2163            2 
   37000    2.0001203   -4.7510793    4935.3732            3 
   37100    2.0030965    -4.768209    4936.6083       -1e+20 
   37200    1.9697525   -4.8013124    4908.1562            1 
   37300    2.0320318   -4.8060816    4920.2597            1 
   37400    1.9671239   -4.7956519    4926.3105            1 
   37500     2.020911   -4.8115793    4918.1207            1 
   37600    1.9633265   -4.8042966    4903.8249            1 
   37700    1.9798343   -4.8338201    4893.6219            1 
   37800    2.0356585   -4.8293547    4930.0806            1 
   37900    1.9728966   -4.7974345      4903.23            1 
   38000    1.9987851    -4.806762    4889.6852            1 
   38100    2.0172094   -4.7938143     4940.081            1 
   38200    2.0040213   -4.8131077    4945.6383            1 
   38300    2.0311399   -4.8270723    4893.1505            1 
   38400    1.9723185    -4.840243    4909.2701            1 
   38500    1.9873471   -4.8290862    4913.0872            1 
   38600    1.9986084   -4.7717171    4920.7569            1 
   38700    2.0027809   -4.7525537    4941.6974            1 
   38800    1.9746096   -4.7704373    4932.8179            1 
   38900    2.0331753   -4.7880806    4916.3699            1 
   39000    1.9884412   -4.8442715    4934.1896       -1e+20 
   39100    2.0125775   -4.7782294    4905.3095            1 
   39200    2.0071824   -4.8015054     4936.541            1 
   39300    2.0260818   -4.7983821    4959.1081            1 
   39400    1.9839978   -4.7844802    4927.4723       -1e+20 
   39500     1.991471   -4.7562735    4916.5487            1 
   39600    1.9741168   -4.8033375     4918.238       -1e+20 
   39700    1.9996047   -4.8121662     4931.325            2 
   39800    2.0098608   -4.8142753    4905.4411            1 
   39900    2.0216311   -4.7850987    4914.0928            1 
   40000    1.9745584   -4.8297364    4922.6787            1 
   40100    1.9841232   -4.7989914    4878.2891            1 
   40200    1.9861718   -4.7652875    4908.8721            1 
   40300    1.9624443   -4.7816787    4919.2642       -1e+20 
   40400      2.00993   -4.7672548    4906.8421            1 
   40500    2.0404522   -4.7470781    4947.6034       -1e+20 
   40600    2.0113753   -4.8100397    4947.9548            1 
   40700    1.9903749   -4.7910029    4902.3485            1 
   40800     2.007965   -4.8389315    4900.7826            1 
   40900    1.9607795   -4.7963706    4925.6193            1 
   41000    2.0580517   -4.7916094     4893.264            1 
   41100     1.949871    -4.801236    4961.2544            1 
   41200    2.0108378    -4.809874    4907.1074            2 
   41300      2.00904   -4.7764582    4919.1745            1 
   41400    1.9945737   -4.7785939    4940.5379            1 
   41500    2.0052322   -4.8008954    4910.3694            1 
   41600    1.9607575   -4.8020597    4931.3575            1 
   41700    2.0150753   -4.8077454    4905.4335            2 
   41800    2.0131448   -4.7900716    4929.6429            1 
   41900    1.9897897   -4.7737154    4947.2131            1 
   42000    2.0183328   -4.8176111    4929.8623       -1e+20 
   42100    2.0598453   -4.7690606    4939.7608            1 
   42200    2.0024863   -4.7743591     4947.692            1 
   42300    2.0034616    -4.813976    4918.5945            1 
   42400    1.9396094    -4.809083    4886.9916            2 
   42500      2.00885   -4.8260862    4937.4636       -1e+20 
   42600    2.0392213   -4.7652474    4907.1898            1 
   42700    1.9510687    -4.776381    4942.6204       -1e+20 
   42800    1.9960402   -4.8060791    4911.2694            1 
   42900    1.9865642   -4.7687015     4921.524            1 
   43000    2.0137825   -4.7832475    4938.3549            2 
   43100    1.9698708   -4.8253107    4917.4742       -1e+20 
   43200    1.9812951    -4.792562    4913.5963            1 
   43300    2.0099758   -4.7638898    4934.3861       -1e+20 
   43400    1.9650114   -4.7466063    4933.2657            1 
   43500    2.0567421   -4.8149743    4906.0036            1 
   43600    1.9809511   -4.8124695    4932.9105            2 
   43700    2.0171027   -4.8286451    4909.7755            1 
   43800    2.0085097   -4.8238696     4916.332            1 
   43900    1.9950483   -4.7998963    4926.6907            1 
   44000     1.993733   -4.7854691    4908.9788            1 
   44100    2.0041526   -4.7822868     4953.517            1 
   44200    1.9935577   -4.8319265     4899.932       -1e+20 
   44300    2.0101005   -4.7996607    4911.3408            1 
   44400    1.9901329   -4.8355816    4904.8746            1 
   44500    2.0129441   -4.8376884    4890.8877       -1e+20 
   44600    1.9429891   -4.7991499    4904.7675            1 
   44700    2.0140754   -4.8048494    4911.2858            1 
   44800    1.9845655   -4.7679489    4911.5756            1 
   44900    1.9779891   -4.8076077     4943.784            2 
   45000    2.0425183   -4.8234458    4885.8969       -1e+20 
   45100    1.9931997   -4.8657813    4900.1285       -1e+20 
   45200    1.9739828   -4.7821174    4919.5908            1 
   45300    2.0525063   -4.7896492    4926.7499       -1e+20 
   45400    2.0065673   -4.8022144    4941.2931       -1e+20 
   45500    1.9779926   -4.7893364     4912.494            1 
   45600    2.0281327   -4.8272583    4894.0297            1 
   45700     2.011034   -4.8665562    4936.8961            1 
   45800    1.9998994   -4.7876872    4888.3762            1 
   45900    2.0181231   -4.7862939    4948.5746            1 
   46000    2.0313554   -4.8083565     4925.126            1 
   46100    1.9958098   -4.8044298    4925.5299            1 
   46200    2.0328388   -4.8293219    4935.8889            1 
   46300    2.0017681   -4.8250079    4888.7208            1 
   46400    1.9956568   -4.8096581    4927.7166            1 
   46500    2.0127233   -4.8076907     4907.391            2 
   46600    2.0096204   -4.8655232    4905.9517       -1e+20 
   46700    2.0084722   -4.8311534    4897.1298            1 
   46800    2.0265467   -4.8016692    4905.5091            1 
   46900    1.9882808   -4.8284273    4943.6158            1 
   47000    1.9788312   -4.7993162      4897.15            1 
   47100    2.0161726   -4.8529249    4878.2675            1 
   47200    1.9792846   -4.7663504    4941.5713            1 
   47300    2.0234412   -4.7694309    4956.2385            1 
   47400    2.0009684   -4.8042957    4933.7979            1 
   47500     1.967867   -4.8247942    4906.6793       -1e+20 
   47600    2.0057911   -4.8326416    4874.7261            1 
   47700    1.9860032   -4.8013977    4914.8596            1 
   47800    1.9922927   -4.8037907     4924.071            1 
   47900    1.9790792   -4.7900813    4897.2356       -1e+20 
   48000    1.9957518   -4.8203195    4894.8115            1 
   48100    1.9949325   -4.7961837    4946.6412            1 
   48200    2.0941299   -4.7952826    4933.9073            1 
   48300    2.0063572   -4.7983595    4934.3849            1 
   48400    1.9730457   -4.7888356    4906.2355            1 
   48500    1.9694804   -4.7988885    4927.3632            1 
   48600     1.980559   -4.7337748    4920.2511       -1e+20 
   48700    2.0792738   -4.7611357    4930.3487            1 
   48800    1.9960985   -4.7899669    4987.7753            2 
   48900     2.016746    -4.813305    4915.8533       -1e+20 
   49000    2.0108005   -4.8326179    4909.0939            1 
   49100    2.0101819   -4.8081084    4922.7058            1 
   49200    1.9912149   -4.8033661    4910.8823            2 
   49300     2.017338   -4.7791187    4937.8036            1 
   49400    1.9669823   -4.7970091    4923.0111            1 
   49500     2.013932   -4.8431785     4890.855            1 
   49600    2.0102235   -4.8022575    4887.1385            1 
   49700    1.9344706   -4.7957537    4931.5323            1 
   49800    2.0340768   -4.8149435    4921.0161            1 
   49900    2.0234226   -4.7927138    4919.0561            1 
   50000    1.9869412   -4.8661465     4929.312            1 
   50100     1.971349   -4.7441058    4893.1993            1 
   50200    2.0224881   -4.7388885    4927.9392            1 
   50300    1.9593774   -4.8106208    4953.6396            1 
   50400    1.9996254   -4.7923242    4917.0061            1 
   50500    1.9777022   -4.7662512    4903.6679            1 
   50600    1.9753622   -4.8157775    4915.1804            1 
   50700    2.0487538   -4.8290487    4921.8506            1 
   50800    2.0074511   -4.8346887    4921.1065            1 
   50900    1.9619068   -4.8387293    4911.2993       -1e+20 
   51000    2.0238641   -4.8112928    4893.8223            1 
   51100    1.9605662   -4.7954696    4926.7174            1 
   51200    2.0089713     -4.78378    4949.8793            1 
   51300    2.0636472   -4.7899446    4926.0938            1 
   51400    1.9667056   -4.8103942    4946.2691            1 
   51500    2.0353004   -4.8130875    4898.4279       -1e+20 
   51600    1.9797572   -4.7853869    4955.3049       -1e+20 
   51700    2.0080155   -4.7854792    4933.2416            2 
   51800    2.0435331   -4.8535532    4894.8945            1 
   51900    1.9407996   -4.8258163    4921.5193            1 
   52000    2.0089042   -4.8169277    4920.2965            1 
   52100    2.0263908   -4.7821542    4908.6307            1 
   52200    1.9821189    -4.854918     4920.526       -1e+20 
   52300    2.0086167   -4.8252892    4904.7422            1 
   52400    1.9925526   -4.7822523    4909.5574            1 
   52500    2.0086401   -4.7989021    4925.6188            1 
   52600    1.9950767   -4.7711248     4943.851       -1e+20 
   52700    2.0217531   -4.7688361    4945.2409            1 
   52800    1.9927971   -4.7897401    4899.4597            1 
   52900     1.991324   -4.7741383    4933.5302       -1e+20 
   53000      2.04586   -4.8230152    4922.6871            1 
   53100    1.9817029   -4.7956643     4898.498            1 
   53200    1.9782105   -4.8214804    4895.2068            1 
   53300    2.0189198   -4.8110349    4924.3247            1 
   53400    2.0416131    -4.778458     4929.532            1 
   53500    1.9869201   -4.8123452    4942.7905            1 
   53600    2.0054012   -4.7600024    4911.9815            1 
   53700    1.9570292   -4.7736386    4938.9345            1 
   53800     2.012809   -4.7910189    4943.6512            1 
   53900     1.994532   -4.7673628    4909.5433            1 
   54000    1.9631905   -4.8232977    4916.0964            1 
   54100    1.9983862   -4.8176842    4926.3577            1 
   54200    2.0256549   -4.8008241    4888.1768            1 
   54300    1.9867639   -4.8184515    4929.4672            1 
   54400    1.9949349   -4.7984654    4947.1865       -1e+20 
   54500    2.0293761   -4.7744679    4902.1958            2 
   54600    1.9430802   -4.7833523    4929.3643            1 
   54700    2.0184429    -4.800566     4920.782            1 
   54800    1.9967989   -4.8347283    4916.6021            1 
   54900    2.0206918    -4.823278    4934.5295            1 
   55000    1.9839596   -4.7647068    4929.8061            1 
   55100    1.9731588   -4.8240202    4878.0026            4 
   55200    2.0127241   -4.8458486    4906.4065            1 
   55300    1.9820055   -4.8106961    4917.5457       -1e+20 
   55400    2.0351038   -4.8036963    4906.8943            1 
   55500    1.9711614   -4.8418971    4929.5957            3 
   55600    2.0122372   -4.7950504    4926.2312       -1e+20 
   55700    2.0223262   -4.7619107    4938.8732       -1e+20 
   55800    1.9976686   -4.8161116    4928.9648            1 
   55900    2.0015129   -4.8243482    4923.1385            1 
   56000    2.0401672   -4.8036467    4940.2478            1 
   56100    1.9929762   -4.7983978     4912.152            1 
   56200    1.9920067   -4.7826623    4908.6499       -1e+20 
   56300    1.9995614   -4.7538117    4972.5204            1 
   56400    2.0291264   -4.7752471    4932.2566            1 
   56500    1.9984358   -4.7924544    4925.0527            1 
   56600    1.9779644   -4.8202307    4924.9346       -1e+20 
   56700    2.0466831   -4.7826827    4909.0443            1 
   56800    1.9853544   -4.8029647    4925.5557            1 
   56900     1.951092   -4.7843802    4923.2487            1 
   57000      2.03907   -4.7748813    4891.3192            1 
   57100    1.9611058   -4.7941951    4945.5624            1 
   57200    2.0318286   -4.7662167    4941.2951       -1e+20 
   57300    2.0366134   -4.7781361    4942.2088            1 
   57400    1.9974792   -4.8047874    4924.1514            1 
   57500    1.9901868   -4.8256958    4894.8336            2 
   57600     2.032795   -4.7978772    4916.5036            1 
   57700    1.9903811    -4.790153    4928.4177            1 
   57800    1.9263125   -4.8207271    4894.0699            1 
   57900    2.0312572   -4.8614868    4879.0028            1 
   58000    2.0087032   -4.8360522     4907.921            2 
   58100    1.9417201   -4.8502638     4911.547            1 
   58200    2.0232914   -4.8214754    4869.2295            1 
   58300    1.9756133   -4.8035511    4919.4245            2 
   58400    1.9940039    -4.796605    4945.2806            1 
   58500    2.0329958   -4.7980796    4878.5763       -1e+20 
   58600    1.9923637   -4.8177782    4928.7163       -1e+20 
   58700    2.0039641   -4.7979265    4927.0639            1 
   58800    1.9935534   -4.8194769    4888.7495            3 
   58900    1.9649279   -4.7932147    4917.6784            2 
   59000    2.0010624   -4.7758886    4913.4536            1 
   59100     1.993603   -4.7753993    4903.4233            1 
   59200    1.9528393   -4.7811212    4920.1627            1 
   59300    2.0453129   -4.7768415    4915.4636            1 
   59400    1.9828645   -4.7590549    4946.2939       -1e+20 
   59500    2.0150266   -4.7391421    4962.9001            1 
   59600    2.0249836   -4.7342392     4950.409            1 
   59700    1.9604789   -4.7581082    4949.4481            1 
   59800    2.0317267    -4.848019    4895.4122       -1e+20 
   59900    1.9975041   -4.8052849    4900.3226            1 
   60000    1.9725677   -4.8102643    4929.5844            1 
   60100      2.03845    -4.787699    4909.6905       -1e+20 
   60200    2.0236732   -4.7791269    4955.6983            1 
   60300    1.9694899   -4.7773331    4945.0191            1 
   60400     2.016445   -4.7810917    4904.3219            1 
   60500    1.9999671    -4.819885    4942.6469            3 
   60600    2.0060221   -4.7853874    4939.3223            1 
   60700    2.0273674   -4.8287967    4904.5797            1 
   60800    1.9888322   -4.8188617    4919.0801            1 
   60900    2.0228514   -4.7634117    4930.6503            1 
   61000    1.9932072   -4.7856882    4912.3165            1 
   61100    2.0049668   -4.8123045    4938.1547            1 
   61200    2.0169221   -4.8273558    4927.9113            1 
   61300    1.9760048   -4.8059448    4888.7467            1 
   61400    1.9894632   -4.8610545    4885.9898            1 
   61500    1.9829203   -4.7885364    4944.3032            1 
   61600    2.0059234   -4.7699746    4921.3986            1 
   61700    2.0112803   -4.8101847    4908.1207            1 
   61800    1.9865059   -4.7979655    4946.7977            1 
   61900    2.0051443   -4.8378111    4911.6536            1 
   62000    2.0150756   -4.8028691    4904.1769            1 
   62100    1.9912734     -4.78933    4949.9419            1 
   62200    2.0367841   -4.7386738    4937.2007            2 
   62300    1.9919705   -4.7686004    4927.8952            1 
   62400    1.9985594    -4.800626    4925.6188            1 
   62500    1.9729842   -4.8060046    4914.6798            1 
   62600    2.0310929   -4.7801887    4907.2761            1 
   62700    1.9767706   -4.7939086    4939.8533            1 
   62800    2.0231946   -4.8295216    4922.7223            1 
   62900    2.0033344   -4.7587412    4905.9325            1 
   63000    1.9959067    -4.777836    4949.0727       -1e+20 
   63100    1.9805272   -4.7833028    4923.8926            1 
   63200    1.9835293   -4.7958668    4904.8905            2 
   63300    2.0050475   -4.7747445    4930.0786            1 
   63400    1.9872529   -4.7745972    4945.7778            1 
   63500    1.9729094   -4.7282217    4950.6557            1 
   63600    2.0487255    -4.749451      4908.24            1 
   63700    1.9394095   -4.7657949    4958.1702       -1e+20 
   63800    1.9895213   -4.7318689    4929.3258            2 
   63900    2.0174463   -4.7593221    4914.9587            1 
   64000    1.9715033   -4.7858663    4945.6695            1 
   64100    1.9959791   -4.8109309    4902.9848            1 
   64200    2.0038031   -4.7725171    4918.8426            1 
   64300    1.9864922   -4.7589737    4969.9886            1 
   64400    1.9945534   -4.7710737    4922.6468            1 
   64500    2.0107343   -4.7760348    4906.1946            1 
   64600    1.9177998   -4.7970775    4936.7763            1 
   64700     2.037326   -4.8596495    4880.9858            2 
   64800    1.9818605   -4.7980433    4911.0752            1 
   64900    2.0008401   -4.7995914    4937.3136            1 
   65000    2.0360115   -4.8177933    4928.3561            1 
   65100    1.9785649   -4.7842167    4918.0318            1 
   65200    2.0023684   -4.8348384    4905.5836            2 
   65300    2.0253392   -4.7787981    4915.9464            1 
   65400     2.000134   -4.7180804    4988.9106            1 
   65500    2.0255228   -4.7668936    4934.0768            1 
   65600    1.9997547    -4.807919    4933.6078       -1e+20 
   65700    2.0448698   -4.7619427    4944.2081            1 
   65800    1.9945535   -4.7329804     4959.751            2 
   65900    1.9997641   -4.7793595    4936.3504            1 
   66000    2.0047618   -4.7966607    4910.9794            1 
   66100    1.9894429   -4.7759964    4920.9532            1 
   66200    1.9935801   -4.7937784    4915.9272       -1e+20 
   66300    2.0012774   -4.8142155    4897.4972       -1e+20 
   66400    1.9916058   -4.8275459    4910.3472            1 
   66500    1.9924007   -4.8301698    4887.3028            1 
   66600    1.9808807   -4.8010885    4917.6766       -1e+20 
   66700    2.0326711   -4.7956183    4917.1991            1 
   66800    1.9671963   -4.8099133    4920.8065            1 
   66900    1.9804803   -4.8519538    4887.3307            1 
   67000     1.972816   -4.8182023    4882.3817            1 
   67100      2.00638   -4.8202783    4912.1169            1 
   67200    1.9435861   -4.8212432    4909.6495            1 
   67300    2.0266035   -4.8419052    4898.2959            1 
   67400    1.9800432   -4.8169575    4917.3302            1 
   67500    2.0009978   -4.7578727    4927.8323            2 
   67600    2.0402903   -4.7572613    4945.0731            2 
   67700    2.0024986   -4.8253338    4919.4247            1 
   67800    2.0033485   -4.8143549     4909.844            1 
   67900    2.0320633   -4.8026827    4965.2423            1 
   68000    2.0319076   -4.8146097    4916.6881       -1e+20 
   68100     1.988236    -4.802795    4894.5503            1 
   68200    2.0008257   -4.7754578    4919.8458            1 
   68300    1.9875465   -4.8230983    4945.9507            1 
   68400    2.0619474    -4.782906     4924.054            2 
   68500    1.9988071   -4.7719465    4947.7872       -1e+20 
   68600    1.9805441   -4.8268969    4916.0148            1 
   68700    2.0420942   -4.8158975    4909.7632            2 
   68800    1.9793425   -4.8236643     4941.939            1 
   68900     2.051105   -4.7806649    4922.2884            2 
   69000    2.0104401   -4.7679726    4916.8175       -1e+20 
   69100    1.9640627   -4.8282926    4930.4384            1 
   69200    2.0325433   -4.8259293    4882.9226            1 
   69300    1.9794476    -4.839154    4894.7003            1 
   69400    1.9457822   -4.8049002    4919.9915            2 
   69500    2.0313605   -4.7875269    4926.2928            1 
   69600    1.9918908   -4.8313505    4920.6202            1 
   69700    1.9659411   -4.7651565    4903.0787            1 
   69800    2.0124015    -4.753272    4939.0585            1 
   69900    1.9847304   -4.7393885    4917.2075            2 
   70000    2.0029431   -4.8496016    4915.7536            1 
   70100    2.0203864   -4.7903249    4915.5257            1 
   70200    2.0085875   -4.7636065    4965.6984            1 
   70300    2.0125294   -4.8036489    4942.7978            1 
   70400    2.0044267   -4.7806301    4904.9393            1 
   70500    2.0314891   -4.8148925    4930.0307            1 
   70600    1.9690762   -4.7915672    4944.7456            2 
   70700    1.9961031   -4.7678919    4892.9557            1 
   70800    1.9550786   -4.7966775     4908.689            1 
   70900    2.0308745   -4.8114922    4922.2909            1 
   71000    1.9963839   -4.8222759    4921.7956            1 
   71100    1.9699449   -4.8369633    4904.6705            1 
   71200    2.0137837   -4.8025508    4908.6177            3 
   71300    1.9828947   -4.7870658    4921.4401            2 
   71400     1.968879   -4.8259521    4908.1719            1 
   71500     1.996109   -4.7661069    4919.1856            1 
   71600     1.980236   -4.7959593    4923.5118            1 
   71700    1.9915486   -4.8248497    4884.8784            1 
   71800     2.006287   -4.8166389    4934.1238            1 
   71900    1.9734766   -4.7746535    4929.1702            1 
   72000    2.0063305   -4.8282572    4883.8524            2 
   72100    1.9789313   -4.8426088    4907.2783            1 
   72200    2.0077522   -4.8115278    4930.8241            2 
   72300     2.078404   -4.7919141    4918.5327            1 
   72400    1.9771846   -4.8202588    4938.6363            1 
   72500    2.0134398   -4.7711232    4930.4166            1 
   72600    2.0345565   -4.8124361    4924.2763            2 
   72700    1.9917319   -4.8489235     4911.521            1 
   72800    2.0169753   -4.8050056    4907.5434            2 
   72900    2.0004139   -4.8002998    4922.3905            1 
   73000    1.9757191    -4.852941     4913.383       -1e+20 
   73100    2.0313797   -4.7689751    4871.2705       -1e+20 
   73200    1.9676742   -4.7654464    4957.1292            1 
   73300    1.9927833   -4.7558465    4937.1622            1 
   73400    2.0003769   -4.7720349    4897.8567            1 
   73500    1.9846131   -4.8137209    4919.6834            1 
   73600    1.9981683   -4.8154172    4912.5866            1 
   73700    2.0189444   -4.7776242     4902.214            1 
   73800    1.9341242   -4.7718467    4932.8168            1 
   73900    2.0534476    -4.860664    4891.4077       -1e+20 
   74000    1.9579911   -4.8212242    4895.1296            1 
   74100    2.0047961   -4.8045836    4914.5316            1 
   74200    1.9579501   -4.8112655    4909.2787            1 
   74300    1.9748722   -4.7903945    4892.0435            1 
   74400    2.0015078   -4.7921458    4945.1826            1 
   74500    2.0075303   -4.7878358    4931.1207            1 
   74600    2.0333482   -4.8530704    4900.1459            3 
   74700    1.9824711   -4.8530695    4913.4225            2 
   74800    2.0098826    -4.824801    4904.8009            1 
   74900    1.9890119    -4.776838    4905.9737            1 
   75000    1.9612068    -4.830697    4914.4127       -1e+20 
   75100    2.0235811   -4.8308544    4923.1581            1 
   75200    1.9946979   -4.7759548    4915.8835            1 
   75300    1.9907205   -4.8234935    4923.9197            1 
   75400    2.0175269   -4.8278721    4920.0579       -1e+20 
   75500    2.0350109   -4.7883173    4951.8558       -1e+20 
   75600    2.0014453   -4.8139212    4918.0647            1 
   75700    1.9787089   -4.8046768    4899.4349            1 
   75800    2.0176852   -4.7503041     4919.455            1 
   75900    2.0027416   -4.8020013    4931.9937            1 
   76000    2.0058878   -4.8692314     4901.422            1 
   76100    2.0027494   -4.8364796    4896.7062            1 
   76200    2.0051617   -4.7703816    4954.2786            1 
   76300    2.0176398   -4.8045411    4928.8854            1 
   76400    2.0369637   -4.8463279    4885.0704            2 
   76500    1.9682569   -4.8247849    4931.0559            3 
   76600    2.0066704   -4.7814466    4902.2084       -1e+20 
   76700    2.0150396   -4.8271938    4882.6095            2 
   76800    1.9377244   -4.8756982    4938.4892            1 
   76900    2.0051758   -4.7745324    4917.1294            1 
   77000    2.0305289   -4.7367664    4932.8183       -1e+20 
   77100    1.9764439   -4.8038135    4940.4248            1 
   77200    1.9943062   -4.7575905    4932.2165       -1e+20 
   77300    2.0478572   -4.7344655    4942.1307            2 
   77400    1.9924723   -4.7864915    4945.9492            1 
   77500    1.9947698   -4.7934162    4931.8013            1 
   77600     1.943453   -4.8073475     4890.418            2 
   77700    1.9836844   -4.8043706     4935.873            1 
   77800    2.0145454   -4.7756521     4919.386            2 
   77900    1.9905434    -4.805445    4923.9559            1 
   78000    2.0144367   -4.7769725    4928.0405       -1e+20 
   78100    1.9560808   -4.8017573    4926.0917            1 
   78200    2.0266662     -4.82598    4906.0267            1 
   78300     1.971088   -4.7584294    4910.8217            1 
   78400    1.9943191   -4.7568591    4951.1446            1 
   78500    2.0359158   -4.8034612    4925.7163            1 
   78600     1.977282   -4.7966046    4933.2966            1 
   78700    2.0354222   -4.7633784    4917.9351            4 
   78800    1.9705729    -4.808034    4937.6975       -1e+20 
   78900    1.9810243   -4.8347156    4920.1691            1 
   79000    2.0260645   -4.8121837    4873.2993            1 
   79100    2.0010585   -4.8289878    4918.8975            2 
   79200    2.0198745   -4.7900515    4933.9733            1 
   79300    1.9583462   -4.7652269    4941.9747            1 
   79400    2.0232168   -4.7281019    4947.3214            1 
   79500    1.9928792   -4.7652595     4920.657            1 
   79600    1.9838743   -4.8031147    4922.4396       -1e+20 
   79700    2.0187403   -4.7779275      4945.52       -1e+20 
   79800    2.0093606   -4.8108515     4923.669            2 
   79900    2.0006418   -4.8292324    4900.2334            1 
   80000    2.0359205   -4.7880932    4927.6823            1 
   80100    2.0108347   -4.7960703    4958.3374            1 
   80200    1.9642884   -4.8090837    4901.6763            1 
   80300     1.994942   -4.7881043    4906.2038       -1e+20 
   80400    1.9980059   -4.7884926    4929.7269            1 
   80500    1.9507473   -4.7995965    4903.4519            1 
   80600    2.0520622   -4.8610701    4888.5028            1 
   80700     1.932079    -4.821961    4921.8933            1 
   80800    2.0181606   -4.8331965    4910.3395       -1e+20 
   80900     2.032676   -4.7775128    4924.6798            1 
   81000    1.9926674    -4.811051    4933.0799            1 
   81100    2.0002828   -4.8100247    4898.3756            1 
   81200    2.0301264   -4.8762633    4887.1168       -1e+20 
   81300    1.9510109   -4.8777769    4889.5295            1 
   81400    1.9975975    -4.814128    4889.1613            3 
   81500    1.9565635   -4.8284951    4930.1542            1 
   81600    2.0339905   -4.7921182    4888.7744            1 
   81700    2.0171842   -4.8887109    4899.8387            1 
   81800    1.9539606    -4.893564    4906.1559       -1e+20 
   81900    2.0197528   -4.8440011    4846.2529            1 
   82000    1.9993753   -4.8233436     4917.454            1 
   82100    1.9842542   -4.7885318    4927.4664            1 
   82200    1.9914388   -4.7429139    4912.6702            2 
   82300    2.0247481   -4.7894557    4937.7162       -1e+20 
   82400    1.9798242   -4.8163516    4915.1452            1 
   82500    2.0006372   -4.8222321    4906.3684            1 
   82600    2.0195105   -4.7798013    4937.3651            1 
   82700    2.0085489   -4.7626519    4943.7808            1 
   82800     1.951026   -4.7820008    4928.3703            1 
   82900    2.0631142    -4.813693    4903.2344            1 
   83000    2.0109889   -4.8048904    4927.2419            1 
   83100    1.9582286   -4.8007539    4924.0575            1 
   83200    2.0502072   -4.7910929    4921.5079            1 
   83300     2.003988   -4.7995054    4931.3758            1 
   83400    1.9853189   -4.8248047    4937.5545            2 
   83500    2.0202846    -4.778453     4924.835            1 
   83600      2.00581   -4.7523802    4947.2332            2 
   83700    1.9851146   -4.7974003    4929.2743       -1e+20 
   83800    2.0422215   -4.8025874     4906.878            1 
   83900     1.951978   -4.8169467    4928.2625       -1e+20 
   84000    2.0112214   -4.8262345    4899.5641            1 
   84100    2.0085613   -4.8140243    4898.6338            1 
   84200    1.9976265   -4.8249832     4945.781            1 
   84300    2.0435824   -4.8479642    4902.6693            1 
   84400    1.9921747   -4.8503223    4899.2218            1 
   84500    1.9552521   -4.7859985    4949.1095            1 
   84600    2.0169207   -4.7642403    4900.8645            2 
   84700    2.0521275    -4.824095     4925.844       -1e+20 
   84800      1.96254   -4.7632477     4956.411            1 
   84900    2.0247615   -4.8027504    4914.8661            1 
   85000    1.9820955   -4.7827289    4921.3143            1 
   85100    1.9696509   -4.7827507    4935.1945            5 
   85200    2.0425742   -4.7953947    4901.8407            2 
   85300    2.0016311   -4.8333709    4933.8067            1 
   85400    1.9942917   -4.8239478    4913.9967            2 
   85500    1.9860662    -4.751169    4912.0142            1 
   85600    2.0002225   -4.7999448    4932.8903            1 
   85700    1.9734325   -4.7570232    4928.5026            1 
   85800    2.0263714   -4.7679306    4939.1757            1 
   85900    1.9874392   -4.7818695    4931.9662       -1e+20 
   86000    2.0120919    -4.772993    4912.6029            3 
   86100    1.9649982   -4.7886925    4912.4608       -1e+20 
   86200    1.9641333   -4.7778757    4948.8132            1 
   86300    2.0555303   -4.7709216     4920.334            1 
   86400    1.9858558   -4.8037321     4928.601       -1e+20 
   86500    1.9789665   -4.8025382    4914.1996            1 
   86600    2.0019035   -4.8336429    4882.4204            1 
   86700    2.0231747    -4.817642    4945.6701            1 
   86800    2.0038762   -4.7859856    4893.8617            1 
   86900    1.9818526   -4.7705568    4941.9711       -1e+20 
   87000    1.9899638   -4.7868165    4932.7966            1 
   87100    2.0201752    -4.759094      4923.32            1 
   87200     1.986882   -4.7292112    4947.6384            1 
   87300    1.9993354   -4.7929322    4928.2546            1 
   87400     1.962391   -4.8010402    4889.6704            1 
   87500    1.9958082    -4.816971    4910.4153            1 
   87600    1.9934083   -4.7941438    4895.2182            1 
   87700     2.003321   -4.8165067    4926.8402            1 
   87800    2.0089995   -4.7672892     4930.872            1 
   87900    2.0104407   -4.8127997    4924.5568            1 
   88000    1.9873054   -4.7928721    4914.2254            4 
   88100    1.9973879    -4.786283    4902.8715            1 
   88200    2.0015556   -4.7616753    4949.7995            3 
   88300    2.0419608   -4.7249384    4974.3755            1 
   88400    1.9866121   -4.7208872    4969.3606            1 
   88500    1.9858576   -4.7791858     4926.624            1 
   88600    2.0031472   -4.7953531     4909.976            1 
   88700    1.9680338    -4.795359    4886.3386            1 
   88800    1.9720089   -4.8126393    4918.5706            1 
   88900    2.0226843   -4.7919528     4934.031       -1e+20 
   89000    1.9551562   -4.7543175    4928.6403            1 
   89100    2.0096792   -4.8518409    4889.7067            1 
   89200    1.9700494   -4.8307454    4889.1704            1 
   89300    1.9882114   -4.8282871    4925.2263            1 
   89400     2.014015   -4.7846358     4921.374            1 
   89500     2.024298   -4.8022726    4909.2912            1 
   89600    1.9792779   -4.8291655    4909.3305            1 
   89700    1.9990284    -4.777101    4922.7971            1 
   89800    1.9956972   -4.7948992    4901.1351            1 
   89900    1.9930883   -4.8246546     4911.898            1 
   90000    1.9876027   -4.7852922    4950.2836            1 
   90100    2.0555395   -4.7338678    4915.7692            1 
   90200    1.9546642    -4.742746    4969.1357            1 
   90300    2.0336161    -4.813121    4920.7409       -1e+20 
   90400     2.009048   -4.8132247    4907.5751            1 
   90500    2.0026639   -4.8283867    4921.6738            2 
   90600    2.0305495   -4.7804703    4923.9435       -1e+20 
   90700    1.9681673   -4.7925689    4910.1845            1 
   90800    1.9911342    -4.794461    4890.6383            1 
   90900    2.0238283   -4.7987058    4927.4055            2 
   91000    1.9891583   -4.7886279    4938.8489       -1e+20 
   91100    1.9729347   -4.7944079     4890.001            1 
   91200    2.0193821   -4.7623644    4905.6948            1 
   91300     2.001649   -4.7769699    4935.2566            2 
   91400    1.9874037    -4.859246    4905.5271            2 
   91500    1.9578098   -4.7727624    4891.4766            1 
   91600    2.0225426   -4.7835775     4930.627            1 
   91700    1.9991329   -4.7799502    4934.0061            1 
   91800    2.0162018   -4.8716469    4909.5361       -1e+20 
   91900    1.9768686   -4.8390373    4906.2773            1 
   92000    2.0145715   -4.7939015    4908.0172            2 
   92100    2.0248718   -4.8190832    4946.3169            1 
   92200    2.0234102   -4.8063723    4954.0669            1 
   92300    2.0123493   -4.7874343    4916.2906            2 
   92400    1.9529312   -4.7536595    4924.7308       -1e+20 
   92500    2.0261832    -4.779429    4914.1326            1 
   92600    1.9823299   -4.8217687    4918.9437            1 
   92700    1.9866371   -4.7286166     4934.267            1 
   92800     2.027371   -4.7380259    4938.3782            2 
   92900    1.9974935   -4.7738804    4947.1767            2 
   93000    2.0149721   -4.8231737    4909.4212            1 
   93100    1.9669635   -4.7834539    4908.7276       -1e+20 
   93200     2.013225   -4.7917838    4911.1281            1 
   93300    1.9887763    -4.797565    4932.5209            1 
   93400    2.0272858   -4.8249561    4947.7819            1 
   93500    2.0187488   -4.8071493    4926.6668            2 
   93600    1.9636874   -4.7760169    4914.0604            3 
   93700    1.9983748   -4.7891174    4909.8911       -1e+20 
   93800    2.0041845   -4.7793843     4958.752            2 
   93900    2.0117709   -4.8463165    4896.1371            1 
   94000    2.0279518   -4.8479352    4913.2984            1 
   94100    1.9790655    -4.869086     4916.492            1 
   94200    2.0179826   -4.8550342    4885.8668       -1e+20 
   94300    1.9857231   -4.7694262    4915.4502            1 
   94400    1.9669959   -4.7589293     4929.763            1 
   94500    1.9858433    -4.853475    4907.7926            1 
   94600    2.0224531   -4.8417525    4880.1676            1 
   94700    2.0013459   -4.8540877    4906.4792            1 
   94800     2.008943   -4.7632344    4932.7014            2 
   94900    1.9914207   -4.7065238    4944.7606            3 
   95000    1.9882757   -4.7811993    4934.9733            1 
   95100    1.9941663   -4.7898845    4907.4986       -1e+20 
   95200    1.9706391   -4.8175716     4888.784            1 
   95300     2.000813   -4.8089283    4944.9358            1 
   95400    2.0333904   -4.7536337    4935.5271       -1e+20 
   95500    1.9768171    -4.778892    4940.9393            1 
   95600    2.0205578   -4.7757387    4941.7534            3 
   95700    1.9684705   -4.7866439    4924.9969            1 
   95800    2.0131261   -4.8013256    4903.5577            2 
   95900    1.9654153   -4.7961813    4925.8817            1 
   96000    1.9977764    -4.776197    4934.0105            1 
   96100    2.0373518   -4.7554423    4924.6575            1 
   96200    1.9768019   -4.7865076    4947.8747            1 
   96300     2.018066    -4.759475    4921.2322            1 
   96400    1.9834962    -4.786446    4903.1885            1 
   96500    1.9208329   -4.8086152    4933.1597            1 
   96600    2.0513911   -4.8360572    4890.2791            1 
   96700    1.9916717   -4.8531842    4915.6133            1 
   96800    1.9931959   -4.7875458    4944.0622            1 
   96900    2.0063259   -4.7564786    4913.1427            1 
   97000    1.9630219   -4.8101216    4894.6107            1 
   97100    1.9981439   -4.8960134       4902.5            1 
   97200    2.0033316   -4.7599455    4888.6157            1 
   97300    2.0219998    -4.813848    4938.3541       -1e+20 
   97400    1.9949799   -4.8115649    4947.1233            3 
   97500    1.9954734   -4.8091438    4880.6479            1 
   97600    2.0354911   -4.8229019    4922.4046       -1e+20 
   97700    1.9681771   -4.7849354    4943.1812            1 
   97800    2.0072744   -4.7408125    4919.3237       -1e+20 
   97900    2.0016659    -4.767031    4927.7565            1 
   98000    1.9948465   -4.8630377    4905.7325            1 
   98100    1.9670507   -4.8186571    4902.4073       -1e+20 
   98200    2.0013832   -4.7691574    4912.5359            1 
   98300    1.9634205   -4.7734852    4920.6107       -1e+20 
   98400    2.0078664   -4.7743062    4915.2486            1 
   98500    1.9946217   -4.8256486      4912.73            1 
   98600    1.9897251    -4.882482    4902.7021            1 
   98700    2.0253244   -4.8372431    4912.1791            1 
   98800    1.9979088   -4.7701466    4919.6102            1 
   98900    1.9808996   -4.8058888    4928.2493            2 
   99000    2.0362584   -4.8191112    4937.1025            1 
   99100      2.02923   -4.7745418    4939.4313            1 
   99200    2.0091766   -4.8381766    4899.0309            2 
   99300    1.9802147   -4.8616513    4912.5642            1 
   99400    2.0132533   -4.7941664     4912.316            1 
   99500     2.009565   -4.7616089    4913.0372            1 
   99600    1.9612937   -4.7741693    4959.5948            1 
   99700    2.0757948   -4.8315099    4894.9082            1 
   99800    1.9767906    -4.821174    4926.1374            1 
   99900    1.9620377   -4.8272614    4897.5708            1 
  100000    1.9935807   -4.8078047    4901.9272            1 
  100100    1.9952809   -4.7665789     4934.939            1 
  100200     2.013906   -4.7446426     4962.935       -1e+20 
  100300    1.9984228   -4.7846337    4919.0392            1 
  100400    1.9710902   -4.8011301     4921.641            1 
  100500    2.0412356   -4.8189961     4905.905            1 
  100600    1.9674314   -4.7925424    4921.9688            1 
  100700    1.9943844   -4.8117751    4907.2784            1 
  100800     1.975603   -4.7815301    4908.7518            1 
  100900    2.0381754    -4.837588    4919.6871            1 
  101000    1.9737359    -4.805366    4922.5091            1 
  101100    2.0185854   -4.7908788    4906.1915            2 
  101200    1.9806184    -4.838557    4910.1928            2 
  101300    1.9898552    -4.826686    4889.4523       -1e+20 
  101400    2.0144969   -4.7790793    4907.6308            1 
  101500    1.9806883   -4.8171736    4957.0885            1 
  101600    2.0711248   -4.8050155    4919.2712            1 
  101700     2.023862   -4.8205916    4905.2703            1 
  101800    1.9768576   -4.8679895    4914.6163            1 
  101900    2.0085063   -4.8149883    4909.5856            1 
  102000    1.9879086   -4.8195047    4921.8677            1 
  102100    2.0607019   -4.8288072    4923.1608            1 
  102200    1.9824322   -4.8129146    4910.5875            1 
  102300     1.976693   -4.7717359    4934.9625       -1e+20 
  102400    2.0332562   -4.7728935    4907.1395            1 
  102500      1.98189    -4.830379    4897.9832            1 
  102600    1.9849654   -4.7835909    4909.4628            3 
  102700    1.9927484   -4.7726865    4936.4092            1 
  102800    2.0202786    -4.789587     4921.445            1 
  102900    1.9774094    -4.814072    4926.5989            1 
  103000    1.9622263   -4.7505563    4952.2386       -1e+20 
  103100    2.0313209    -4.725807    4917.3457       -1e+20 
  103200    1.9962802   -4.8053017    4915.8479            1 
  103300    1.9674189   -4.7847959     4925.432            1 
  103400    2.0629382   -4.8061188     4917.702            1 
  103500    2.0054041   -4.8283698    4920.9888            1 
  103600    2.0169326   -4.8161333    4925.6674       -1e+20 
  103700    1.9903864    -4.772104    4929.9844            3 
  103800     1.991268   -4.7650001    4923.7647            1 
  103900    1.9909964   -4.7331209    4966.0516            1 
  104000    2.0426614   -4.7150665    4952.7533            1 
Loop time of 326.187 on 20 procs for 100000 steps with 4000 atoms

Performance: 52975.787 tau/day, 306.573 timesteps/s
99.9% CPU use with 20 MPI tasks x no OpenMP threads

MPI task timing breakdown:
Section |  min time  |  avg time  |  max time  |%varavg| %total
---------------------------------------------------------------
Pair    | 24.688     | 26.621     | 27.972     |  19.1 |  8.16
Neigh   | 4.8227     | 5.0095     | 5.1695     |   4.7 |  1.54
Comm    | 14.796     | 16.41      | 20.076     |  41.9 |  5.03
Output  | 5.5586     | 5.5599     | 5.5746     |   0.1 |  1.70
Modify  | 267.99     | 270.17     | 271.46     |   6.6 | 82.83
Other   |            | 2.418      |            |       |  0.74

Nlocal:        200.000 ave         216 max         190 min
Histogram: 4 4 3 1 1 1 2 0 2 2
Nghost:        2101.95 ave        2121 max        2081 min
Histogram: 1 3 2 3 1 0 2 4 0 4
Neighs:        18411.9 ave       20323 max       16600 min
Histogram: 3 0 1 4 2 2 5 1 0 2
FullNghs:      36820.6 ave       40101 max       34645 min
Histogram: 3 3 5 2 1 0 2 1 0 3

Total # of neighbors = 736411
Ave neighs/atom = 184.10275
Neighbor list builds = 8354
Dangerous builds = 286

#clear
#
#next RN
#
#jump SELF
Total wall time: 0:05:28
