
units lj                  # Use reduced LJ style units
atom_style atomic         # Uncharged point particles
atom_modify map hash      # Needed for indexing of clusters etc
                          # Used to be able to find where atoms are in relation to each other.

# Define a lattice with which to populate the simulation cell. With units
# set to 'lj' the second argument to the lattice command is the reduced
# density rho* and the spacings are multiples of that required to acheive
# that density. Also define a simulation cell called 'box' in lattice units
# and fill it with atoms. Here we're creating a box which is ten lattice
# constants in each direction.
lattice fcc 1.0 spacing 1 1 1                 # All equal sizes - gives the right reduced density.
Lattice spacing in x,y,z = 1.5874011 1.5874011 1.5874011

region box block 0 10 0 10 0 10 units lattice # Defines a region, "box", in lattice units
create_box 1 box                              # Creates a simulation box as specified above,
Created orthogonal box = (0.0000000 0.0000000 0.0000000) to (15.874011 15.874011 15.874011)
  2 by 2 by 5 MPI processor grid
                                              # with one type of atom
create_atoms 1 box                            # Creates particles on lattice points
Created 4000 atoms
  using lattice units in orthogonal box = (0.0000000 0.0000000 0.0000000) to (15.874011 15.874011 15.874011)
  create_atoms CPU = 0.001 seconds


# Set the mass of the first (and only) atom type.
mass 1 1.0

# Lennard-Jones interactions between particles, 3.5 sigma cut-off. Apply
# long range tail corrections to energy and pressure and set all coefficients
# to unity since we work in reduced units here. Note that this doesn't shift
# the potential such that it goes to zero at the cutoff. That would require
# pair_modify('shift', 'yes').
pair_style lj/cut  3.5      # non-GPU version
pair_modify tail  yes
pair_coeff 1  1  1.0  1.0   # Intearaction between 1 and 1 set with epsilon = 1 and sigma = 1

write_data data.*
System init for write_data ...
Neighbor list info ...
  update every 1 steps, delay 10 steps, check yes
  max neighbors/atom: 2000, page size: 100000
  master list distance cutoff = 3.8
  ghost atom cutoff = 3.8
  binsize = 1.9, bins = 9 9 9
  1 neighbor lists, perpetual/occasional/extra = 1 0 0
  (1) pair lj/cut, perpetual
      attributes: half, newton on
      pair build: half/bin/atomonly/newton
      stencil: half/bin/3d
      bin: standard

#############################
#   M E L T   S Y S T E M   #
#############################

velocity all create 2.4 5833274 mom yes dist gaussian # Assign velocities
                                                    # Temperature 2.4, random number seed, zero linear momentum
						                                                        # Gaussian distribution

timestep 0.002   # simulation timestep
thermo 100       # output thermodynamic data every 100 steps

# Define a fix  in this case with index 1 applied to all
# particles in the simulation. This fix is for simulations
# in the anisotropic NPT ensemble. Note that we use the MTK
# correction.
fix 1 all npt temp 2.4 2.4 0.1 iso 5.68 5.68 0.5 mtk yes tchain 5 pchain 5 # Use NPT ensemble
                                                                         # Set temperature and pressure and damping
                                                                         # Numbers of thermostats in chain and in barostat
run 1000         # run for 10000 steps
Per MPI rank memory allocation (min/avg/max) = 3.681 | 3.682 | 3.682 Mbytes
Step Temp E_pair E_mol TotEng Press Volume 
       0          2.4   -8.3859253            0   -4.7868253   -2.2405722         4000 
     100    1.2560543   -6.5166947            0   -4.6330842    5.4738617     4090.264 
     200    1.4620147   -6.2944328            0    -4.101959    6.0489469    4141.8953 
     300    1.5805517   -6.0148662            0   -3.6446313    5.8775706    4268.7287 
     400    1.6834669   -5.7107066            0   -3.1861375    5.9071358    4403.4982 
     500    1.7905016   -5.4263411            0   -2.7412601    5.8268731    4549.0839 
     600    1.8978346    -5.162881            0   -2.3168407    5.7228626    4703.0892 
     700    1.9845484    -4.865807            0   -1.8897287     6.002426    4840.6855 
     800    2.1384022    -4.696791            0   -1.4899895    5.9101296    4967.4306 
     900    2.2534752   -4.5516747            0    -1.172307    5.7523082    5085.8653 
    1000    2.3409821   -4.4247023            0  -0.91410702    5.7016656    5179.7126 
Loop time of 0.483398 on 20 procs for 1000 steps with 4000 atoms

Performance: 357469.356 tau/day, 2068.688 timesteps/s
99.8% CPU use with 20 MPI tasks x no OpenMP threads

MPI task timing breakdown:
Section |  min time  |  avg time  |  max time  |%varavg| %total
---------------------------------------------------------------
Pair    | 0.25906    | 0.28065    | 0.3045     |   2.1 | 58.06
Neigh   | 0.050238   | 0.053455   | 0.059314   |   1.0 | 11.06
Comm    | 0.09816    | 0.12207    | 0.14549    |   3.7 | 25.25
Output  | 0.00019055 | 0.00019489 | 0.00025324 |   0.0 |  0.04
Modify  | 0.021533   | 0.02372    | 0.027201   |   1.3 |  4.91
Other   |            | 0.003306   |            |       |  0.68

Nlocal:        200.000 ave         214 max         185 min
Histogram: 1 1 2 4 1 2 4 2 2 1
Nghost:        2060.35 ave        2080 max        2025 min
Histogram: 1 0 0 1 4 0 5 5 0 4
Neighs:        17663.0 ave       19553 max       16156 min
Histogram: 1 3 2 3 4 1 1 4 0 1

Total # of neighbors = 353260
Ave neighs/atom = 88.315000
Neighbor list builds = 87
Dangerous builds = 21

# Equilibrate just above the melting temperature to avoid step fn in T

fix 1 all npt temp 1.25 1.25 0.1 iso 5.68 5.68 0.5 mtk yes tchain 5 pchain 5
run 1000
Per MPI rank memory allocation (min/avg/max) = 3.682 | 3.683 | 3.683 Mbytes
Step Temp E_pair E_mol TotEng Press Volume 
    1000    2.3409821   -4.4247023            0  -0.91410702    5.7016656    5179.7126 
    1100    1.9394202   -4.6489983            0   -1.7405953    5.7043192    5010.4975 
    1200    1.7538302   -4.9709308            0   -2.3408432    5.7068483    4807.0107 
    1300    1.5722219   -5.1950829            0   -2.8373396    5.6802724    4673.3381 
    1400    1.4568845   -5.4057081            0   -3.2209276    5.5567683    4573.8845 
    1500    1.3503547   -5.5212706            0   -3.4962449    5.7302676    4490.7966 
    1600    1.3147643   -5.6482764            0   -3.6766229    5.6898925    4434.2315 
    1700    1.2716924   -5.7297408            0   -3.8226791    5.6958397    4391.1098 
    1800    1.2648862   -5.7893213            0   -3.8924664    5.8003465    4355.9343 
    1900    1.2354209   -5.8175189            0   -3.9648509     5.800932    4342.1233 
    2000    1.2349334    -5.850737            0      -3.9988    5.7262948    4335.4701 
Loop time of 0.470243 on 20 procs for 1000 steps with 4000 atoms

Performance: 367469.740 tau/day, 2126.561 timesteps/s
99.9% CPU use with 20 MPI tasks x no OpenMP threads

MPI task timing breakdown:
Section |  min time  |  avg time  |  max time  |%varavg| %total
---------------------------------------------------------------
Pair    | 0.25874    | 0.27795    | 0.2943     |   2.2 | 59.11
Neigh   | 0.043708   | 0.046528   | 0.050097   |   0.8 |  9.89
Comm    | 0.099698   | 0.11862    | 0.14022    |   3.7 | 25.22
Output  | 0.00018891 | 0.0001938  | 0.00024893 |   0.0 |  0.04
Modify  | 0.02166    | 0.023246   | 0.025837   |   1.0 |  4.94
Other   |            | 0.003709   |            |       |  0.79

Nlocal:        200.000 ave         208 max         193 min
Histogram: 3 2 2 0 3 2 4 1 0 3
Nghost:        2288.05 ave        2299 max        2264 min
Histogram: 1 0 0 2 0 3 2 3 5 4
Neighs:        21066.1 ave       22634 max       19412 min
Histogram: 1 2 3 1 3 1 2 4 2 1

Total # of neighbors = 421322
Ave neighs/atom = 105.33050
Neighbor list builds = 76
Dangerous builds = 7


# Small amount of linear quench

fix 1 all npt temp 1.25 ${temp} 0.1 iso 5.68 5.68 0.5 mtk yes tchain 5 pchain 5
fix 1 all npt temp 1.25 2.02 0.1 iso 5.68 5.68 0.5 mtk yes tchain 5 pchain 5
run 2000
Per MPI rank memory allocation (min/avg/max) = 3.683 | 3.683 | 3.684 Mbytes
Step Temp E_pair E_mol TotEng Press Volume 
    2000    1.2349334    -5.850737            0      -3.9988    5.7262948    4335.4701 
    2100    1.2669179   -5.8390673            0   -3.9391656    5.5585422     4354.903 
    2200    1.2856968   -5.7920535            0   -3.8639903    5.5608407    4375.4235 
    2300    1.3344961   -5.7665742            0   -3.7653306    5.4663305     4399.838 
    2400    1.3398732   -5.6819024            0   -3.6725952    5.5491118    4431.1494 
    2500    1.4300144    -5.664663            0   -3.5201776    5.7138574    4431.9367 
    2600     1.439207   -5.5438697            0   -3.3855989     6.090162      4452.43 
    2700    1.4576109   -5.4885243            0   -3.3026546    5.8212505    4501.1125 
    2800    1.5294482   -5.4831128            0   -3.1895141    5.7150667    4520.3893 
    2900    1.5740321   -5.4446398            0   -3.0841819    5.5286054    4561.3504 
    3000    1.5714074   -5.3598924            0   -3.0033705    5.5455399    4600.0951 
    3100    1.6346945   -5.3105165            0   -2.8590878    5.6257601    4622.2553 
    3200    1.6646432   -5.2303594            0   -2.7340188    5.7782489    4648.9308 
    3300    1.7212138   -5.1996404            0   -2.6184651    5.6532563    4681.9156 
    3400    1.7659943   -5.1623892            0     -2.51406    5.4662283    4722.2555 
    3500     1.787161   -5.0859744            0   -2.4059031    5.7037826    4741.5467 
    3600    1.8488923   -5.0508631            0   -2.2782179    5.7571649    4760.5296 
    3700    1.8456132   -4.9641912            0   -2.1964636    5.6328533    4818.4054 
    3800    1.9296625   -4.9451277            0   -2.0513577    5.8160166    4817.3167 
    3900    1.9442641   -4.8797049            0   -1.9640379    5.7560013    4859.5393 
    4000    1.9761478   -4.8385603            0   -1.8750796    5.4322137    4922.6875 
Loop time of 0.920705 on 20 procs for 2000 steps with 4000 atoms

Performance: 375364.472 tau/day, 2172.248 timesteps/s
100.0% CPU use with 20 MPI tasks x no OpenMP threads

MPI task timing breakdown:
Section |  min time  |  avg time  |  max time  |%varavg| %total
---------------------------------------------------------------
Pair    | 0.51382    | 0.55176    | 0.57851    |   2.6 | 59.93
Neigh   | 0.089162   | 0.092041   | 0.098739   |   0.8 | 10.00
Comm    | 0.19353    | 0.2229     | 0.2576     |   4.3 | 24.21
Output  | 0.00036896 | 0.00037763 | 0.00047237 |   0.0 |  0.04
Modify  | 0.042365   | 0.046274   | 0.052047   |   1.5 |  5.03
Other   |            | 0.00736    |            |       |  0.80

Nlocal:        200.000 ave         212 max         188 min
Histogram: 1 0 4 2 3 4 2 1 2 1
Nghost:        2115.05 ave        2132 max        2103 min
Histogram: 1 2 7 1 1 3 3 0 0 2
Neighs:        18548.7 ave       20305 max       16440 min
Histogram: 1 0 3 1 2 6 3 0 2 2

Total # of neighbors = 370974
Ave neighs/atom = 92.743500
Neighbor list builds = 150
Dangerous builds = 4

#############################
# F R E E Z E  S Y S T E M  #
#############################

# Define solid atoms. This closely follows ten Wolde  Ruiz-Montero and Frenkel  Faraday Discuss  1996  104  93-110
# Compute components of the per-atom q6 vector
compute q6 all orientorder/atom degrees 1 6 components 6 nnn NULL cutoff 1.3 # compute the Q6 parameter.
                                                                             # Use all neighbours within 1.3 unit cell.

# get number of connections
compute coord_number all coord/atom orientorder q6 0.5

# An atom is solid if it has 8 or more connections (of a possible 14)
variable is_solid atom c_coord_number>=8
group solid dynamic all var is_solid    # Must be dynamic to update
dynamic group solid defined

# do clustering
compute cluster solid cluster/atom 1.3 # Create a cluster where all atoms within are solid and max 1.3 units from another member

# define chunks one chunk per cluster
compute clus_chunks solid chunk/atom c_cluster nchunk every compress yes  # Says which atoms are in which chunk

# count the size of each chunk
compute size_chunks solid property/chunk clus_chunks count


# Find the maximum entry in the vector of chunk sizes
variable max_n equal max(c_size_chunks)


# Thermo style which includes this variable
thermo_style custom step temp pe vol v_max_n

thermo ${N}  # Print the thermo information every 100 steps
thermo 100  

# Reset the npt fix at a lower temperature (below freezing)
fix 1  all npt temp  ${temp} ${temp}  0.1  iso  5.68  5.68  0.5  mtk yes tchain  5  pchain  5
fix 1  all npt temp  2.02 ${temp}  0.1  iso  5.68  5.68  0.5  mtk yes tchain  5  pchain  5
fix 1  all npt temp  2.02 2.02  0.1  iso  5.68  5.68  0.5  mtk yes tchain  5  pchain  5

dump dmp2 all dcd ${N} traj_${rand}.dcd
dump dmp2 all dcd 100 traj_${rand}.dcd
dump dmp2 all dcd 100 traj_462431.dcd


# fix rnuntil all halt ${N} v_max_n >= 3980 error soft message no   # Stop when solidified


run 100000 # 5000000  # Run for this many steps
Neighbor list info ...
  update every 1 steps, delay 10 steps, check yes
  max neighbors/atom: 2000, page size: 100000
  master list distance cutoff = 3.8
  ghost atom cutoff = 3.8
  binsize = 1.9, bins = 9 9 9
  4 neighbor lists, perpetual/occasional/extra = 1 3 0
  (1) pair lj/cut, perpetual
      attributes: half, newton on
      pair build: half/bin/atomonly/newton
      stencil: half/bin/3d
      bin: standard
  (2) compute orientorder/atom, occasional
      attributes: full, newton on
      pair build: full/bin/atomonly
      stencil: full/bin/3d
      bin: standard
  (3) compute coord/atom, occasional
      attributes: full, newton on
      pair build: full/bin/atomonly
      stencil: full/bin/3d
      bin: standard
  (4) compute cluster/atom, occasional
      attributes: full, newton on
      pair build: full/bin/atomonly
      stencil: full/bin/3d
      bin: standard
Per MPI rank memory allocation (min/avg/max) = 9.488 | 9.489 | 9.491 Mbytes
Step Temp PotEng Volume v_max_n 
    4000    1.9761478   -4.8385603    4922.6875            1 
    4100    2.0469338   -4.8182994    4898.7765            1 
    4200    2.0119453   -4.7800276    4913.0561            3 
    4300    2.0151381   -4.7636092    4949.1545            1 
    4400     2.028053   -4.7344086    4935.2371            1 
    4500    2.0634418   -4.8452831    4930.8673            1 
    4600    1.9624139   -4.7844725    4922.6665            1 
    4700    2.0174468   -4.7597002    4949.5906            1 
    4800    2.0252397   -4.7599394    4940.4592       -1e+20 
    4900    2.0011691   -4.8061138    4936.3359            2 
    5000    2.0409068   -4.8115763    4962.0502            1 
    5100    2.0468239   -4.7624661    4923.7012            1 
    5200    2.0370672   -4.8448619    4941.7035            1 
    5300    1.9963576   -4.8077563    4916.6624            1 
    5400    2.0597493   -4.8265406    4906.3559            1 
    5500    1.9904831   -4.8342992    4910.2512            1 
    5600    2.0306531   -4.8200382    4900.8579            1 
    5700    2.0583253   -4.7897536    4933.7946            2 
    5800    1.9689271   -4.7859823    4946.9666            2 
    5900    2.0311984   -4.7787722    4918.0583            1 
    6000    1.9975819   -4.7066974    4933.7546            1 
    6100    2.0304295   -4.7337826    4978.8911            1 
    6200    2.0494504   -4.8341644    4926.3052            2 
    6300    2.0066717   -4.8364517     4907.731            1 
    6400    2.0419476   -4.8132963     4952.944            2 
    6500    1.9944078   -4.7411597    4936.7966            1 
    6600    2.0356223   -4.7694845    4925.1432            2 
    6700    1.9918737   -4.7256155    4974.2021            2 
    6800    2.0570787   -4.7745462    4924.6941            1 
    6900    1.9950973   -4.7838343     4931.122            1 
    7000    2.0143896   -4.7428018    4930.3729            1 
    7100    2.0021517   -4.7575613    4940.0534            1 
    7200    2.0255794    -4.765673    4960.6117            3 
    7300    1.9934664   -4.7973485    4899.1965            1 
    7400    2.0121276   -4.8532657    4913.3727            1 
    7500    1.9891918   -4.7496397    4940.9379            2 
    7600    2.0577132    -4.777711    4946.9034            2 
    7700    2.0168081   -4.8058037    4919.5117            1 
    7800    2.0272815   -4.8267927    4922.3485            1 
    7900    1.9948327   -4.7276122    4946.5718            1 
    8000    2.0028081   -4.6781126    4947.1097            1 
    8100    1.9997939   -4.7806968    4933.9317            4 
    8200    1.9476046   -4.7981889    4909.5748            1 
    8300     2.007775    -4.764261    4907.7698            1 
    8400    2.0184552   -4.7887841    4941.5334       -1e+20 
    8500    2.0469893    -4.744948    4951.2153            2 
    8600    2.0077091   -4.7812821    4931.5782            2 
    8700    2.0370931   -4.8250739    4944.0783            1 
    8800    2.0337932   -4.7418318     4925.159            1 
    8900    2.0292761   -4.7224098    4943.0576       -1e+20 
    9000    1.9750642   -4.7329872    4969.2829            1 
    9100     2.040937   -4.7443507    4919.2309            1 
    9200    1.9677041    -4.736631    4946.7444       -1e+20 
    9300    2.0084129   -4.7458275    4938.2783            1 
    9400    2.0375701   -4.7675121    4922.0782            1 
    9500    2.0402441   -4.7353137    4977.5409            1 
    9600    2.0044662   -4.7682148    4936.6816            1 
    9700     1.962888    -4.727458    4920.2449            1 
    9800    2.0063765   -4.7060427    4955.7872            1 
    9900    2.0249385   -4.7621612    4939.6791            1 
   10000    1.9939214   -4.7761891    4926.7558            1 
   10100    2.0203062   -4.7885024    4929.4926            1 
   10200    2.0285268   -4.7668996    4938.2991            1 
   10300    2.0260615    -4.755512    4962.4478            1 
   10400    2.0215114   -4.7703681     4911.574       -1e+20 
   10500    2.0031535   -4.7912523    4937.3852            1 
   10600    2.0369038   -4.7843699    4971.1447            1 
   10700    2.0859556   -4.7594896     4938.445       -1e+20 
   10800    1.9966849   -4.7719362    4957.0259       -1e+20 
   10900    2.0344742   -4.7710934    4929.9827            2 
   11000    2.0264416   -4.8073813    4916.2618            1 
   11100    1.9928357    -4.742478    4986.8005       -1e+20 
   11200    2.0750141   -4.7594838    4937.0599            1 
   11300    2.0208249   -4.7733388    4944.9551            1 
   11400    1.9836463   -4.7527345    4954.7064            1 
   11500    2.0541556   -4.7417394    4903.1372            1 
   11600    2.0086432   -4.8266534    4933.7555            1 
   11700    2.0135004    -4.804859    4938.1554            1 
   11800     2.041827   -4.7777438    4931.2086       -1e+20 
   11900    1.9748377   -4.7863243    4912.7408            1 
   12000    2.0263463   -4.8384599    4910.2039            1 
   12100    2.0548313    -4.779131    4950.5587            1 
   12200    2.0672049   -4.8120068    4937.7055       -1e+20 
   12300    2.0015497    -4.821002     4944.556            1 
   12400    2.0263253    -4.786352    4932.5294            1 
   12500     2.004697    -4.779272    4906.3541            1 
   12600    1.9982908   -4.8044147     4955.942            1 
   12700    2.0405417   -4.7663242     4901.436            1 
   12800    2.0338113   -4.7964193    4959.1107            1 
   12900    2.0207395   -4.7750788    4944.1778            1 
   13000    2.0300894   -4.7709365    4926.7152            1 
   13100    2.0297103    -4.792833    4943.2027       -1e+20 
   13200    1.9796541   -4.7733124    4947.1194            2 
   13300    2.0439373   -4.7461851    4912.1882            1 
   13400    1.9986233   -4.7913673    4919.2982            2 
   13500     1.994373   -4.8035843    4913.6626            1 
   13600    2.0534251   -4.8168904    4900.5255            1 
   13700    2.0089944   -4.7597049     4974.169       -1e+20 
   13800    2.0360881   -4.7740261    4955.2415            1 
   13900    2.0354033   -4.7465376    4913.7788            1 
   14000    1.9566608   -4.7777697    4943.6946            1 
   14100     2.044787   -4.7748914    4924.5338            1 
   14200    1.9991409   -4.7367995    4928.2171            1 
   14300    2.0021014   -4.8347701     4911.147            1 
   14400    2.0376586   -4.8212825    4925.3754            1 
   14500    2.0337942   -4.8006327    4924.2123            1 
   14600    2.0114059   -4.8336397    4894.2973            1 
   14700    2.0113942   -4.7900157     4943.994            1 
   14800    2.0344758   -4.7790955     4935.604            1 
   14900    2.0008026   -4.7851608    4933.5715            1 
   15000     2.048739    -4.800418    4934.9772            1 
   15100    2.0092164   -4.8115334    4921.8177            2 
   15200    2.0056885   -4.7968469    4923.4311       -1e+20 
   15300    2.0290551   -4.7542497    4938.6745            1 
   15400    2.0100538   -4.7980406    4931.0728            1 
   15500    2.0456814   -4.8121419    4918.1781            1 
   15600     2.024643   -4.7574076    4949.0433            1 
   15700    2.0394481   -4.8141217    4905.8337            1 
   15800    1.9436895   -4.8404982    4941.8022            1 
   15900    2.0499694   -4.8249692     4902.718       -1e+20 
   16000    2.0081007   -4.7849984    4938.3365            1 
   16100    2.0499018   -4.7935016    4960.2668            1 
   16200    2.0491425    -4.811188    4938.2731            1 
   16300     1.981477   -4.8221903    4919.0545       -1e+20 
   16400    2.0385849   -4.8024694     4918.398            1 
   16500    1.9922252    -4.735097    4933.9922            1 
   16600    2.0212086   -4.7464377    4953.1864            1 
   16700    2.0553202   -4.6895495    4971.0639            1 
   16800     2.018976   -4.7437969    4937.5348       -1e+20 
   16900    2.0148558   -4.7928785    4934.6269            1 
   17000    1.9596321   -4.7791143    4910.3149            1 
   17100    2.0389127   -4.8019916    4926.0761            1 
   17200    2.0027107   -4.8244632    4910.7324            1 
   17300    2.0205611   -4.8147058    4906.8355            1 
   17400    1.9856764   -4.8197154    4926.8383            2 
   17500    2.0605656    -4.773455    4914.4824            1 
   17600    2.0098097    -4.779625    4928.8751            1 
   17700      2.00591   -4.7722373    4932.9867            1 
   17800    2.0119898   -4.7973863    4903.4026       -1e+20 
   17900    2.0409458   -4.7789064    4934.8746            1 
   18000    2.0199125   -4.7519649    4939.5117            1 
   18100    2.0035059   -4.7904476    4907.6957            1 
   18200    2.0237169   -4.7574162    4946.0908            2 
   18300     2.017253   -4.7371324    4951.4195            2 
   18400    1.9804488   -4.7685156    4908.4805            1 
   18500    1.9913643   -4.7657302    4933.2909            1 
   18600    2.0551034   -4.7821799    4931.8234            1 
   18700    1.9970284   -4.8070723    4949.6969            1 
   18800    1.9844489   -4.7972567    4893.0465            1 
   18900    2.0167848   -4.7706768    4903.2481            1 
   19000    2.0021054   -4.7495449    4950.8702            1 
   19100    2.0093017   -4.7461821    4958.0271       -1e+20 
   19200    2.0018487   -4.7459004     4911.447            1 
   19300    2.0157082   -4.7987743    4942.2133            1 
   19400    2.0340009   -4.8021796      4909.96            1 
   19500    1.9933155   -4.7461346    4938.8326            1 
   19600    1.9854052   -4.7681404    4913.7875            1 
   19700    2.0570984   -4.7860297    4928.3704            1 
   19800    1.9449606   -4.7311964    4948.6505       -1e+20 
   19900    2.0097138   -4.8105419    4881.0407            2 
   20000    2.0342863   -4.8095923    4920.0762            1 
   20100    1.9931013   -4.7661015    4938.0596            2 
   20200    2.0621108   -4.7162952    4940.2812       -1e+20 
   20300    1.9682518    -4.680008     4941.722            1 
   20400    2.0219038   -4.7734106    4947.2006            1 
   20500    2.0022229   -4.7479027    4931.6247            2 
   20600    2.0352792   -4.8107069    4897.8232            1 
   20700    2.0138358   -4.8138498     4935.942       -1e+20 
   20800    2.0263713   -4.8020019    4921.2217            1 
   20900    2.0164524   -4.7821174    4932.1462            2 
   21000    2.0446196   -4.7749152    4939.7227            2 
   21100    1.9845743   -4.8093148    4916.8504            1 
   21200    1.9687267   -4.7778602    4939.9461            3 
   21300    2.0456518   -4.7665483    4933.8861            1 
   21400     2.019802   -4.7768535    4948.6524            2 
   21500     2.017112   -4.8194495    4924.2393            2 
   21600     2.042063   -4.7770005    4925.7571            1 
   21700    2.0024815   -4.7450037    4946.0887            1 
   21800    2.0251893   -4.7728768    4936.4928            2 
   21900    2.0098066   -4.8277095    4921.7895            1 
   22000    2.0089301   -4.7872592    4933.9541       -1e+20 
   22100    2.0214889    -4.767307    4919.2638            1 
   22200    2.0455117   -4.7824828    4951.8986       -1e+20 
   22300    2.0261849   -4.8067377    4943.9196            1 
   22400    2.0359895   -4.7657608     4909.548            1 
   22500    2.0143802   -4.7716529    4985.6821       -1e+20 
   22600    2.0170052   -4.7042569    4960.3304            1 
   22700    2.0350705   -4.7487979    4911.6833            1 
   22800    1.9937787   -4.7792048    4970.3029            1 
   22900    2.0399434   -4.7704172    4918.9485            1 
   23000    2.0018453   -4.7594129    4938.5331       -1e+20 
   23100    2.0258186   -4.7531138    4956.2035            1 
   23200    1.9543977   -4.7627184    4931.8833            1 
   23300    2.0616891   -4.8194829    4916.5382       -1e+20 
   23400    1.9485932   -4.7559959    4932.7767       -1e+20 
   23500    2.0376396   -4.7682543    4948.0783       -1e+20 
   23600    2.0750316   -4.7438447    4966.4162       -1e+20 
   23700    2.0329532   -4.7736862    4970.1322       -1e+20 
   23800    2.0329546   -4.7903154    4924.3376            1 
   23900    2.0304736   -4.8137883    4928.9281            1 
   24000     2.008827   -4.7912328    4972.0207            1 
   24100    2.0689095   -4.7440799    4952.6655            1 
   24200    2.0189852    -4.748083    4934.7999            1 
   24300    2.0037984   -4.7968605    4949.4725            1 
   24400    2.0492395   -4.7449049    4950.6486            1 
   24500    2.0335581   -4.7498489    4922.3436       -1e+20 
   24600    2.0010188    -4.837507    4950.4912            2 
   24700      2.00345   -4.7714318    4917.7579            1 
   24800     2.010717   -4.7529503    4943.0326       -1e+20 
   24900     1.964316   -4.7059596    4962.6472            1 
   25000    2.0531062    -4.723138    4961.4007            1 
   25100    2.0159947   -4.7668224     4958.029            1 
   25200    1.9997723     -4.75821    4924.7433            1 
   25300     1.976226     -4.77198    4898.2091            1 
   25400    2.0380522   -4.8199068    4921.4428       -1e+20 
   25500    2.0049972     -4.78716    4936.9081            1 
   25600    2.0657459   -4.7531663    4922.7149            1 
   25700    1.9891542   -4.7637648    4955.9311            1 
   25800    2.0532145   -4.7893021    4933.7965            1 
   25900    2.0111226    -4.808362    4912.2374            1 
   26000    2.0301574   -4.7863994    4950.3649       -1e+20 
   26100    2.0480632   -4.7720715    4929.0995            1 
   26200    1.9782823    -4.754414    4946.8192            1 
   26300    2.0454562   -4.7841105    4939.8098            1 
   26400    1.9814935   -4.7514456    4933.0818            1 
   26500    2.0385234   -4.7832783    4907.9798       -1e+20 
   26600     1.964899   -4.7763193    4943.7562       -1e+20 
   26700    2.0424551   -4.7692688    4944.1998       -1e+20 
   26800    2.0049747   -4.7577386    4943.5673            1 
   26900     2.051935   -4.7549816    4957.5447       -1e+20 
   27000    2.0010296   -4.7622357    4929.0178            2 
   27100    2.0260757   -4.8199518    4955.0701            2 
   27200    2.0394219   -4.7857762    4927.6793            2 
   27300    2.0344336   -4.7941204    4921.3332            1 
   27400    1.9984088   -4.8096426    4950.4595       -1e+20 
   27500    2.0651948   -4.7866017    4939.8028            1 
   27600    2.0444218   -4.7854965    4917.1188       -1e+20 
   27700    2.0077601    -4.815538    4941.0078            1 
   27800    2.0461259   -4.7905451    4940.4598       -1e+20 
   27900    2.0276294   -4.7352882    4956.1053            1 
   28000    2.0150928   -4.7695922    4931.6427            1 
   28100    2.0008697   -4.7979004    4926.7868       -1e+20 
   28200    2.0177329   -4.7562175    4926.0153            1 
   28300     2.024726   -4.7469991    4965.6757            1 
   28400    1.9781978   -4.7494719    4938.1531            1 
   28500    2.0263275   -4.7741804    4928.8366       -1e+20 
   28600    2.0182524   -4.7836349    4929.1342            1 
   28700    2.0234616   -4.7367974    4936.5411            1 
   28800    1.9692575   -4.7774482    4961.6751            1 
   28900    2.0600946   -4.8143176    4886.3179            1 
   29000    2.0029677   -4.7770636    4922.1839       -1e+20 
   29100     2.001411   -4.7919249    4946.0445       -1e+20 
   29200    2.0431143   -4.7160242    4931.8344       -1e+20 
   29300    2.0220706   -4.7670888    4961.5832            1 
   29400    2.0162447   -4.8381025    4916.8305            2 
   29500     1.995158   -4.7555281    4929.1848            1 
   29600    2.0320161    -4.748632     4955.182       -1e+20 
   29700    1.9889313   -4.7647157    4914.3006            1 
   29800    1.9926358   -4.7886714    4912.7209            1 
   29900    2.0289125   -4.7600361     4955.852            1 
   30000    2.0365479   -4.7593118    4937.9829            1 
   30100     2.009455   -4.7961428    4905.2745            1 
   30200    2.0282592   -4.7927373    4932.8476            1 
   30300    2.0362809    -4.762344    4951.5058            1 
   30400    2.0508061   -4.7906356    4922.2412            1 
   30500    1.9748701   -4.8228082    4932.4286            1 
   30600    2.0237886   -4.7568492    4920.1913            1 
   30700    2.0164667   -4.7647314    4929.5169            1 
   30800    2.0356377   -4.8146813     4946.514       -1e+20 
   30900    2.0137727   -4.8184696    4920.0852            2 
   31000    2.0228879   -4.7341717    4949.7263            1 
   31100    2.0180969   -4.7369273    4955.0014            1 
   31200    1.9959463   -4.7723485    4918.9869            3 
   31300     1.999473   -4.8210705    4918.4897            1 
   31400    2.0445519   -4.7844348    4906.3956       -1e+20 
   31500    2.0452161   -4.7722345    4960.7468            1 
   31600    2.0504894   -4.8144615     4950.901            1 
   31700    2.0233716   -4.7756386    4924.1765            2 
   31800     2.034813   -4.7453825    4960.0503       -1e+20 
   31900    2.0027855   -4.7177337      4969.09            1 
   32000    1.9938678   -4.7443293    4927.3325            1 
   32100    2.0019373   -4.7980734    4928.5202            2 
   32200    1.9976302   -4.7793305    4966.1209            1 
   32300    2.0662813    -4.709317    4932.3576            1 
   32400    2.0016122   -4.7408496    4954.0032            1 
   32500    1.9816452   -4.8211826    4950.4713            1 
   32600    2.0326149   -4.7457908    4900.8481            1 
   32700    2.0136554   -4.7726519    4955.4227            1 
   32800    2.0224482   -4.7834495     4935.762       -1e+20 
   32900    2.0132459   -4.7667575    4896.8066            1 
   33000    1.9891453   -4.8302863    4934.5161            1 
   33100    2.0395811   -4.7745641    4917.4399            1 
   33200     2.018108   -4.7572381    4936.0134       -1e+20 
   33300    1.9916236   -4.7567685    4959.7641       -1e+20 
   33400     2.054563   -4.8060891     4904.332            1 
   33500    2.0070012     -4.79795    4946.3125            1 
   33600    2.0503136   -4.7984038    4941.3488            1 
   33700     2.023331   -4.7896309    4930.4133            1 
   33800    2.0816134   -4.8254227    4938.5342            1 
   33900    1.9858771   -4.7875875    4937.9626            1 
   34000    2.0455615   -4.7824846    4916.9277            1 
   34100    2.0279981   -4.6943116    4987.0547            1 
   34200    2.0502192   -4.7387915    4959.6152            1 
   34300    2.0159656   -4.7587646    4950.3345       -1e+20 
   34400    1.9883847   -4.7949438    4930.7688            1 
   34500    2.0442926   -4.7549531    4946.3187            1 
   34600    2.0291623    -4.770215     4962.651            1 
   34700    2.0159963   -4.8385709    4921.0647            1 
   34800    2.0174716   -4.7567535    4915.4112            2 
   34900    2.0064456   -4.7391269    4965.2849       -1e+20 
   35000    2.0369453   -4.7528984    4961.8598            1 
   35100    2.0098761   -4.7817298    4903.6316       -1e+20 
   35200    2.0177123   -4.7442997    4929.4033            1 
   35300     2.014972   -4.7883854    4933.0119            1 
   35400    2.0299988   -4.7977748    4924.5133            1 
   35500    2.0506059   -4.7495158    4968.3328            1 
   35600    2.0605992   -4.7346104    4946.9853            1 
   35700    1.9963636   -4.7544791    4948.5163       -1e+20 
   35800    1.9821361   -4.7722335    4915.6561            1 
   35900    2.0205635   -4.7612339    4909.8412            1 
   36000     2.010437   -4.8045937    4962.8802            1 
   36100    2.0442336   -4.7637165    4934.7571            1 
   36200    2.0243943   -4.7863883    4920.0763            2 
   36300    1.9965548   -4.7957318    4948.2242            1 
   36400    2.0280327   -4.7235693    4950.6968            1 
   36500    2.0025034    -4.739337    4959.1035            1 
   36600    2.0453284   -4.7844544    4946.5526       -1e+20 
   36700    2.0238836   -4.8027291    4923.3216            1 
   36800    2.0135579    -4.815381    4937.9698            1 
   36900    2.0503133   -4.7632815    4945.5375            1 
   37000    2.0142681    -4.738268    4956.4079            2 
   37100    1.9958322   -4.7399916    4918.9323       -1e+20 
   37200    2.0314194   -4.7652155    4911.3574            2 
   37300    1.9694982   -4.7894588    4939.2849            1 
   37400    2.0295173   -4.7570982    4918.9778            2 
   37500    2.0294308   -4.7751481    4950.2421       -1e+20 
   37600     1.984201   -4.7693209    4974.8866       -1e+20 
   37700    2.0472585   -4.7126371    4916.0763            2 
   37800    2.0012808   -4.6996534    4999.0825            1 
   37900    2.0402075   -4.7493448    4971.7278            1 
   38000    2.0265904   -4.7638192    4947.7334            1 
   38100    2.0032926   -4.7880913    4914.9426            1 
   38200    2.0402335   -4.7450878    4933.9816            1 
   38300    1.9941238   -4.7301844    4960.2379            1 
   38400    2.0171767   -4.7849013       4933.4       -1e+20 
   38500    2.0052566   -4.7728322    4920.6392            1 
   38600    1.9930027   -4.7112448    4974.0114            1 
   38700    2.0304239   -4.7537411    4941.8339            1 
   38800    2.0235687   -4.7356739    4937.8009            1 
   38900    1.9816585   -4.7778711    4946.1649       -1e+20 
   39000    2.0670965   -4.8109814    4919.1899            1 
   39100    2.0191286   -4.8168621    4928.0998            2 
   39200    2.0169599   -4.8039115    4942.6327       -1e+20 
   39300    2.0561945    -4.738351    4956.0695       -1e+20 
   39400    2.0344963   -4.7684275    4940.6189            2 
   39500    2.0096608   -4.8219418    4927.9767       -1e+20 
   39600     2.045709     -4.79574    4916.3545            2 
   39700    1.9921575   -4.8034456    4935.3239            1 
   39800    2.0420645   -4.7911456    4916.0386            1 
   39900    2.0235999   -4.8015907     4947.773            1 
   40000    2.0471584   -4.7809722    4960.9496            1 
   40100     2.017219   -4.7621891    4932.1536       -1e+20 
   40200    2.0259113   -4.7420773    4953.6235            1 
   40300     2.016477   -4.7918552    4933.7306            1 
   40400    2.0326694   -4.7934475    4941.0323            2 
   40500    2.0362228   -4.7438299    4954.5407            1 
   40600    2.0206253   -4.8081971     4941.391            2 
   40700    1.9867439   -4.7965722    4915.7846            1 
   40800    2.0525085    -4.760984    4921.9035            1 
   40900    1.9881647   -4.7698148    4942.6489            2 
   41000    2.0644812   -4.7686179    4950.2756            1 
   41100     2.009423   -4.7427647    4964.3683            1 
   41200    2.0471617   -4.7938515    4941.5867            1 
   41300    2.0229314   -4.7946646    4920.1629       -1e+20 
   41400    2.0344856   -4.7456505    4938.5731            2 
   41500    2.0147978   -4.7461201    4972.2898       -1e+20 
   41600     2.017474    -4.794651    4915.0291            1 
   41700    2.0360673   -4.8059599    4917.0423            2 
   41800    2.0539048   -4.8087307    4940.7212            2 
   41900    1.9963061   -4.8231394    4931.8434            1 
   42000    2.0355928    -4.795329    4939.4938            1 
   42100    2.0450213   -4.7625101    4968.8607            1 
   42200    1.9946552   -4.7696958    4974.7014            1 
   42300    2.0503102   -4.7275439    4915.6759            1 
   42400    2.0038437   -4.7972601    4960.1592            1 
   42500    2.0328183    -4.796893    4951.8863            1 
   42600    2.0778075   -4.7699733    4931.5303       -1e+20 
   42700    1.9916903   -4.7895341    4954.4851            2 
   42800    2.0319112   -4.7731996    4926.3726            1 
   42900    2.0345906    -4.742874    4938.4927            1 
   43000    2.0107254   -4.7871405    4962.8583            1 
   43100    2.0188154   -4.7394406    4905.5162            3 
   43200     1.987116   -4.7912231    4912.1398       -1e+20 
   43300    2.0056921    -4.793119    4940.9703            1 
   43400    2.0497681   -4.7500441    4942.2519            1 
   43500     1.971811   -4.7551673    4935.5893       -1e+20 
   43600      2.00409   -4.7990297    4911.8689       -1e+20 
   43700    2.0460064   -4.7812345    4928.6347       -1e+20 
   43800    2.0019704   -4.8008651    4941.5754            1 
   43900    2.0609533   -4.7784532    4939.4394       -1e+20 
   44000     2.012374   -4.7471743    4961.2013            1 
   44100    2.0342574   -4.7506389     4958.376       -1e+20 
   44200    2.0243358   -4.7260252    4962.6841            1 
   44300    2.0336331   -4.7878796    4912.3759            1 
   44400    1.9889795   -4.8175895    4934.8689            2 
   44500    2.0625427   -4.8035755    4917.1852            1 
   44600    1.9790713    -4.765803    4917.7166            1 
   44700    2.0186601   -4.7871267    4935.3011            1 
   44800    2.0451008   -4.8007949    4926.6115            1 
   44900    2.0066282   -4.7791059    4927.6549            2 
   45000    2.0076893   -4.8203149    4913.7027            1 
   45100    2.0270033   -4.8039348    4908.3605            1 
   45200    2.0214984   -4.7619438    4953.5526            1 
   45300     1.999583   -4.7356005    4949.5498            2 
   45400     2.014677   -4.8124511    4900.3171            2 
   45500     1.969362   -4.8609253     4917.143            1 
   45600    2.0261339   -4.8304107    4913.5917            1 
   45700    2.0418149   -4.8130293    4921.1708            1 
   45800    2.0332147    -4.792587    4950.2589            1 
   45900    2.0272619   -4.7690239    4940.1618            2 
   46000    2.0239862   -4.7958167    4940.5859       -1e+20 
   46100    2.0092097   -4.7514776    4920.0979       -1e+20 
   46200     1.999369   -4.7441481    4959.7327            1 
   46300    2.0049591    -4.775659    4941.5686       -1e+20 
   46400    2.0409298   -4.7775134     4906.548       -1e+20 
   46500    1.9916983   -4.7908947    4935.0318            1 
   46600    2.0570031   -4.7895347    4925.2706            1 
   46700     1.987075   -4.7811548    4932.1845            1 
   46800    2.0355159   -4.7988328    4930.5683            1 
   46900    1.9851336   -4.7472191    4914.6228            1 
   47000    2.0404386   -4.7980716    4942.1488            1 
   47100    1.9971909   -4.7697893    4973.3513            2 
   47200    2.0978329   -4.7420208    4923.2242            1 
   47300    2.0118512   -4.7504152    4946.4032       -1e+20 
   47400    1.9974626   -4.8198519    4937.3345            1 
   47500    2.0475063     -4.82461    4904.7298            2 
   47600    1.9843688   -4.7635795    4933.0719            1 
   47700    2.0064299   -4.7251813    4934.7847            1 
   47800    2.0595063   -4.7800095    4949.6991            1 
   47900    1.9835335   -4.7720727    4950.7296            2 
   48000    2.0253513   -4.7750287    4904.7196            1 
   48100    2.0372853   -4.7901556    4930.0907            1 
   48200    2.0292758   -4.7503518    4982.7351       -1e+20 
   48300    2.0402279   -4.7401356    4949.9741       -1e+20 
   48400    2.0020616   -4.7266652    4936.2952            1 
   48500    2.0035801   -4.7817816    4953.3527            1 
   48600    2.0208303   -4.7945084    4909.2571            1 
   48700    1.9707907   -4.7581127    4925.5248            2 
   48800    2.0157367   -4.7576484    4959.3948            1 
   48900    2.0427635   -4.7425291    4938.1569            1 
   49000    2.0155096   -4.7889687    4919.4205            2 
   49100    1.9951525   -4.8220801    4956.0661       -1e+20 
   49200    2.0361875   -4.7145301    4914.4823            1 
   49300    1.9916194   -4.7545687    4952.1641            1 
   49400    2.0670741   -4.7785561    4940.3555            1 
   49500    2.0187738   -4.7690416    4937.0438            1 
   49600    1.9999516   -4.8082842    4923.1142            1 
   49700    2.0170453   -4.8231996    4891.7384       -1e+20 
   49800    2.0418269   -4.8104391     4932.943            1 
   49900     2.032254   -4.8130131    4932.0985            1 
   50000    2.0164367   -4.8188137    4913.3124       -1e+20 
   50100    2.0231457   -4.7460977    4942.8651       -1e+20 
   50200    2.0233471   -4.8076185    4910.8306            1 
   50300    2.0300258   -4.7892409    4927.2361       -1e+20 
   50400    2.0147285   -4.7579726    4956.6216            1 
   50500    2.0126179   -4.7880007     4899.298            1 
   50600    2.0067321   -4.8016546     4927.843            1 
   50700    2.0185914   -4.7699352     4932.366            1 
   50800    2.0172474   -4.8096204    4904.2981       -1e+20 
   50900    1.9995546   -4.7757947    4906.5386            1 
   51000    2.0666185   -4.7932164    4933.7259            3 
   51100    2.0207972   -4.7765317    4963.7434       -1e+20 
   51200     2.037993   -4.7951092    4898.2981            1 
   51300    1.9920915   -4.7762935    4944.3869            1 
   51400    2.0365312   -4.8050773    4943.7059            1 
   51500    2.0396376   -4.7428863    4916.0512            1 
   51600    1.9724666   -4.7303946    4977.2798            1 
   51700    2.0241804   -4.7563007     4895.312            1 
   51800    2.0235335   -4.8067207     4921.315            1 
   51900    2.0118229   -4.7999729    4948.7911            1 
   52000    2.0380889   -4.7316058     4923.216            2 
   52100    2.0009734   -4.7260568    4957.6646            1 
   52200    1.9866477   -4.7629975    4909.9853            1 
   52300    2.0345749   -4.7732172    4952.8978            1 
   52400    2.0307507   -4.7515336    4962.2323            1 
   52500    2.0387622    -4.783883    4955.0585       -1e+20 
   52600    1.9949844   -4.7970858    4932.2401            1 
   52700    2.0419723   -4.7429276    4913.5428            1 
   52800    2.0306189   -4.7696784    4953.6026            1 
   52900    1.9750732   -4.7628929    4957.4381            1 
   53000    2.0317582   -4.7414231    4909.3654            1 
   53100    2.0277489   -4.7269291    4968.2665            1 
   53200    2.0151888   -4.7351746    4973.0822            1 
   53300    2.0424712   -4.7482813    4926.3256            1 
   53400    1.9886407   -4.7504657    4948.4123            1 
   53500    2.0272851   -4.7564196    4944.4139       -1e+20 
   53600    2.0158106   -4.7454992    4947.6423            2 
   53700    2.0778626   -4.7687916    4978.7138            1 
   53800    2.0373145   -4.7862262    4940.4387            1 
   53900    1.9857252   -4.7722945    4915.9131            1 
   54000    2.0338863   -4.7889461     4922.772            2 
   54100    2.0497277   -4.7789379    4974.1207            1 
   54200    2.0219968   -4.7907152    4916.7905            1 
   54300    1.9844738   -4.7706752    4912.3659            1 
   54400    2.0494286   -4.7648529    4934.5045            1 
   54500    2.0243077    -4.777388    4914.3073            1 
   54600    2.0230634   -4.7719408    4951.6227            1 
   54700    1.9957613   -4.7466773    4957.8791            1 
   54800    2.0584686   -4.7518553    4931.6607            1 
   54900    1.9993774   -4.7194644    4962.9503            1 
   55000    2.0197537   -4.7628596    4913.9891            1 
   55100    1.9767388   -4.7948658    4931.2252            1 
   55200    2.0066427   -4.7680702    4929.8722            1 
   55300    2.0594429   -4.7530822    4916.1325            1 
   55400    1.9986555   -4.7932208    4951.8581            1 
   55500    2.0251227   -4.8008931    4921.2003            1 
   55600    2.0091992     -4.78111    4914.2468            1 
   55700    1.9787546   -4.7293703    4947.5115            2 
   55800    2.0223323    -4.794261    4950.2261            2 
   55900     2.068368    -4.766103    4953.5852            1 
   56000    1.9813442   -4.7382082     4946.663            1 
   56100    2.0274379   -4.7759587     4931.493       -1e+20 
   56200    2.0753375   -4.7660866    4947.9846            1 
   56300    2.0140173   -4.7801083    4947.6962       -1e+20 
   56400    2.0280742   -4.7645995    4950.6113       -1e+20 
   56500    2.0408982   -4.7591484    4959.1976            1 
   56600    2.0163673   -4.7766984     4951.406            1 
   56700    2.0207435   -4.7636312    4955.1352            1 
   56800    2.0948653   -4.7971691    4928.4152            1 
   56900    1.9952443   -4.8105045    4973.5185            2 
   57000    2.0598272   -4.8426637    4907.2519            1 
   57100    1.9960719   -4.7995205    4903.6649            1 
   57200    2.0555123   -4.7563757    4939.2475            2 
   57300    2.0109425   -4.7342295    4948.7534       -1e+20 
   57400    2.0460536   -4.8103776    4928.7052       -1e+20 
   57500    1.9916374   -4.7982379    4929.3828            1 
   57600    2.0271803    -4.733949    4947.5259            1 
   57700    2.0161418   -4.7452241    4964.7686            1 
   57800    2.0086298   -4.7925044    4928.9475            1 
   57900    2.0476517   -4.7850159    4930.7097            1 
   58000     1.995886   -4.7796398    4957.5459            1 
   58100     2.057227   -4.7404473    4918.1186            1 
   58200    2.0225791   -4.7531539    4990.9257            1 
   58300    2.0555856   -4.8033984    4942.1944            1 
   58400    2.0011576   -4.7660159    4907.9171       -1e+20 
   58500    2.0428049   -4.7697475    4944.1249            1 
   58600    2.0134305   -4.7734511    4945.2609            2 
   58700    2.0268333   -4.7812469    4929.7109            1 
   58800    2.0167872   -4.7150244    4942.4559            1 
   58900    2.0244534   -4.8016265    4910.3459            1 
   59000    2.0115717   -4.8132152    4924.1325            1 
   59100    2.0000031   -4.7436191    4960.4029            1 
   59200     2.068786   -4.6934085     4920.467            1 
   59300     2.013161   -4.7825336    4966.1696            1 
   59400    2.0023132   -4.7821864    4941.6219            1 
   59500    2.0226479   -4.7416702    4910.7116            1 
   59600    1.9856508   -4.7823031    4949.0406            1 
   59700    2.0284138   -4.7605844    4934.8429            1 
   59800    2.0194198   -4.7855832    4942.2026            1 
   59900    2.0042405   -4.7714899    4923.4455            1 
   60000     2.002187   -4.7554322    4914.2026            1 
   60100    2.0422403   -4.8026575    4945.6784            1 
   60200    2.0023586    -4.795473    4914.7386            1 
   60300     2.031476   -4.8008801    4929.1039       -1e+20 
   60400    2.0151788   -4.7987298    4942.2335            1 
   60500    2.0173338   -4.7664035     4923.106       -1e+20 
   60600    2.0497958   -4.7724661    4944.7223            2 
   60700    2.0155118   -4.7997681    4945.1133            2 
   60800    2.0285304   -4.8021671    4904.9076            1 
   60900    2.0069282   -4.7794072    4912.1027            1 
   61000    2.0002645   -4.7990401    4951.7257            1 
   61100    2.0802577   -4.7935066    4917.0889            1 
   61200    1.9694286   -4.7653673    4943.6447       -1e+20 
   61300    2.0299502   -4.7820299    4931.4142            1 
   61400    2.0266707   -4.8004896    4910.4698            1 
   61500    2.0122194   -4.8031364    4913.3374            2 
   61600    2.0043881   -4.7621453    4951.5659            1 
   61700    2.0984896   -4.7811721    4922.4279            1 
   61800    1.9948549   -4.7864302     4947.544            2 
   61900    2.0274481   -4.7782032    4931.4538            1 
   62000    2.0090117   -4.7775702    4921.4644            1 
   62100    2.0160908   -4.7965122    4953.3609            1 
   62200    2.0378912   -4.7350741    4958.8332            1 
   62300    2.0061155   -4.7729084    4944.0846            1 
   62400    2.0327321   -4.7427471    4929.7262            1 
   62500    1.9953742   -4.7724593    4957.9866            1 
   62600    2.0057575   -4.8007748    4904.3134            1 
   62700    2.0221058    -4.769119    4905.4474            1 
   62800    1.9977638   -4.7862637    4975.0349            1 
   62900    2.0428009    -4.746852    4922.2134            1 
   63000    1.9906922   -4.7345502    4923.6908            1 
   63100    2.0311768   -4.7965932    4964.9055            1 
   63200    2.0417155    -4.813658     4945.876            3 
   63300    2.0142269   -4.7910919    4908.6533            2 
   63400    2.0165402   -4.7566379     4950.492            2 
   63500    2.0180783   -4.7598695    4938.0608            1 
   63600    2.0250387   -4.8011032     4911.812            1 
   63700    1.9777613   -4.7991607    4931.9574            1 
   63800    2.0591303   -4.7875645    4934.1571            2 
   63900    2.0095921   -4.7861585    4937.8656            1 
   64000    2.0177411   -4.7541566    4969.0509            1 
   64100    2.0422931    -4.708268    4964.9318            1 
   64200    2.0160718   -4.7655697    4949.9193            1 
   64300    2.0234042   -4.7947665    4924.3363            1 
   64400    2.0302185   -4.7197216    4940.7632       -1e+20 
   64500    2.0035736   -4.7202742    4945.3076            2 
   64600    2.0252697    -4.788396    4946.1454            1 
   64700    2.0090402   -4.7582818    4927.6931            1 
   64800    1.9847733   -4.7912146    4888.2804            1 
   64900    1.9794535   -4.7759926    4948.3203            1 
   65000    2.0345328   -4.7819605    4923.8586            1 
   65100    2.0332414   -4.7826464    4934.0684       -1e+20 
   65200    1.9927293   -4.7277195    4986.8426            1 
   65300    2.1203985   -4.7628685    4959.1191            1 
   65400    2.0284376   -4.7366683    4935.2661            1 
   65500    2.0033728   -4.7889169     4946.311            1 
   65600    1.9942971   -4.7970143    4914.5968            1 
   65700     2.009315   -4.7335914    4928.2345            3 
   65800    2.0391769   -4.7611685    4960.8692            1 
   65900    1.9831813   -4.7689736    4963.0549            1 
   66000    2.0756494   -4.7959103    4940.7527            1 
   66100     2.008239   -4.7765746    4928.6345            1 
   66200    2.0085193   -4.7789081    4912.1726       -1e+20 
   66300    1.9825473   -4.8198398    4910.9098            1 
   66400    2.0162131   -4.7933018    4898.0485            1 
   66500    1.9908627   -4.7147832    4969.6899            1 
   66600    2.0278381   -4.7492584    4947.7301            2 
   66700    2.0127277   -4.7635191    4916.2425       -1e+20 
   66800    2.0014325   -4.7688106    4935.0041            1 
   66900      2.03966    -4.750769    4961.0807            1 
   67000    2.0251346   -4.7938136    4941.5803            1 
   67100    1.9829253   -4.8176221     4902.418            1 
   67200    2.0108119   -4.7958233     4932.819            1 
   67300     2.018169   -4.8016972     4931.555            1 
   67400    1.9876495   -4.7751098    4908.3001            1 
   67500    2.0252418    -4.776769    4940.1546       -1e+20 
   67600    2.0700418   -4.7628992    4952.8544            1 
   67700    2.0163694   -4.7647737    4964.7148            1 
   67800    2.0181075   -4.7610391    4925.1371       -1e+20 
   67900    1.9972882   -4.8077054    4925.0801            1 
   68000    2.0256113   -4.7835154    4957.4202            2 
   68100    2.0785303   -4.7815754    4907.6615            1 
   68200    1.9551418   -4.7598183    4916.2319            1 
   68300    1.9976611    -4.743693    4937.9151            1 
   68400    2.0502912   -4.7638538     4925.811            2 
   68500    1.9850915   -4.7863622    4947.8146            2 
   68600    2.0296485    -4.764929    4940.4533       -1e+20 
   68700    2.0098112   -4.7605066    4937.7957            1 
   68800    1.9816027   -4.7649143    4944.0293            1 
   68900    2.0591358   -4.7596518    4946.6487            1 
   69000    2.0241672   -4.7590862    4932.5818            1 
   69100    2.0003613    -4.762752    4955.7306            1 
   69200    2.0564529   -4.7884294    4938.2071            1 
   69300    2.0363783   -4.7881878    4914.8485            1 
   69400    1.9842483   -4.7915047    4944.0455            1 
   69500    2.0413797   -4.7870406    4924.6815       -1e+20 
   69600    1.9781407   -4.7752251    4937.5961            5 
   69700    2.0350306   -4.8333067    4916.7683       -1e+20 
   69800    2.0125885   -4.7803142    4936.6566            1 
   69900     2.015123   -4.7754308    4942.4534            1 
   70000    2.0845942   -4.7896853    4909.3118            2 
   70100    1.9819549   -4.8128658    4959.4029            1 
   70200    2.0538732   -4.8233695     4902.548            1 
   70300    2.0087013   -4.7945552    4923.7832            1 
   70400    2.0197298   -4.7970055    4944.2377            1 
   70500    2.0078236   -4.7872243    4912.4458            1 
   70600    2.0508352   -4.8488503    4909.6457            1 
   70700     2.015451   -4.8383804    4936.5679            1 
   70800     1.990183   -4.7577085    4890.1031       -1e+20 
   70900    2.0020266   -4.7643251    4952.5165            1 
   71000    1.9960372   -4.7524233    4937.8392       -1e+20 
   71100    2.0404616   -4.7521055    4905.1679            1 
   71200    1.9853388   -4.8163518    4972.1384            1 
   71300    2.0399904   -4.7717142    4946.4132            1 
   71400    2.0454922   -4.7734887    4934.3696            1 
   71500    1.9812973   -4.7936652    4953.5822            1 
   71600    2.0746957   -4.7832115    4923.8822            1 
   71700    1.9994137   -4.7652034    4950.3698            3 
   71800    2.0233377   -4.7667412    4945.0091       -1e+20 
   71900    2.0227699   -4.7769104      4933.22            1 
   72000    1.9549746   -4.7380428    4921.4043            1 
   72100     2.090821   -4.8256487      4893.07            1 
   72200    1.9777374   -4.8138632    4942.0697            1 
   72300    2.0123351     -4.77875    4925.8109            3 
   72400    2.0329868   -4.7313198     4928.638            1 
   72500    2.0089624   -4.7708042    4962.1218            1 
   72600    2.0190098   -4.8234779    4918.1608            1 
   72700    2.0269354   -4.7622976    4907.4288            1 
   72800    1.9994544   -4.8036936    4947.6733       -1e+20 
   72900    2.0285804   -4.7520427    4933.9023            2 
   73000    2.0419017   -4.7926149    4933.9313       -1e+20 
   73100    1.9782059   -4.7857285     4945.308            1 
   73200    2.0359433   -4.7681165    4905.4676            1 
   73300    2.0065335   -4.7967303    4944.6778            1 
   73400     2.031364   -4.7871602    4932.9349            2 
   73500    2.0158779   -4.7813391    4917.9491            3 
   73600    1.9906678   -4.7803019    4945.2734            1 
   73700    2.0240706   -4.7037106    4941.2062            1 
   73800    1.9983929   -4.7258071    4945.2207            1 
   73900    2.0047362   -4.8036787    4915.7986            1 
   74000    2.0258078    -4.775425    4965.2052            3 
   74100    2.0076869   -4.7083597     4944.862            1 
   74200    2.0105564   -4.7643126    4947.0822            1 
   74300    2.0005757   -4.7875017    4924.2799            1 
   74400    2.0429845   -4.8280237     4910.278            1 
   74500     2.014542   -4.7718455    4967.2832            1 
   74600    2.0022557   -4.7347923    4933.0284            1 
   74700    2.0225945   -4.7576529    4923.9084            2 
   74800    2.0110187   -4.7411703    4975.9308            1 
   74900    2.0177004   -4.7981591      4909.98            1 
   75000    2.0369342   -4.7593887    4931.9708       -1e+20 
   75100    1.9986399   -4.7393524    4974.0313            1 
   75200    2.0380801   -4.7674854    4909.5481            1 
   75300    2.0082036   -4.8339835    4904.2967            3 
   75400    2.0015859   -4.7557794    4939.8748            1 
   75500    2.0397027   -4.7707642    4950.7525            1 
   75600    1.9946939   -4.7754829    4953.3857            1 
   75700    2.0723589   -4.7900911    4949.1655       -1e+20 
   75800    2.0261491   -4.7961258    4954.1957       -1e+20 
   75900    2.0321575   -4.8278995    4927.4313            1 
   76000    1.9974615   -4.7901945    4916.3682            1 
   76100    2.0104369   -4.7661275    4962.9461            1 
   76200    2.0590918   -4.7914149    4934.2501            1 
   76300    2.0436251    -4.832846    4918.5966            1 
   76400    1.9550192    -4.792923    4919.8619            1 
   76500     2.044103   -4.7444383    4893.1437            2 
   76600    2.0239371   -4.7506954    4954.0872            2 
   76700    2.0386633   -4.7902873    4973.4646            2 
   76800    2.0005486   -4.7583894    4922.4608       -1e+20 
   76900    2.0201457   -4.7531456    4934.3521            1 
   77000    2.0071701   -4.7143657    4988.5137            1 
   77100    2.0180169   -4.7506486    4952.9137            1 
   77200    2.0133928   -4.7724818    4938.8104            2 
   77300    2.0530716   -4.7249706    4962.5326            1 
   77400    1.9874957   -4.7152554    4964.3618            2 
   77500    2.0186995    -4.747605    4939.8193            1 
   77600    1.9996208   -4.8068649    4940.1239            1 
   77700    2.0171803   -4.7524648    4928.5472            1 
   77800    2.0158197   -4.7024184    4935.7598            1 
   77900    2.0179478   -4.7573738    4963.5664            1 
   78000    2.0795298   -4.7509314    4985.8588            2 
   78100    2.0761308   -4.8047424    4923.8576            1 
   78200    1.9911798   -4.7753247     4927.317            1 
   78300     2.031789   -4.7741588    4941.3045            1 
   78400    2.0231351   -4.7359777     4942.348       -1e+20 
   78500    1.9853427   -4.7537698      4949.06            1 
   78600    2.0613779   -4.7926639    4935.3167            2 
   78700    2.0073925   -4.7873611    4931.1968            1 
   78800    1.9913589   -4.7862868    4930.3713            1 
   78900    2.0499982   -4.7387456    4913.6756            1 
   79000    1.9715729   -4.7496678    4935.1334       -1e+20 
   79100    2.0133206   -4.7542655    4954.3044            1 
   79200    2.0850765   -4.7972992    4943.2078            2 
   79300    2.0153734   -4.8094974    4937.7203            1 
   79400    2.0080572   -4.7934938    4946.5239       -1e+20 
   79500    2.0532071   -4.7728629    4918.2963            1 
   79600    2.0060193   -4.8061699    4915.7622            1 
   79700    2.0290836   -4.7903423    4922.3827            1 
   79800    2.0332275   -4.7758154    4932.8722            1 
   79900    1.9986747   -4.8094206    4920.9789            2 
   80000    1.9990283   -4.7710944    4933.8983            1 
   80100    2.0361977   -4.7627699    4926.7388       -1e+20 
   80200    1.9949281   -4.7883799    4941.9349            2 
   80300    2.0103007   -4.7647718    4960.7326            1 
   80400    2.0614971   -4.7477882    4929.2736            1 
   80500    1.9607199   -4.7602447     4971.219       -1e+20 
   80600    2.0741226   -4.8036579    4950.3453            1 
   80700    2.0347029   -4.7899608    4937.7244            1 
   80800    1.9853013   -4.8008948    4946.7303            1 
   80900    2.0517287   -4.7864635    4937.6394            2 
   81000    2.0652881   -4.8336421    4902.8712       -1e+20 
   81100    1.9819396   -4.8025251    4923.1902            1 
   81200    2.0530143   -4.8070694    4918.3138            1 
   81300    1.9970405   -4.7815153    4912.7174       -1e+20 
   81400    2.0290298   -4.8406039    4915.1889            1 
   81500    1.9946681   -4.7384371    4972.3997            1 
   81600    2.0840506   -4.7796327    4961.9398            2 
   81700    2.0304338   -4.8050376    4936.6242            1 
   81800    2.0098194   -4.7867124    4923.8476       -1e+20 
   81900    2.0233009    -4.774311    4923.7623            1 
   82000    2.0178647   -4.7782214    4915.0076            1 
   82100    2.0166691   -4.8188096    4946.4036       -1e+20 
   82200    2.0462692   -4.7721277    4916.0106            1 
   82300    1.9818577   -4.7553609    4918.1594            1 
   82400    2.0072891   -4.7946434    4921.1799            1 
   82500    2.0233776   -4.7540679    4929.9582            1 
   82600    2.0526922   -4.8068141    4952.6455            1 
   82700    2.0140626   -4.7930956    4941.8805            1 
   82800    2.0041771    -4.777552    4922.7776            1 
   82900    2.0333851   -4.7723968    4931.7189            1 
   83000    2.0083908   -4.7438111    4960.6681       -1e+20 
   83100    2.0022792   -4.7670255    4917.1086            1 
   83200    2.0256597   -4.7655476    4945.9268       -1e+20 
   83300    2.0150962   -4.8078077    4957.1718            1 
   83400    2.0608708   -4.7490962    4929.5241            2 
   83500    2.0099592   -4.8028435     4955.947       -1e+20 
   83600    2.0312576   -4.7975079    4932.0854            1 
   83700    2.0273308   -4.8076788    4901.3575            1 
   83800    2.0500774   -4.7322719    4964.8621            1 
   83900    2.0520528   -4.7634678    4945.2775            1 
   84000    1.9958108   -4.7634799    4952.1817            1 
   84100    2.0287192   -4.7605686    4941.5361            1 
   84200    1.9936019   -4.7804823    4924.4995            1 
   84300    1.9922865   -4.8407209    4888.6961            1 
   84400    2.0097831   -4.8057665    4932.4381            1 
   84500    2.0178689    -4.752702    4940.0426            2 
   84600     2.026869   -4.7437883    4975.7196            1 
   84700    2.0297807    -4.762265    4951.8411            1 
   84800    2.0540484   -4.8023594    4906.4677       -1e+20 
   84900    1.9979022   -4.8134602    4928.0466            1 
   85000    2.0359316   -4.8178676    4918.6698            1 
   85100    2.0781224   -4.7904989    4915.3392            2 
   85200    1.9637341   -4.7740002    4966.8868       -1e+20 
   85300    2.0593592   -4.7950494    4928.3462            1 
   85400    2.0180207   -4.7448114    4955.8864       -1e+20 
   85500    1.9969603   -4.7553801     4958.632            2 
   85600    2.0342109   -4.8027547     4911.651            3 
   85700     2.015721   -4.7508553    4925.7565       -1e+20 
   85800     2.016867   -4.7661643    4965.9763            1 
   85900    2.0107982   -4.7512148    4934.3147            1 
   86000    2.0041563    -4.702696    4963.9458            1 
   86100    2.0201687   -4.7233109    4962.0292            1 
   86200    2.0484337    -4.805812    4913.4884            1 
   86300    1.9921173    -4.821958    4936.6686            1 
   86400    2.0525213   -4.7826332    4924.9411            1 
   86500    2.0228821   -4.7940459    4908.4286            1 
   86600    2.0079524   -4.8175307    4937.9943            1 
   86700    2.0151388    -4.771984    4926.4706            1 
   86800    2.0058153    -4.746804    4930.6081            1 
   86900    2.0236198   -4.7482062    4973.8761            2 
   87000    1.9916456   -4.7568321    4941.1578       -1e+20 
   87100    2.0338032   -4.7750151    4927.1678            1 
   87200    1.9927969   -4.8066948    4936.4479            1 
   87300    2.0249623   -4.7692121    4911.3545            1 
   87400    2.0296517   -4.8167041    4949.1826            1 
   87500    2.0224862   -4.7896981    4939.8874            1 
   87600    2.0420196   -4.7743297    4929.5279       -1e+20 
   87700    2.0356971   -4.7986245    4946.9472            1 
   87800    2.0138527   -4.7994189      4921.55            1 
   87900    1.9952102   -4.7476572    4929.4452       -1e+20 
   88000    2.0477675   -4.7932551    4930.3584            1 
   88100    1.9766242   -4.7799792    4907.6381            1 
   88200    2.0330287    -4.839936    4903.3863            1 
   88300    1.9841142   -4.8463626    4890.6292            1 
   88400    1.9911052   -4.7994443    4928.5666            2 
   88500    2.0217044   -4.7367514    4935.2453            1 
   88600    2.0129244    -4.773627    4926.2599            1 
   88700    1.9841053   -4.7645453     4955.088            1 
   88800    2.0404946   -4.7539608     4946.654       -1e+20 
   88900    2.0476891   -4.8121842    4946.9594            1 
   89000    2.0174758   -4.8599782    4913.7196            1 
   89100    2.0092476   -4.7711604     4923.476            1 
   89200    2.0184222   -4.7677432    4934.6026            1 
   89300    1.9865889   -4.8006755    4920.7586            1 
   89400    2.0168874   -4.7781338    4938.7276            1 
   89500    2.0444019   -4.7271003    4949.9092            1 
   89600    2.0012383   -4.7558649    4948.4471            1 
   89700     2.052878   -4.7641389    4929.3806            1 
   89800    1.9969439   -4.7674722    4964.2333            2 
   89900    2.0167606   -4.7977039    4916.9917            1 
   90000    2.0377982   -4.8054209    4920.4766            1 
   90100    2.0046753   -4.7916548    4948.3821            1 
   90200    2.0355603   -4.7886768    4920.3552            2 
   90300    2.0085142   -4.7913603    4934.1033            1 
   90400    2.0115301    -4.718381    4953.5543            1 
   90500    2.0980208   -4.7417014    4926.5518            1 
   90600    2.0015865   -4.8068349    4974.3183            1 
   90700    2.0192855   -4.7758718    4905.1598       -1e+20 
   90800    2.0412275   -4.8317906    4920.3286            1 
   90900    2.0020534   -4.7536892     4971.856       -1e+20 
   91000    2.0541774   -4.7345395    4942.4383       -1e+20 
   91100    1.9987905   -4.7388441    4941.8074            2 
   91200    2.0207893   -4.7761566    4961.2442            1 
   91300    2.0052817   -4.7710708    4902.9627            1 
   91400    2.0008662   -4.7924774    4948.5721            1 
   91500    2.0241057   -4.7476494    4951.1485            2 
   91600    1.9942993   -4.7351351    4936.0677            1 
   91700    1.9974173    -4.784492    4915.1881            3 
   91800    2.0350133   -4.7720368    4926.8873            1 
   91900    2.0230466   -4.7682293    4956.0896            1 
   92000    2.0013267   -4.8138751    4928.0941            1 
   92100    2.0655455   -4.7818957    4924.3512            1 
   92200    2.0086091   -4.7869709    4939.1755            1 
   92300    2.0230762   -4.7715561    4931.4693            2 
   92400    2.0235806   -4.7354482    4947.5758            2 
   92500    2.0005456   -4.7560645     4946.915            1 
   92600    2.0185109   -4.7459362    4958.6265            1 
   92700    1.9979302   -4.7664484    4922.9716            1 
   92800    1.9960437   -4.7852205    4920.3334            1 
   92900     2.028231   -4.7686825    4944.5208            2 
   93000    2.0054467   -4.7984675     4921.486            1 
   93100    2.0306895   -4.7951039    4920.6745            1 
   93200    1.9985532    -4.768399    4936.7094            1 
   93300    2.0574479   -4.7838089    4923.4336            1 
   93400    2.0114668    -4.761631    4971.0876       -1e+20 
   93500    1.9908719   -4.7536646     4922.859            1 
   93600    2.0629768   -4.7772804    4928.1499            1 
   93700    2.0106099   -4.7654633     4962.896            1 
   93800    2.0311663   -4.7252005    4957.9618            1 
   93900    2.0476206   -4.7291212    4959.0833            1 
   94000    2.0103415   -4.7468955    4924.2013            1 
   94100    1.9799721   -4.7878404    4918.2921            1 
   94200    2.0359887   -4.7911642     4920.825            1 
   94300    2.0563102   -4.8126757    4954.0232            1 
   94400    2.0374261   -4.8186811    4950.8954       -1e+20 
   94500    2.0357545   -4.7996482    4910.4566            4 
   94600    2.0656617    -4.776864    4942.7539            1 
   94700    2.0026856   -4.7891031    4945.5481       -1e+20 
   94800    2.0116151   -4.7786794    4913.4671       -1e+20 
   94900     2.050438   -4.8155122     4925.822            1 
   95000    2.0058908    -4.772712    4946.8364       -1e+20 
   95100    2.0311858   -4.7642007    4936.0978            1 
   95200    2.0115662   -4.7780727    4952.7163            1 
   95300    2.0243249   -4.8101995    4896.4728            1 
   95400    2.0234556   -4.8685138    4904.1951       -1e+20 
   95500    2.0212092   -4.8111554    4939.0528            1 
   95600    2.0153093   -4.6822779     4916.707            2 
   95700    2.0027188   -4.7558977    4939.0766            1 
   95800    1.9880027   -4.7724414     4977.356            1 
   95900    2.0889637   -4.7564335    4928.2244            1 
   96000    2.0230393   -4.7941055    4945.6771            1 
   96100    2.0141857   -4.8017958    4944.4827            1 
   96200    2.0530246   -4.7599879    4928.2224       -1e+20 
   96300    1.9807845   -4.7751718    4939.3342            2 
   96400    2.0405432   -4.7921295    4923.5728            1 
   96500    2.0531792    -4.764521    4952.4097            1 
   96600    2.0258219   -4.8052434    4936.0475            1 
   96700    2.0267802   -4.7423495    4945.8229            1 
   96800    2.0127744    -4.748429     4967.157            1 
   96900    2.0297894   -4.7722887    4930.8771            1 
   97000    2.0135178   -4.8258618    4928.5027            1 
   97100    1.9970912   -4.7847835    4881.9282       -1e+20 
   97200    2.0422746   -4.7867778    4932.9604            1 
   97300    1.9972737   -4.7971705    4930.8109            1 
   97400    2.0347463   -4.8086712    4913.4549       -1e+20 
   97500    2.0132357   -4.7928802    4912.7444            2 
   97600    1.9749507   -4.8245021    4897.7754            1 
   97700    2.0078587    -4.793089    4916.1988            1 
   97800    2.0204647   -4.7709094    4950.0791       -1e+20 
   97900    2.0281601   -4.7595215    4934.3275            1 
   98000    2.0388741   -4.7587664    4971.5065            1 
   98100    1.9995463   -4.7610047    4984.6124            1 
   98200    2.0479565   -4.7298072     4909.544            1 
   98300    1.9864434   -4.7786432    4943.2522            2 
   98400     2.029302    -4.809821    4917.1688            3 
   98500    2.0097809   -4.7919045    4904.4331       -1e+20 
   98600    2.0252638   -4.7815319    4947.2588            2 
   98700      1.99668   -4.7731834     4924.196            1 
   98800    2.0570311   -4.7905593    4929.8579            1 
   98900    2.0258076   -4.7803468    4966.9156       -1e+20 
   99000      2.00773   -4.7679286    4928.0533            1 
   99100     2.069774   -4.8111274    4922.0302            1 
   99200    2.0029416   -4.7804563    4973.7709            1 
   99300    2.0733876   -4.7739845    4931.4311            1 
   99400    1.9932287   -4.7703791     4923.714            2 
   99500    2.0369861   -4.7554658    4940.3372            2 
   99600    2.0388369   -4.7229677    4972.6914            1 
   99700     2.024162    -4.763521    4958.8316            1 
   99800    2.0142373   -4.7341591    4938.3464            1 
   99900    2.0459641   -4.7490199    4960.8048            2 
  100000    2.0092983   -4.7590079    4942.3965            1 
  100100    2.0001652   -4.7647343    4901.8967            1 
  100200     2.020579   -4.7795097    4936.9929       -1e+20 
  100300    1.9894463    -4.774973    4966.8636       -1e+20 
  100400    2.0950068   -4.7561942    4907.4131            1 
  100500    1.9853819   -4.7504844    4946.6874            1 
  100600    2.0284009    -4.788576    4940.7299            1 
  100700    2.0149996   -4.7486116    4932.2836       -1e+20 
  100800    2.0172449   -4.7695657    4965.2364            1 
  100900    2.0400972   -4.7625335    4944.0123            1 
  101000    1.9850745   -4.7913334    4955.8378            1 
  101100    2.0404145   -4.7982012    4913.4856            1 
  101200    2.0084711   -4.7502162    4923.9861       -1e+20 
  101300     2.019011   -4.7624457    4975.8648            1 
  101400    2.0139789    -4.730001    4947.2044            1 
  101500    2.0501791   -4.7105721    4969.9981            1 
  101600    2.0374213   -4.7674192    4984.3374            2 
  101700    2.0369568   -4.7869008    4932.3711            1 
  101800    2.0080292   -4.8020342      4912.79            1 
  101900    2.0616245   -4.8165756    4920.7663            1 
  102000    2.0074228   -4.7790167    4987.7144            1 
  102100    2.0311103   -4.8118182    4910.6014            1 
  102200    2.0340987   -4.8189793    4913.9747            2 
  102300    1.9803903   -4.7647967    4959.5941            1 
  102400    2.0791139    -4.765782    4931.1992            2 
  102500    2.0085378   -4.7444572    4937.6605            1 
  102600    2.0141922   -4.7780141    4935.5667            1 
  102700    1.9854021   -4.7920198    4913.1678            1 
  102800    2.0424386   -4.7821228    4940.6237            1 
  102900    2.0578923   -4.8304844    4920.3021            1 
  103000    2.0065433   -4.8277312    4928.6356            2 
  103100    2.0433241     -4.79116    4924.9389            1 
  103200    2.0266498   -4.7530861    4955.6854       -1e+20 
  103300    2.0353615   -4.8003044    4953.2915            1 
  103400     2.060889   -4.7895863    4922.6943            1 
  103500    1.9802051   -4.7602074    4925.6772            2 
  103600    2.0322169   -4.7908305    4920.3275            1 
  103700    2.0122992   -4.7658285    4945.5456            1 
  103800    2.0180853   -4.7933845    4925.0181            1 
  103900    2.0240454   -4.8047568    4917.7838            1 
  104000    2.0105273    -4.753428    4965.7707            1 
Loop time of 339.32 on 20 procs for 100000 steps with 4000 atoms

Performance: 50925.437 tau/day, 294.707 timesteps/s
99.9% CPU use with 20 MPI tasks x no OpenMP threads

MPI task timing breakdown:
Section |  min time  |  avg time  |  max time  |%varavg| %total
---------------------------------------------------------------
Pair    | 24.847     | 26.62      | 28.048     |  19.0 |  7.85
Neigh   | 4.8447     | 5.0495     | 5.4124     |   5.5 |  1.49
Comm    | 14.603     | 15.895     | 18.603     |  29.9 |  4.68
Output  | 5.5888     | 5.59       | 5.605      |   0.1 |  1.65
Modify  | 282.66     | 283.87     | 284.7      |   3.7 | 83.66
Other   |            | 2.299      |            |       |  0.68

Nlocal:        200.000 ave         211 max         190 min
Histogram: 1 3 2 2 3 2 2 3 1 1
Nghost:        2113.35 ave        2137 max        2087 min
Histogram: 1 1 0 4 3 3 5 1 0 2
Neighs:        18410.8 ave       19991 max       16965 min
Histogram: 3 0 3 3 2 1 3 3 0 2
FullNghs:      36821.7 ave       39212 max       35042 min
Histogram: 3 2 1 4 2 3 2 2 0 1

Total # of neighbors = 736433
Ave neighs/atom = 184.10825
Neighbor list builds = 8383
Dangerous builds = 349

#clear
#
#next RN
#
#jump SELF
Total wall time: 0:05:41
