
units lj                  # Use reduced LJ style units
atom_style atomic         # Uncharged point particles
atom_modify map hash      # Needed for indexing of clusters etc
                          # Used to be able to find where atoms are in relation to each other.

# Define a lattice with which to populate the simulation cell. With units
# set to 'lj' the second argument to the lattice command is the reduced
# density rho* and the spacings are multiples of that required to acheive
# that density. Also define a simulation cell called 'box' in lattice units
# and fill it with atoms. Here we're creating a box which is ten lattice
# constants in each direction.
lattice fcc 1.0 spacing 1 1 1                 # All equal sizes - gives the right reduced density.
Lattice spacing in x,y,z = 1.5874011 1.5874011 1.5874011

region box block 0 10 0 10 0 10 units lattice # Defines a region, "box", in lattice units
create_box 1 box                              # Creates a simulation box as specified above,
Created orthogonal box = (0.0000000 0.0000000 0.0000000) to (15.874011 15.874011 15.874011)
  2 by 2 by 7 MPI processor grid
                                              # with one type of atom
create_atoms 1 box                            # Creates particles on lattice points
Created 4000 atoms
  using lattice units in orthogonal box = (0.0000000 0.0000000 0.0000000) to (15.874011 15.874011 15.874011)
  create_atoms CPU = 0.004 seconds


# Set the mass of the first (and only) atom type.
mass 1 1.0

# Lennard-Jones interactions between particles, 3.5 sigma cut-off. Apply
# long range tail corrections to energy and pressure and set all coefficients
# to unity since we work in reduced units here. Note that this doesn't shift
# the potential such that it goes to zero at the cutoff. That would require
# pair_modify('shift', 'yes').
pair_style lj/cut  3.5      # non-GPU version
pair_modify tail  yes
pair_coeff 1  1  1.0  1.0   # Intearaction between 1 and 1 set with epsilon = 1 and sigma = 1

write_data data.*
System init for write_data ...
Neighbor list info ...
  update every 1 steps, delay 10 steps, check yes
  max neighbors/atom: 2000, page size: 100000
  master list distance cutoff = 3.8
  ghost atom cutoff = 3.8
  binsize = 1.9, bins = 9 9 9
  1 neighbor lists, perpetual/occasional/extra = 1 0 0
  (1) pair lj/cut, perpetual
      attributes: half, newton on
      pair build: half/bin/atomonly/newton
      stencil: half/bin/3d
      bin: standard

#############################
#   M E L T   S Y S T E M   #
#############################

velocity all create 2.4 9622624 mom yes dist gaussian # Assign velocities
                                                    # Temperature 2.4, random number seed, zero linear momentum
						                                                        # Gaussian distribution

timestep 0.002   # simulation timestep
thermo 100       # output thermodynamic data every 100 steps

# Define a fix  in this case with index 1 applied to all
# particles in the simulation. This fix is for simulations
# in the anisotropic NPT ensemble. Note that we use the MTK
# correction.
fix 1 all npt temp 2.4 2.4 0.1 iso 5.68 5.68 0.5 mtk yes tchain 5 pchain 5 # Use NPT ensemble
                                                                         # Set temperature and pressure and damping
                                                                         # Numbers of thermostats in chain and in barostat
run 1000         # run for 10000 steps
Per MPI rank memory allocation (min/avg/max) = 3.642 | 3.654 | 3.657 Mbytes
Step Temp E_pair E_mol TotEng Press Volume 
       0          2.4   -8.3859253            0   -4.7868253   -2.2405722         4000 
     100     1.256502   -6.5137603            0   -4.6294785    5.5061441    4089.3939 
     200    1.4710413   -6.2962202            0   -4.0902099    6.1259073    4136.4974 
     300    1.5753793   -6.0048156            0   -3.6423375    5.8881655    4269.3275 
     400     1.695533   -5.7167441            0   -3.1740804    5.9576171    4396.1624 
     500    1.7977703    -5.422775            0   -2.7267936    5.9233545    4540.2438 
     600    1.8751095    -5.133639            0   -2.3216778    5.8305819    4705.3349 
     700    2.0067687   -4.9044304            0   -1.8950299    5.8181833    4845.3775 
     800    2.1683387   -4.7479596            0   -1.4962646    5.6703181    4968.6147 
     900    2.2591539   -4.5766532            0   -1.1887696    5.5447205    5099.1514 
    1000    2.3772702    -4.449968            0  -0.88495416    5.8567059    5140.3387 
Loop time of 0.325837 on 28 procs for 1000 steps with 4000 atoms

Performance: 530326.234 tau/day, 3069.018 timesteps/s
99.6% CPU use with 28 MPI tasks x no OpenMP threads

MPI task timing breakdown:
Section |  min time  |  avg time  |  max time  |%varavg| %total
---------------------------------------------------------------
Pair    | 0.1482     | 0.16238    | 0.17764    |   2.1 | 49.83
Neigh   | 0.028976   | 0.030432   | 0.033231   |   0.6 |  9.34
Comm    | 0.08963    | 0.10654    | 0.12168    |   2.6 | 32.70
Output  | 0.00020723 | 0.00021324 | 0.00027897 |   0.0 |  0.07
Modify  | 0.021254   | 0.024034   | 0.030908   |   1.9 |  7.38
Other   |            | 0.002233   |            |       |  0.69

Nlocal:        142.857 ave         155 max         133 min
Histogram: 2 2 0 6 5 9 1 1 1 1
Nghost:        1918.21 ave        1934 max        1902 min
Histogram: 1 1 4 4 5 4 1 4 1 3
Neighs:        12690.1 ave       13892 max       11313 min
Histogram: 1 1 2 4 5 5 3 3 2 2

Total # of neighbors = 355324
Ave neighs/atom = 88.831000
Neighbor list builds = 87
Dangerous builds = 18

# Equilibrate just above the melting temperature to avoid step fn in T

fix 1 all npt temp 1.25 1.25 0.1 iso 5.68 5.68 0.5 mtk yes tchain 5 pchain 5
run 1000
Per MPI rank memory allocation (min/avg/max) = 3.643 | 3.655 | 3.658 Mbytes
Step Temp E_pair E_mol TotEng Press Volume 
    1000    2.3772702    -4.449968            0  -0.88495416    5.8567059    5140.3387 
    1100    1.9123587   -4.6299409            0     -1.76212    5.7356352    5010.0317 
    1200     1.748463   -4.9742749            0   -2.3522361    5.6314428    4809.1156 
    1300    1.5839166   -5.2240149            0    -2.848734     5.537847    4676.3458 
    1400    1.4493602   -5.3637066            0   -3.1902097    5.9258711    4553.5937 
    1500    1.3475159   -5.4905275            0   -3.4697589    5.8595912    4492.3019 
    1600    1.3105851   -5.6398502            0   -3.6744639     5.695843    4436.2068 
    1700    1.2621862   -5.7135111            0   -3.8207051    5.6775847    4398.9832 
    1800    1.2554554   -5.7810045            0   -3.8982922     5.797944     4358.617 
    1900    1.2634776   -5.8544833            0   -3.9597407    5.6933777     4339.129 
    2000    1.2398732   -5.8281233            0   -3.9687785    5.8601907    4332.3676 
Loop time of 0.312848 on 28 procs for 1000 steps with 4000 atoms

Performance: 552345.084 tau/day, 3196.441 timesteps/s
99.8% CPU use with 28 MPI tasks x no OpenMP threads

MPI task timing breakdown:
Section |  min time  |  avg time  |  max time  |%varavg| %total
---------------------------------------------------------------
Pair    | 0.15242    | 0.16121    | 0.17034    |   1.1 | 51.53
Neigh   | 0.025629   | 0.026503   | 0.028068   |   0.3 |  8.47
Comm    | 0.09025    | 0.099646   | 0.11122    |   1.7 | 31.85
Output  | 0.00020664 | 0.00021164 | 0.00026784 |   0.0 |  0.07
Modify  | 0.020114   | 0.022731   | 0.026627   |   1.3 |  7.27
Other   |            | 0.002551   |            |       |  0.82

Nlocal:        142.857 ave         151 max         135 min
Histogram: 2 2 0 6 4 4 5 3 1 1
Nghost:        2132.14 ave        2154 max        2113 min
Histogram: 3 1 3 2 7 5 3 1 2 1
Neighs:        15062.4 ave       16238 max       13803 min
Histogram: 1 1 3 3 6 5 3 3 1 2

Total # of neighbors = 421746
Ave neighs/atom = 105.43650
Neighbor list builds = 76
Dangerous builds = 11


# Small amount of linear quench

fix 1 all npt temp 1.25 ${temp} 0.1 iso 5.68 5.68 0.5 mtk yes tchain 5 pchain 5
fix 1 all npt temp 1.25 2.05 0.1 iso 5.68 5.68 0.5 mtk yes tchain 5 pchain 5
run 2000
Per MPI rank memory allocation (min/avg/max) = 3.644 | 3.655 | 3.658 Mbytes
Step Temp E_pair E_mol TotEng Press Volume 
    2000    1.2398732   -5.8281233            0   -3.9687785    5.8601907    4332.3676 
    2100    1.2985285   -5.8544634            0   -3.9071576    5.6487003    4346.8715 
    2200    1.3234392   -5.8348738            0   -3.8502114    5.7644427    4343.5933 
    2300      1.33582   -5.7808198            0   -3.7775908    5.6604813    4379.8159 
    2400    1.3550381   -5.7123191            0     -3.68027    5.5608255    4415.9907 
    2500    1.4035734   -5.6624508            0   -3.5576171    5.5492691    4444.6398 
    2600    1.4338517   -5.5744074            0   -3.4241675     5.781604    4464.9306 
    2700     1.481073   -5.5198345            0   -3.2987804    5.7137893     4498.445 
    2800    1.4861075   -5.4239139            0   -3.1953099      5.67423    4547.1384 
    2900      1.57415   -5.4040159            0   -3.0433811    5.7212948    4560.6471 
    3000    1.6042809   -5.3136862            0   -2.9078664    6.0337249    4576.1117 
    3100    1.6745402   -5.2974661            0   -2.7862838     5.809282    4612.5316 
    3200    1.6703699   -5.2128724            0    -2.707944    5.7156054     4660.893 
    3300    1.7104662   -5.1878535            0   -2.6227956    5.4469636    4707.9601 
    3400    1.7619527   -5.1115581            0   -2.4692897    5.7054627    4723.7637 
    3500    1.8057971   -5.0583785            0     -2.35036    5.6976601    4761.7182 
    3600    1.8370401   -4.9857196            0   -2.2308484    5.7205235    4798.0896 
    3700    1.9421832   -4.9894281            0   -2.0768816    5.8066124    4794.7404 
    3800    1.9333308   -4.9161929            0   -2.0169216    5.6596562    4848.6535 
    3900    1.9731511   -4.8677529            0   -1.9087662    5.6567337      4886.35 
    4000    2.0269323   -4.8290443            0    -1.789406    5.5752214    4922.3842 
Loop time of 0.626332 on 28 procs for 2000 steps with 4000 atoms

Performance: 551783.967 tau/day, 3193.194 timesteps/s
99.8% CPU use with 28 MPI tasks x no OpenMP threads

MPI task timing breakdown:
Section |  min time  |  avg time  |  max time  |%varavg| %total
---------------------------------------------------------------
Pair    | 0.29989    | 0.32032    | 0.34301    |   1.6 | 51.14
Neigh   | 0.051514   | 0.053045   | 0.054763   |   0.3 |  8.47
Comm    | 0.17624    | 0.20137    | 0.22907    |   2.6 | 32.15
Output  | 0.00041304 | 0.00042441 | 0.0005349  |   0.0 |  0.07
Modify  | 0.038581   | 0.046069   | 0.051713   |   2.0 |  7.36
Other   |            | 0.005102   |            |       |  0.81

Nlocal:        142.857 ave         148 max         136 min
Histogram: 2 3 1 4 2 4 2 0 2 8
Nghost:        1971.54 ave        1997 max        1957 min
Histogram: 3 8 4 2 2 2 2 3 1 1
Neighs:        13253.8 ave       14491 max       12414 min
Histogram: 4 3 1 7 4 4 2 0 1 2

Total # of neighbors = 371105
Ave neighs/atom = 92.776250
Neighbor list builds = 151
Dangerous builds = 3

#############################
# F R E E Z E  S Y S T E M  #
#############################

# Define solid atoms. This closely follows ten Wolde  Ruiz-Montero and Frenkel  Faraday Discuss  1996  104  93-110
# Compute components of the per-atom q6 vector
compute q6 all orientorder/atom degrees 1 6 components 6 nnn NULL cutoff 1.3 # compute the Q6 parameter.
                                                                             # Use all neighbours within 1.3 unit cell.

# get number of connections
compute coord_number all coord/atom orientorder q6 0.5

# An atom is solid if it has 8 or more connections (of a possible 14)
variable is_solid atom c_coord_number>=8
group solid dynamic all var is_solid    # Must be dynamic to update
dynamic group solid defined

# do clustering
compute cluster solid cluster/atom 1.3 # Create a cluster where all atoms within are solid and max 1.3 units from another member

# define chunks one chunk per cluster
compute clus_chunks solid chunk/atom c_cluster nchunk every compress yes  # Says which atoms are in which chunk

# count the size of each chunk
compute size_chunks solid property/chunk clus_chunks count


# Find the maximum entry in the vector of chunk sizes
variable max_n equal max(c_size_chunks)


# Thermo style which includes this variable
thermo_style custom step temp pe vol v_max_n

thermo ${N}  # Print the thermo information every 100 steps
thermo 100  

# Reset the npt fix at a lower temperature (below freezing)
fix 1  all npt temp  ${temp} ${temp}  0.1  iso  5.68  5.68  0.5  mtk yes tchain  5  pchain  5
fix 1  all npt temp  2.05 ${temp}  0.1  iso  5.68  5.68  0.5  mtk yes tchain  5  pchain  5
fix 1  all npt temp  2.05 2.05  0.1  iso  5.68  5.68  0.5  mtk yes tchain  5  pchain  5

dump dmp2 all dcd ${N} traj_${rand}.dcd
dump dmp2 all dcd 100 traj_${rand}.dcd
dump dmp2 all dcd 100 traj_462431.dcd


# fix rnuntil all halt ${N} v_max_n >= 3980 error soft message no   # Stop when solidified


run 100000 # 5000000  # Run for this many steps
Neighbor list info ...
  update every 1 steps, delay 10 steps, check yes
  max neighbors/atom: 2000, page size: 100000
  master list distance cutoff = 3.8
  ghost atom cutoff = 3.8
  binsize = 1.9, bins = 9 9 9
  4 neighbor lists, perpetual/occasional/extra = 1 3 0
  (1) pair lj/cut, perpetual
      attributes: half, newton on
      pair build: half/bin/atomonly/newton
      stencil: half/bin/3d
      bin: standard
  (2) compute orientorder/atom, occasional
      attributes: full, newton on
      pair build: full/bin/atomonly
      stencil: full/bin/3d
      bin: standard
  (3) compute coord/atom, occasional
      attributes: full, newton on
      pair build: full/bin/atomonly
      stencil: full/bin/3d
      bin: standard
  (4) compute cluster/atom, occasional
      attributes: full, newton on
      pair build: full/bin/atomonly
      stencil: full/bin/3d
      bin: standard
Per MPI rank memory allocation (min/avg/max) = 9.358 | 9.362 | 9.366 Mbytes
Step Temp PotEng Volume v_max_n 
    4000    2.0269323   -4.8290443    4922.3842       -1e+20 
    4100    2.0452081   -4.7776503    4950.4726            2 
    4200    2.0770201   -4.7467961    4933.5171       -1e+20 
    4300    2.0312773   -4.8063949    4978.6065       -1e+20 
    4400    2.0418611   -4.7304128     4971.989            1 
    4500    2.0976669   -4.7203177    4945.4828            1 
    4600    2.0107418   -4.7415994    4987.0659            1 
    4700    2.0972009   -4.7802332    4943.8101            1 
    4800    2.0452175   -4.7612743    4951.1882            1 
    4900    2.0708764   -4.7530812    4951.5496            2 
    5000    2.0320754   -4.7976002    4934.8713       -1e+20 
    5100    2.0444129   -4.7711398    4958.6602            1 
    5200    2.0265049    -4.663084    4974.8385       -1e+20 
    5300    2.0825167   -4.7436111    4975.6426       -1e+20 
    5400    2.0560684   -4.7964484    4932.0559            1 
    5500    2.0473549   -4.7595681    4999.2518            1 
    5600    2.0663243   -4.7153695    4975.7922            1 
    5700    2.0425255   -4.7167306     4957.879            1 
    5800    2.0873084   -4.7120096    4990.3763            1 
    5900    2.0248237   -4.6951738    4944.9649            1 
    6000    2.0331775   -4.7821655    4951.3709            1 
    6100    2.0600386   -4.7418109    4921.3463            1 
    6200    2.0292144   -4.7338379    4929.3964            1 
    6300    2.0413488   -4.7520824    4981.5351            2 
    6400     2.049024    -4.685273    4979.8455       -1e+20 
    6500     2.077346   -4.7645732    4951.9104            1 
    6600    2.0284254   -4.7608228    4954.5849            1 
    6700    2.0798054   -4.7606692    4957.0351            1 
    6800    2.0248506   -4.7254029    4977.1214            1 
    6900    2.0726038    -4.719202    4945.7128            1 
    7000    2.0355755   -4.7773592    4934.9353            1 
    7100     2.068094   -4.7516123     4955.123            1 
    7200    2.0291166   -4.7333907     4961.035            2 
    7300    2.1096356   -4.7742413    4949.7505            2 
    7400    2.0083187   -4.7629004    4984.1977            1 
    7500    2.0948003   -4.7428635    4920.5866            1 
    7600    2.0250001   -4.7336659    4964.2721            1 
    7700    2.0449316   -4.7474482    4946.1466            2 
    7800    2.0176562   -4.7352409    4957.2325            1 
    7900     2.064194   -4.7193387    4948.5226       -1e+20 
    8000    2.0341919   -4.8038279    4958.8983            1 
    8100    2.0453256    -4.771001      4939.59            1 
    8200    2.0569419   -4.7055432     4961.023            1 
    8300    2.0335609   -4.7903793    4980.0234            1 
    8400    2.0845791   -4.7808546    4914.9435            1 
    8500    2.0609334   -4.7298035    4981.5565            1 
    8600    2.0333226     -4.72035    4987.1735            1 
    8700    2.1102014   -4.7546659    4949.5878       -1e+20 
    8800    2.0394789   -4.7566578    5001.7822       -1e+20 
    8900    2.0419469   -4.7089027    4961.9568            1 
    9000    2.0673667   -4.6864281    4956.6979       -1e+20 
    9100    2.0272217   -4.7574431    4960.3019            2 
    9200    2.0247157   -4.7565493    4944.2154            1 
    9300     2.078251    -4.717356    4957.0757            1 
    9400    2.0505673   -4.6994652    4980.7704            1 
    9500    2.0290242   -4.7594321    4981.1036            1 
    9600    2.1038728   -4.7969093    4929.7522            1 
    9700     2.006312   -4.7735983    4933.1705            2 
    9800    2.0276117    -4.729005     4947.566       -1e+20 
    9900    2.0454449   -4.7043201    4964.8034            1 
   10000    2.0302541   -4.7360035     4974.573            2 
   10100    2.0512033   -4.7751316    4935.9761            2 
   10200    2.0621385   -4.7590158    4962.6606            2 
   10300    2.0667959   -4.7671231    4979.0037            1 
   10400    2.0705475   -4.7195625    4955.4837            1 
   10500    2.0090181   -4.7402171    4976.7407            1 
   10600    2.0812897   -4.7480457     4936.232            1 
   10700    2.0533872   -4.7660164    4965.0299            1 
   10800    2.0485351    -4.752692    4963.3424       -1e+20 
   10900    2.0927403    -4.735532     4957.779            1 
   11000    2.0111858   -4.7106532    4957.1982            2 
   11100    2.0667834   -4.7612548    4943.3142            1 
   11200    2.0266407   -4.7640056    4939.5789            1 
   11300    2.0652252    -4.750305    4989.5408       -1e+20 
   11400    2.0707277   -4.6896594    4980.7571            2 
   11500    2.0259628   -4.7084546    4977.5753       -1e+20 
   11600     2.076311   -4.8212172    4933.1155            2 
   11700    2.0726616   -4.7963129    4950.9174            1 
   11800    2.0552828   -4.7317893    4974.5827            1 
   11900    2.0452213   -4.6886479    4962.8478            1 
   12000    2.0525803   -4.7707146    4967.1381            1 
   12100    2.0622994   -4.7505199    4967.3879            1 
   12200    2.0583721   -4.7346193    4951.3803            1 
   12300    2.0026351   -4.7603503    4966.2201            1 
   12400    2.0652362   -4.7767822    4917.7959            2 
   12500    2.0276684   -4.7399383    4958.6697            1 
   12600    2.0367059   -4.7111192    4968.9241            1 
   12700    2.0477939   -4.7254001    4977.0255            1 
   12800    2.0752841   -4.6722018    4985.9211            1 
   12900    2.0630669   -4.7339998     4996.769            2 
   13000     2.043174   -4.7130261     4972.906            1 
   13100    2.0007689   -4.7425591    4936.6963            2 
   13200    2.0713007   -4.7633431    4943.8518       -1e+20 
   13300    2.0287203   -4.7231829    4968.4402            1 
   13400    2.0257962   -4.7151394    4950.6472            2 
   13500    2.0318202   -4.6691036    4989.6788            1 
   13600    2.0446833   -4.7192879    4974.1364            1 
   13700    2.0390282   -4.7731319    4910.4311            2 
   13800    1.9941653   -4.7475851    4962.0694            1 
   13900    2.0741538   -4.7612937    4926.1566            1 
   14000    2.0284181   -4.7561714    4967.9098            1 
   14100    2.0638352    -4.744054    4977.9306            1 
   14200    2.0597783   -4.7467085     4959.838            1 
   14300    2.0501585   -4.7401169    4962.3265            2 
   14400    2.0246812   -4.7446851    4935.8556            1 
   14500    2.0687755    -4.738346     4965.921            1 
   14600    2.0687841   -4.7027878    4982.0716       -1e+20 
   14700    2.0449367   -4.7747217    4960.2122            1 
   14800    2.0741356   -4.7430678    4936.7536            1 
   14900     2.018358   -4.7897964    4943.6605            1 
   15000    2.0473467   -4.7456211    4970.5341       -1e+20 
   15100    2.0749528   -4.7115015    4971.9462       -1e+20 
   15200     2.056513   -4.6583032    5011.3665       -1e+20 
   15300    2.0503979   -4.7220476    4962.2731            1 
   15400    2.0265955   -4.7503079    4955.8314            1 
   15500    2.0556707   -4.7527856    4949.8007            1 
   15600    2.0531212    -4.750244    4958.0849            1 
   15700    2.0671911   -4.7063963    4973.3746            1 
   15800    2.0574088   -4.7456653    4959.1367            2 
   15900    2.0536549   -4.8012733    4934.4826            1 
   16000    2.0626325   -4.7475537    4952.4225            1 
   16100    2.0685469   -4.7359814    4954.6375            1 
   16200    2.0497786   -4.7885204    4948.7046            2 
   16300    2.0823896   -4.7906723     4974.978            1 
   16400    2.0394351   -4.7195269    4956.6817            1 
   16500    2.0915351   -4.7688959    4984.9709            1 
   16600    2.0358357     -4.74857    4980.2315            1 
   16700    2.0777244   -4.6963185    4939.6583            2 
   16800    1.9994631   -4.7184209    4972.3714       -1e+20 
   16900    2.0546991   -4.7408335    4956.5433            1 
   17000    2.0865886    -4.728083     4958.395            1 
   17100    2.0166829   -4.7393242    4955.7958            2 
   17200    2.0497934   -4.7228829    4977.4246       -1e+20 
   17300    2.0471651   -4.7068633    4963.5261            1 
   17400    2.0012707   -4.7546239    4935.1343            1 
   17500    2.0382801   -4.7558981    4940.5306            1 
   17600    2.0377151   -4.6832377    4976.1963       -1e+20 
   17700    2.0446247   -4.7244379     4959.119            1 
   17800    2.0392998   -4.7721914    4954.9954            2 
   17900    2.0713739   -4.7456515     4946.641            1 
   18000    2.0462161   -4.7529845    4958.4264            1 
   18100    2.0284857   -4.7704061    4952.1602       -1e+20 
   18200    2.0967096   -4.7651858     4940.779            1 
   18300     2.025379   -4.7838858    4969.1377            1 
   18400    2.0767495   -4.7722108    4947.3551            1 
   18500    2.0852635   -4.6957306    4979.9544       -1e+20 
   18600     2.038276   -4.7055078    5004.6249            1 
   18700    2.0469001   -4.7709526    4936.3946       -1e+20 
   18800    2.0459257   -4.7624848    4944.7749            1 
   18900    2.0706875   -4.7400596    4966.2641            1 
   19000    2.0563792   -4.7264196    4970.9128            1 
   19100    2.0561089   -4.7115875      4943.83       -1e+20 
   19200    1.9751057   -4.7699092    4986.7561            1 
   19300    2.0692185   -4.7467632    4934.8159            1 
   19400    2.0611916    -4.756729     4939.338            1 
   19500    2.0192623   -4.7905773    4974.8272            1 
   19600     2.089749   -4.7492667    4926.1773            1 
   19700    2.0505993   -4.7814925    4975.4645            1 
   19800    2.0471537   -4.7503111    4955.4119            1 
   19900    2.0554887   -4.7379988    4942.5416            1 
   20000     2.038823   -4.7075171    4994.1039            1 
   20100    2.0213396   -4.7476144    4927.5367            1 
   20200    2.0148757   -4.7521977    4927.9035            1 
   20300    2.0603354   -4.7137955    4957.0392            2 
   20400    2.0354421   -4.6782518    4951.9199            1 
   20500    2.0230235   -4.7664944    4978.4316            1 
   20600    2.0412188   -4.7694145    4912.2054            1 
   20700    2.0563136   -4.7321709    4973.3318            1 
   20800    2.0609276   -4.7377542    4970.8176            1 
   20900    2.0224317   -4.7557052     4918.298            1 
   21000    2.0252527   -4.7312794     4970.864            1 
   21100    2.0769025   -4.7147453    4974.8408            1 
   21200    2.0413816   -4.7558754    4952.9753       -1e+20 
   21300    2.0491347   -4.7553807    4961.4254            1 
   21400    2.0619233   -4.7008506    4949.9336            1 
   21500    2.0199105   -4.7269778     4939.453            1 
   21600    2.0505421   -4.7494899    4943.0218       -1e+20 
   21700    2.0457345   -4.7931853    4944.8297            1 
   21800    2.0578898   -4.7652598    4960.0659            1 
   21900    2.0611388   -4.7058541    4960.8613       -1e+20 
   22000    2.0791293   -4.7122333    5003.9241            2 
   22100    2.0448089   -4.7174489    4988.9256            2 
   22200    2.0588284   -4.7381195    4954.9073            1 
   22300    2.0495918   -4.7429434    4962.5622            1 
   22400     2.053298   -4.7475899    4971.4147       -1e+20 
   22500    2.0836143   -4.7034827     4965.534            1 
   22600    2.0588679   -4.7227924    4993.5546            1 
   22700    2.0330538   -4.7568208    4954.0628            1 
   22800     2.082666    -4.753375    4954.3214            1 
   22900    2.0782523   -4.7384622    5006.5099            1 
   23000    2.0495483   -4.7389057    4967.2364            2 
   23100    2.0719976    -4.731758    4965.1975            1 
   23200    2.0347617   -4.7541223    4968.4656            1 
   23300    2.0435128   -4.7659562    4944.9183            2 
   23400    2.0630368   -4.7045225    4958.9447            1 
   23500    2.0457986   -4.7322589    4989.9242            1 
   23600    2.0796678   -4.7369105     4965.168       -1e+20 
   23700    2.0508164   -4.7535481    4933.0604            1 
   23800    2.0351189   -4.7694386    4986.1835       -1e+20 
   23900    2.0788612   -4.7376412    4956.1783            1 
   24000    2.0637523   -4.7569887    4953.7818            1 
   24100    1.9917437   -4.7412088    4962.4852            1 
   24200    2.1002097   -4.7599214    4912.5337            1 
   24300    2.0579167   -4.7647927    4988.4418       -1e+20 
   24400    2.0869723   -4.7371348    4986.5485            1 
   24500    2.0476204    -4.748106    4957.7956            1 
   24600    2.0703012   -4.7049502    4970.0816            1 
   24700    2.0686178   -4.6902579    4994.6032            2 
   24800    2.0803332    -4.772992    4968.6999            1 
   24900    2.0344368   -4.7273382    4965.0724            1 
   25000    2.0631331   -4.6801142    4979.5686            1 
   25100    2.0860907   -4.6708693    5008.1931            1 
   25200     2.083438   -4.7367693    4971.8389            1 
   25300    2.0438993   -4.7548406    4959.9433            1 
   25400    2.0928907   -4.7289146    4951.4481            1 
   25500    2.0279278   -4.7022182    5003.0129            1 
   25600    2.0487915    -4.743357    4939.1845       -1e+20 
   25700    2.0642694   -4.7623871    4951.8407            1 
   25800    2.0659917   -4.7867793    4953.5391            1 
   25900    2.0272372   -4.7440612     4950.293            1 
   26000    2.0455253   -4.7029744    4969.2012            1 
   26100    2.1138496   -4.8013627    4973.7474            2 
   26200     2.024347   -4.7725386    4964.7582            1 
   26300    2.0659473   -4.7365259    4962.9148            1 
   26400    2.0604743   -4.7108073    4981.3748            1 
   26500    2.0228091   -4.7592163    4979.7508            1 
   26600    2.0783915   -4.7635252     4937.379            1 
   26700    2.0459491   -4.6722547    4985.6291            1 
   26800    2.0663803   -4.7201254    4970.1484            2 
   26900    2.0330125   -4.7627644    4967.4948       -1e+20 
   27000    2.0779942   -4.7289494    4928.6388            1 
   27100    1.9743839   -4.7058099    4945.3473            1 
   27200    2.0329302   -4.7571805    4982.8538       -1e+20 
   27300    2.0858896   -4.7260487    4948.2086            1 
   27400     2.018116   -4.7358537    4960.2149            1 
   27500    2.0457386   -4.7174602    4956.6931       -1e+20 
   27600    2.0710593   -4.6970544    5010.5889            1 
   27700    2.0718027   -4.6983635    4964.8257       -1e+20 
   27800    2.0627006   -4.7355876    4980.7879       -1e+20 
   27900    2.0524168   -4.8135749    4936.4339            1 
   28000    2.0628717   -4.8039061    4930.0021            1 
   28100    2.0925161    -4.773362    4961.7269            1 
   28200    2.0910546   -4.7416818    4982.0319            1 
   28300    2.0546898   -4.7776705    4944.6945            1 
   28400    2.0328078   -4.7649095    4959.0662            1 
   28500    2.0922051   -4.7621538    4964.6843            1 
   28600    2.0421653   -4.7538864    4936.6326            1 
   28700    2.0133171   -4.7752287    4925.9381            1 
   28800    2.0670443   -4.7566346    4958.5222            1 
   28900    2.0921511    -4.724684    4961.4439            1 
   29000    1.9900763   -4.7195107    4978.2041            1 
   29100    2.0766154   -4.7162244     4951.994       -1e+20 
   29200    2.0329394   -4.7517801    4959.1546            1 
   29300    2.0593549   -4.7844348    4949.4343            1 
   29400    2.0233351   -4.7477341    4923.4735            2 
   29500    2.0217215    -4.772367    4916.6317            2 
   29600    2.0532578   -4.7802784    4987.2695            1 
   29700     2.061576    -4.734337    4951.5624            1 
   29800    2.0137587   -4.7403893    4949.2456            1 
   29900    2.0738633   -4.7426049    4974.0179            1 
   30000    2.0558302   -4.7362966    4940.4338            1 
   30100    2.0449464    -4.759774    4974.5806       -1e+20 
   30200    2.0802377   -4.7591299    4952.4184            1 
   30300    2.0390939   -4.7638408    4922.4082            1 
   30400    2.0498982   -4.7505392    4957.1485            1 
   30500      2.06127   -4.7270138    4961.9701            1 
   30600    2.0322938    -4.750847    4935.4102            1 
   30700    1.9808133   -4.7722505    4925.5115            1 
   30800    2.0343996   -4.7290104    4917.5993            1 
   30900    2.0319283   -4.7336092    4966.9148            1 
   31000    2.0545762   -4.7203174    4979.3751            1 
   31100    2.0607759   -4.7341748    4923.1487            1 
   31200    2.0317387   -4.7744302    4984.7123            1 
   31300    2.0679368   -4.7655023    4951.6561            1 
   31400    2.0758016   -4.7612651    4931.2854            1 
   31500    2.0198307   -4.7457862    4971.4959            1 
   31600    2.0840935   -4.7383519    4951.3507            2 
   31700    2.0664577   -4.7925151    4953.0815            1 
   31800    2.0296446   -4.7857606    4929.2252            1 
   31900    2.0324221   -4.7489621    4932.9861       -1e+20 
   32000    2.0447494   -4.7479542    4948.1787       -1e+20 
   32100    2.0830131   -4.7151821    4956.5037            1 
   32200    2.0200902   -4.7431341    4998.7861            1 
   32300     2.073566   -4.7595335    4951.8006            1 
   32400    2.0462011   -4.7205635    4952.9036            1 
   32500    2.0420878   -4.7462834    4975.4904            1 
   32600    2.0704918   -4.7423251    4943.1612            2 
   32700    2.0540113   -4.8007524    4929.7591            1 
   32800      2.03329   -4.7422458    4962.8088            1 
   32900    2.0503201   -4.6940288    4982.3166            1 
   33000    2.0613213   -4.7363791    4932.8505            1 
   33100    2.0479139    -4.801049    4935.8823            1 
   33200    2.0488839   -4.7301956    4954.2676            1 
   33300    2.0743049   -4.6656158    4976.0049            1 
   33400    2.0067131    -4.725884    4985.3764       -1e+20 
   33500    2.0251166    -4.736367    4943.6317       -1e+20 
   33600    2.1057754   -4.7260907     4960.934            1 
   33700    2.0559468   -4.7662369    4973.1421            1 
   33800    2.0516693   -4.7126867    4968.5683            1 
   33900     2.072443   -4.7390812    4996.6503            1 
   34000     2.063202   -4.7090997    4956.8577            1 
   34100    2.0305952   -4.7719683     4928.919            1 
   34200    2.0345423   -4.7885648    4944.2053            1 
   34300    2.0934943   -4.7627724    4955.6787            1 
   34400    2.0597066   -4.7755439     4955.068            1 
   34500    2.0503198   -4.6820653    4988.2155       -1e+20 
   34600    2.0699638   -4.6926518    4959.7538            1 
   34700    2.0341467   -4.7478829    4968.0043            1 
   34800     2.077355   -4.7164026    4975.7567       -1e+20 
   34900    2.0609536   -4.7054031    4980.0765            1 
   35000    2.0410523   -4.7201032    4951.2666            1 
   35100    2.0318812   -4.7765945    4960.0475       -1e+20 
   35200    2.0763118   -4.7362667     4949.294            1 
   35300    2.0521718    -4.726241    4951.3499            1 
   35400    2.0105227    -4.766233    5005.6135            1 
   35500    2.0388865   -4.6798336     4931.965            1 
   35600    2.0441772   -4.7440716    4955.3566            1 
   35700    2.0839889   -4.7585423    4994.6236            1 
   35800     2.053156   -4.7301804    4958.4096            1 
   35900    2.0675364   -4.7555674    4949.2713       -1e+20 
   36000    1.9856828   -4.7265783    4952.3009            1 
   36100    2.0553464   -4.7019922    4937.1129            1 
   36200    2.0431311   -4.7001342    4988.1809       -1e+20 
   36300    2.0623056   -4.7403705    4950.4948            1 
   36400    2.0345379   -4.7531604    4941.2742       -1e+20 
   36500    2.0170191   -4.7797138    4934.4138            1 
   36600    2.0883963   -4.7713403    4927.6146            1 
   36700    2.0339703   -4.7913353    4963.4587            1 
   36800     2.071112   -4.7219387    4967.8392            2 
   36900    2.0280859   -4.7232241    4939.2989            1 
   37000    2.0464931   -4.7637713    4963.2636            1 
   37100    2.0518746   -4.7483207    4966.8083            1 
   37200    2.0669933   -4.7922085    4928.9269            1 
   37300    1.9811446   -4.7669268    4918.1591            1 
   37400    2.0390005   -4.7497398    4927.5867            1 
   37500    2.0329456   -4.7074292    4966.3368            1 
   37600    2.0471857   -4.6875206    4989.8914            1 
   37700    2.0506574   -4.7204213    4954.1425            1 
   37800    2.0195913   -4.8015347    4946.0025       -1e+20 
   37900    2.0633333   -4.7775146    4956.4772            1 
   38000    2.0885449    -4.692938    4952.1657            1 
   38100    2.0011581   -4.7209083    5000.1852            1 
   38200    2.0465985   -4.7278549    4967.4326            1 
   38300    2.0531692   -4.7473109    4931.3784            1 
   38400    2.0113863   -4.7825512    4940.0457            2 
   38500    2.0435315   -4.7503577    4959.3477       -1e+20 
   38600    2.0522344   -4.7231471    4967.3629            1 
   38700    2.0686239   -4.7006848    4974.5384       -1e+20 
   38800    2.0413199    -4.748658    4958.9353            1 
   38900    2.0545434   -4.7768519    4970.8721            1 
   39000     2.068756   -4.7203138    4993.1377            1 
   39100     2.072922   -4.7209368    4971.2566            1 
   39200    2.0184463   -4.7443708    4942.4774       -1e+20 
   39300    2.0678504   -4.7175573     4963.253       -1e+20 
   39400    2.0243443   -4.7416918    4959.7591            1 
   39500    2.0303015    -4.714755    4946.1885            2 
   39600    2.0553768   -4.6747916    4996.9672            1 
   39700    2.0510424   -4.7118057    4965.7891            1 
   39800    2.0643121    -4.726164    4955.9201            1 
   39900    2.0036758   -4.7341168    4947.4832            1 
   40000    2.0734824   -4.7593964    4931.4625            1 
   40100    2.0363617   -4.6660065    5011.2496            1 
   40200    2.0906506   -4.6896881    4996.4897            1 
   40300    2.0649072   -4.7389532    4952.5664            1 
   40400    2.0219851   -4.7613269    4956.2628            2 
   40500    2.0925105   -4.7343943     4938.667            1 
   40600    2.0645023   -4.8045917    4968.8152            1 
   40700    2.0585704   -4.7642097    4935.3283            1 
   40800    2.0728891   -4.7532216    4967.8855            1 
   40900    2.0212068   -4.7389383    4980.4867       -1e+20 
   41000    2.0939679   -4.7173481     4960.314            1 
   41100    2.0582694   -4.7570152    4978.2305            1 
   41200    2.0774547   -4.7078183    4975.1214            1 
   41300    2.0446017     -4.71839    4980.5112            1 
   41400    2.0655318   -4.7386557    4947.9394            1 
   41500    1.9673632   -4.6982974     4948.878       -1e+20 
   41600    2.0456995    -4.729574    4952.9234            1 
   41700    2.0422923   -4.7242263    4938.3626            1 
   41800    1.9983526   -4.7269092     4969.706       -1e+20 
   41900     2.084212   -4.7355824    4944.9284            1 
   42000    2.0325266   -4.7608127    4945.6382            2 
   42100     2.042176   -4.7723309    4933.6251       -1e+20 
   42200     2.040374   -4.7892634    4907.4442            2 
   42300    2.0312346   -4.7721355    4974.0751            1 
   42400    2.0822531   -4.7557224    4948.3799            1 
   42500    2.0000709   -4.7159779     4945.673            1 
   42600    2.0736647    -4.718552    4956.2572            1 
   42700    2.0424659   -4.7310111    4948.9497            2 
   42800    1.9887794   -4.7870341    4963.5398            2 
   42900    2.0742462   -4.7498635    4919.3333            1 
   43000    1.9841307    -4.745664    4965.8332            1 
   43100    2.0671381   -4.7635054    4975.0967            1 
   43200     2.057293   -4.7352694    4915.8282            1 
   43300    1.9843306    -4.737642    4961.6886            1 
   43400    2.0765313     -4.75198    4954.8251            1 
   43500    2.0478056   -4.7864216    4942.0156       -1e+20 
   43600    2.0111881   -4.7700512    4930.4429       -1e+20 
   43700    2.0228008   -4.7329031    4954.2228            1 
   43800    2.0637933   -4.6979984    4965.7305            1 
   43900     2.031959   -4.7324683     4977.833            1 
   44000    2.0602854   -4.7369094     4935.229            1 
   44100    2.0480833   -4.7808192    4972.3474            1 
   44200    2.0589806    -4.792159    4953.1385            1 
   44300    2.0630909   -4.7878279    4943.2371            1 
   44400    2.0533632   -4.7408234     4952.916            1 
   44500    2.0221209   -4.7339298     4955.642            1 
   44600    2.0573951    -4.752541    4949.1342            1 
   44700     2.054627     -4.75762    5002.8464       -1e+20 
   44800    2.0525458   -4.7176791    4952.8176            1 
   44900    2.0263088   -4.7074333    4942.6331            1 
   45000    2.0139683   -4.7412999    4977.4742            1 
   45100    2.0844048   -4.6996738    4963.8236            1 
   45200    2.0558727   -4.7410036    4976.0523            2 
   45300    2.0037426   -4.7654752    4965.6143       -1e+20 
   45400    2.0720162   -4.7760252    4906.7002            1 
   45500    2.0841695   -4.7504798    4971.2072            2 
   45600    2.0335666   -4.7147634    4966.8295       -1e+20 
   45700    2.0301045   -4.7690805    4936.4141            1 
   45800    2.0607024   -4.7851253    4926.2534            1 
   45900    2.0328912   -4.7314846    4987.3164       -1e+20 
   46000    2.0886182   -4.6911765    5009.4906            1 
   46100    2.0610074   -4.6960459    4969.5105            1 
   46200    2.0772881   -4.7836334    4958.3082            1 
   46300     1.999964   -4.7356782    4936.3483            1 
   46400    2.0509657   -4.7260373    4932.9917            1 
   46500    2.0345814   -4.7308405    4972.8004            1 
   46600    2.0451978   -4.7332788    4958.4069            2 
   46700    2.0533337   -4.7311738    4937.2564            1 
   46800    2.0328498   -4.7546626    4953.8521       -1e+20 
   46900    2.0380502   -4.7536751    4934.4114            1 
   47000    2.0483795   -4.7448005    4950.9571            2 
   47100    2.0670889   -4.7684583    4968.8311            1 
   47200    1.9855991   -4.7613453    4943.0182            1 
   47300    2.0503466   -4.7872951    4921.5243            1 
   47400    2.0050898   -4.7319869    4957.8366       -1e+20 
   47500    2.0358387   -4.6692819    4971.7128            1 
   47600    2.0531788   -4.7297396    4973.3105       -1e+20 
   47700     2.036699   -4.7792209    4954.8064            1 
   47800    2.0955593   -4.7585112    4955.3739       -1e+20 
   47900    2.0133924   -4.7612849    4941.8984            1 
   48000    2.0267416   -4.7550265    4949.0963       -1e+20 
   48100    2.0699449   -4.7092098    4979.5251            3 
   48200    2.0177286    -4.704239    4958.4055            1 
   48300    2.0574702   -4.7105677    4952.3658            1 
   48400    2.0496875   -4.6781486    5027.3312            1 
   48500    2.0751578   -4.7392984     4981.746            1 
   48600    2.0635068   -4.7109374    4966.3834            1 
   48700    2.0145062   -4.7458693    4954.7585       -1e+20 
   48800    2.0669639   -4.7630518    4943.5169       -1e+20 
   48900    2.0439907   -4.7137701    4975.7102            1 
   49000    2.0711733   -4.7356736    5000.2055            1 
   49100     2.064313   -4.7128299    4961.9401            1 
   49200    2.0451505   -4.7334791      4958.34            4 
   49300    2.0763894   -4.7570563    4969.2698            1 
   49400    2.0373473   -4.7663306    4945.2175            1 
   49500    2.0602013   -4.7717487    4939.6279            2 
   49600    2.0503925   -4.7197595    5006.1121            1 
   49700     2.060746   -4.7037244    4964.6227            1 
   49800    2.0383968   -4.7244994    4921.5506            1 
   49900    2.0630679   -4.7551603    4956.4966            1 
   50000     2.043928   -4.7291451    4992.2882       -1e+20 
   50100    1.9992666   -4.7174648    4934.0198            1 
   50200    2.0768892   -4.7364576    4944.1094       -1e+20 
   50300     2.034672   -4.7151188    4990.2238            2 
   50400    2.1118096   -4.7211723    5010.1381            1 
   50500    2.0544762   -4.7049295    4932.7571            1 
   50600    2.0216701   -4.7340148    4995.2246            1 
   50700    2.0496651   -4.7064532    4968.5048            1 
   50800    2.0443286   -4.6735919    4997.5484            1 
   50900    2.0586892   -4.7230713    4985.1881            2 
   51000    2.0487503   -4.7095992    4947.3484            1 
   51100    2.0218989   -4.7394625     4986.636       -1e+20 
   51200    2.0622685   -4.7210056    4982.0064       -1e+20 
   51300    2.0611951   -4.7611144    4936.8063            1 
   51400    2.0113251   -4.7769552     4945.409            1 
   51500    2.0527792   -4.7768817    4920.4055       -1e+20 
   51600    2.0578503   -4.7903146    4960.1441            1 
   51700    2.0706986   -4.7611787    4959.4085       -1e+20 
   51800    1.9902803    -4.763778    4950.8334            1 
   51900    2.0826277   -4.7359508    4922.5216            2 
   52000    2.0398862   -4.7085272    4989.9229       -1e+20 
   52100    2.0540336   -4.7054961    4984.2568            2 
   52200    2.0643776   -4.7159377    4965.5701            1 
   52300     2.014508   -4.7346615    4971.3331       -1e+20 
   52400    2.0867128   -4.6972929    4967.7229       -1e+20 
   52500     2.026202   -4.6794274    4987.5556            1 
   52600    2.0311573    -4.747389    4980.2408            1 
   52700    2.0890496   -4.7635536    4924.7376            1 
   52800    1.9758551   -4.7334092     4940.743            1 
   52900    2.0656762   -4.7806685     4975.236            2 
   53000    2.0847862   -4.7438867    4959.6992       -1e+20 
   53100    2.0567336   -4.7482997    4967.3404       -1e+20 
   53200    2.0428759   -4.8040081    4944.9807            1 
   53300    2.0387813   -4.7307537    4959.1376            1 
   53400      2.06622   -4.7185044    4958.5861            1 
   53500    2.0145277   -4.7445359    4940.1491            1 
   53600     2.046116   -4.7686724    4948.3487            1 
   53700    2.0683948    -4.719268    4976.7516       -1e+20 
   53800    2.0635285   -4.7250061    4978.1364            1 
   53900     2.025491   -4.7459779    4947.8862            1 
   54000    2.0789579    -4.744591    4956.8569            1 
   54100    1.9845632   -4.7272418    4990.3699            1 
   54200    2.1123538   -4.7300667    4943.5711            1 
   54300    2.0195353   -4.7124896    4953.8005            1 
   54400    2.0481264   -4.7565962    4958.9826            1 
   54500    2.0443812   -4.7004567    4946.4315            1 
   54600    2.0350835   -4.7402952    5000.3733            1 
   54700    2.0789981   -4.6939826    4945.4793            1 
   54800    2.0402322   -4.7247892    4959.3869            1 
   54900    2.0401148   -4.7527891    4985.1543            1 
   55000    2.0186633   -4.7383224    4936.1211            1 
   55100    2.0559262   -4.7298259    4943.9011            1 
   55200    2.0189309   -4.7955041    4956.0963            1 
   55300    2.0717288   -4.7718998    4930.1779            3 
   55400    2.0119441   -4.7259868    4958.8578            2 
   55500    2.0370347   -4.6807803    4974.4967            1 
   55600    2.1228105    -4.723603    4975.9021       -1e+20 
   55700    2.0556618   -4.7585749    4974.7282            3 
   55800    2.0279635   -4.7220787    4921.4619            1 
   55900    2.0605223   -4.7865584    4939.5539            3 
   56000    2.0507755   -4.8026225    4951.1447            1 
   56100    2.0744709   -4.7499697    4924.7453            1 
   56200    2.0547771   -4.7202968    4993.6124            1 
   56300    2.0317314   -4.7655986    4976.6755            3 
   56400    2.0792918   -4.7423794    4952.6927            1 
   56500    2.0690076   -4.7230463    4982.8536            1 
   56600    1.9970211   -4.7004474    4940.6635            2 
   56700    2.0713034   -4.7725984    4958.0923       -1e+20 
   56800    2.0553088   -4.6838383    4990.9605       -1e+20 
   56900    2.0497491   -4.7422223    4970.1539            1 
   57000    2.0297755    -4.677014    4959.9416            1 
   57100    2.0104949   -4.7081675    4957.4566       -1e+20 
   57200    2.0431336   -4.7680387    4932.7519            1 
   57300    1.9944599   -4.7631135    4933.3825       -1e+20 
   57400    2.0594664   -4.7498856    4947.8197            2 
   57500    2.0526062    -4.736198    4949.9323       -1e+20 
   57600    2.0369194   -4.7862609    4960.9603            1 
   57700    2.0900897   -4.7427331    4959.8802            1 
   57800    2.0733347    -4.745044    4957.0508            2 
   57900    1.9933122   -4.7063182    4989.3892            1 
   58000    2.0797506   -4.7053817    4953.3137            1 
   58100    2.0615788   -4.7388299    4971.8673            2 
   58200    2.0120941   -4.7565381     4942.862            1 
   58300    2.0327396   -4.7169118    4946.0626       -1e+20 
   58400    2.0326647   -4.7022423    4995.3015            1 
   58500    2.0256543   -4.6948596    4976.2221            1 
   58600    2.0639215   -4.7273501    4929.5396       -1e+20 
   58700     2.021235   -4.7497061    4967.5693            2 
   58800    2.0520894   -4.7118151    4989.0987            3 
   58900    2.0723095   -4.7187658    4963.9597            1 
   59000    2.0294873   -4.7439572    4946.6073            1 
   59100    2.0672165   -4.7502818    4975.9627            1 
   59200    2.0875089   -4.6942457    4946.9309            1 
   59300    2.0249833   -4.7173226    4960.4088            1 
   59400    2.0110236   -4.7327178     4967.383            1 
   59500    2.1049012   -4.7471543     4929.098            1 
   59600    2.0428403   -4.7683672    4960.1669            1 
   59700    2.0382867   -4.7718931    4943.3997            2 
   59800    2.0768128   -4.7616679    4931.5739            1 
   59900    2.0373649   -4.7699984    4977.2673            1 
   60000    2.0464269   -4.7643603    4956.2109            1 
   60100    2.0984791   -4.7402179    4978.6047            1 
   60200    2.0243009   -4.7223811     4961.091            1 
   60300    2.0628305   -4.7726399    4928.9381       -1e+20 
   60400     2.017953   -4.7805935    4944.5698            1 
   60500    2.0385342   -4.7345591    4950.2247       -1e+20 
   60600    2.0466932   -4.7456842    4952.4169            2 
   60700    2.0844771   -4.7376842     5005.732            2 
   60800    2.0519983    -4.729052    4958.1618            1 
   60900    2.0124917   -4.7008647    4950.8771            1 
   61000    2.0729477   -4.7358512    4982.8674            1 
   61100    2.0901521   -4.7279392    5001.3457            1 
   61200    2.0648698   -4.7298573    4979.1602            1 
   61300    2.0529999    -4.768465    4944.3921            1 
   61400    2.0378707   -4.7733121    4933.8569       -1e+20 
   61500    2.0624799    -4.758698    4965.0064            1 
   61600    2.0646701   -4.7618667    4941.7533            1 
   61700     1.988694   -4.7585004    4967.2695            1 
   61800    2.0771895    -4.745515    4945.0047            1 
   61900    2.0042473   -4.7101896    4922.7751            1 
   62000    1.9953178   -4.8224841    4943.3752            1 
   62100    2.0604142   -4.7673709    4929.5375            2 
   62200    2.0557438   -4.7038412    4978.0126            1 
   62300    2.0229055    -4.713815    4987.3196            1 
   62400    2.1220713   -4.7227415    4949.8196            1 
   62500    2.0104037   -4.7233003    4969.4563            1 
   62600    2.0621999   -4.7439353    4968.1719            1 
   62700    2.0332917   -4.7950725     4920.411            1 
   62800    2.0387677   -4.8075869    4968.6661            1 
   62900    2.0832807   -4.7552466    4955.4463            1 
   63000    2.0234454   -4.7048214    4985.2901       -1e+20 
   63100    2.0759647   -4.7332108    4967.1808       -1e+20 
   63200    2.0526556   -4.7549451    4926.5848            1 
   63300    2.0151776   -4.6974825    4961.7389            1 
   63400    2.0441132   -4.7190187    4976.3713            1 
   63500    2.0432064   -4.7814629    4925.8287            1 
   63600    2.0670943   -4.8043466    4941.3815            1 
   63700    2.0490426   -4.7817678     4971.086            1 
   63800    2.0727903   -4.6989109    4980.2596       -1e+20 
   63900    2.0535936   -4.7333595    4937.2986            1 
   64000    1.9904623   -4.7125135    4945.4866            1 
   64100    2.0649213   -4.7394678    4972.7121            2 
   64200    2.0342196    -4.734807    4963.6888            1 
   64300    2.0311012   -4.7883628    4951.5847       -1e+20 
   64400    2.0241951     -4.72257    4954.9928            1 
   64500    2.1027678   -4.7275307    4926.6283            1 
   64600    2.0210814   -4.7954753    4996.5311            1 
   64700    2.0877688   -4.7509572    4950.6268            1 
   64800    2.0668647   -4.7535177    4965.2395            1 
   64900    2.0396276    -4.698185    5009.2488            1 
   65000      2.04927   -4.6954665    4963.3462            1 
   65100    1.9997675   -4.7156518    4946.4163            1 
   65200    2.0730229    -4.743311    4969.8604            2 
   65300    2.0277751   -4.7082621    4948.7984            1 
   65400    2.0416482    -4.771195    4925.6388            1 
   65500    2.0223609   -4.8215831    4927.0915            1 
   65600    2.0604397   -4.7595796     4942.311            2 
   65700    2.0840556   -4.8101107    4943.5766            1 
   65800    2.0324987   -4.7450872    4956.4256            2 
   65900    2.0687657   -4.7233116    4949.0772            1 
   66000    2.0286203   -4.7246208    4976.5846            1 
   66100    2.0556846   -4.7179479    4972.2062            1 
   66200    2.0895433   -4.7469339    4972.9805            1 
   66300    2.0266016   -4.7461795    4939.3617            1 
   66400    2.0435802   -4.7348083    4944.3487            1 
   66500    2.0765192   -4.7213136     4962.957            1 
   66600    2.0119147   -4.6906973    4973.3946       -1e+20 
   66700    2.0595743   -4.7282881    4949.7084            1 
   66800    2.0720128   -4.7845884    4940.6021            1 
   66900    2.0134052   -4.7158574    4973.7405       -1e+20 
   67000    2.0936111   -4.7152702    4959.6818            1 
   67100    1.9959849   -4.7060983    4979.4669            1 
   67200    2.0727851   -4.7141085    4951.0915       -1e+20 
   67300    2.0325838   -4.7357685    4961.2967            1 
   67400    2.0321121   -4.7415961    4957.4532            1 
   67500    2.0760304   -4.7576066    4954.4988            2 
   67600    2.0345793   -4.7159784    4966.1617            1 
   67700    2.0157441   -4.7460907     4954.946            1 
   67800    2.0471013    -4.684765    4975.5781            1 
   67900    2.0576873   -4.7209151    4971.3151            2 
   68000    2.0396319   -4.7188999    4964.9063       -1e+20 
   68100    2.0462391   -4.7445661    4968.5366            1 
   68200    2.0759439    -4.754635    4938.1278            2 
   68300    1.9712711   -4.7163305    4971.8752            1 
   68400    2.0889118   -4.7402005    4944.9332            2 
   68500    2.0401878   -4.7456156    4973.4252            1 
   68600    2.0286378   -4.7148863    4967.0372            1 
   68700    2.0781212   -4.7187461    4940.1166            1 
   68800    2.0152323   -4.7544822    4981.8331            1 
   68900    2.0677058   -4.7754254    4922.1241            1 
   69000    2.0389604   -4.7271419     4953.516            1 
   69100    2.0520725   -4.7614434     4972.579            1 
   69200    2.0605461   -4.7594598    4940.4258            1 
   69300    2.0224696   -4.7795185    4930.6315            1 
   69400    2.0524213    -4.762445    4951.3458            1 
   69500    2.0770184   -4.7302943    4954.8014            2 
   69600    2.0567768    -4.754219    4978.5906            1 
   69700    2.0090085   -4.7862756    4933.1205            1 
   69800    2.0597292   -4.7589193     4937.572       -1e+20 
   69900    2.0641088   -4.7403407    4967.8508            1 
   70000    2.0184658   -4.7621812    4979.6595       -1e+20 
   70100    2.0827736   -4.7696981    4929.3169       -1e+20 
   70200    2.0605286   -4.7379581     4990.732            1 
   70300    2.0512492   -4.7267863      4971.93            1 
   70400     2.061872   -4.7731691    4930.2118            1 
   70500    1.9850922   -4.7905956    4946.2959            1 
   70600    2.0665203    -4.774324    4929.6246            1 
   70700    2.0730549   -4.7673984    4960.5883            2 
   70800    2.0445072   -4.7321042    4981.1332            1 
   70900    2.0422163   -4.7195435    4945.3787            1 
   71000    2.0516625   -4.7551774    4941.8892            1 
   71100    1.9991653   -4.6944041    4991.1485       -1e+20 
   71200    2.1085598    -4.693504    4938.9915            1 
   71300    2.0350138   -4.7425606    4975.1965            1 
   71400    2.0370535   -4.7079684    4959.0796       -1e+20 
   71500    2.0972366   -4.7906417    4937.8673            1 
   71600    1.9850081   -4.7612675    4961.8032            1 
   71700    2.0544506   -4.7366722    4954.3922            1 
   71800    2.0602712   -4.7235293    4975.5288            1 
   71900    2.0163519    -4.741099    4977.0649            1 
   72000    2.0995586   -4.7510423     4913.122            2 
   72100    2.0102896   -4.7549106    4967.0627            1 
   72200    2.0482955    -4.717951    4965.1089            1 
   72300    2.0656307   -4.7316387     4956.216            1 
   72400    2.0127318   -4.7555577    4939.2009            1 
   72500    2.0710346   -4.7479633    4968.8885       -1e+20 
   72600    2.0542223   -4.6993384     4979.354            1 
   72700     2.076582   -4.7051496    4981.5731            1 
   72800    2.0141006   -4.7185426    4991.4612            1 
   72900    2.0425333   -4.6871243    4931.6238            1 
   73000    2.0512159   -4.7504342    4968.7537       -1e+20 
   73100    2.0006518   -4.7210807    4975.5747            1 
   73200    2.0793769   -4.7010241    4953.3443       -1e+20 
   73300    2.0316965   -4.7383347    4980.8496            1 
   73400    2.1090432    -4.705638     4990.195            1 
   73500    2.0809457   -4.7396431    4975.2257            1 
   73600     2.049512   -4.7433152    4941.6129            1 
   73700     2.037662   -4.7790692    4939.7003            1 
   73800    2.0760254   -4.7405182    4969.9565       -1e+20 
   73900    2.0409644   -4.6997461    4963.1775            1 
   74000    2.0279351      -4.7513    4957.1534            1 
   74100    2.0595707    -4.753612    4957.8298            1 
   74200    2.0638104   -4.7269768    4975.6264            1 
   74300     2.006431   -4.7282916    4945.0717            1 
   74400    2.0533029   -4.7355615    4957.7447            1 
   74500    2.0720829   -4.7973828    4932.3642            1 
   74600    2.0201323   -4.7712617    4931.3319            2 
   74700    2.0610482   -4.7630734    4973.0372            1 
   74800    2.0436803   -4.7075863    4969.3431            1 
   74900    2.0865238   -4.7273505    4960.2654            1 
   75000    2.0258993   -4.7464268    4976.9363            1 
   75100    2.0887535     -4.73182    4969.9593       -1e+20 
   75200    2.0807906    -4.728268    4955.2484            1 
   75300    2.0114391   -4.7337705    5014.6037            2 
   75400    2.1149098   -4.7503948    4933.5151            1 
   75500    2.0142942   -4.7430438     4962.877            1 
   75600    2.0470015   -4.6935173    4971.4209            1 
   75700     2.076146   -4.6840173    4978.2108            1 
   75800    2.0197957   -4.6921377    4977.4889            1 
   75900    2.0529934   -4.7078392    4959.0949            1 
   76000    2.0473495   -4.7168609    4965.2676            1 
   76100    2.0388304   -4.7439946    4954.5453            1 
   76200    2.0916284   -4.7441322    4989.6643            1 
   76300     2.067989   -4.7066613    4968.1948            1 
   76400    1.9752546   -4.6990125    4988.0467            1 
   76500    2.0971185    -4.761575    4945.9123       -1e+20 
   76600    2.0336825   -4.7223727    4965.1984       -1e+20 
   76700    2.0406388   -4.7579846    4958.1368       -1e+20 
   76800    2.0555212    -4.738626    4945.5276            1 
   76900    2.0398518   -4.7246233    4971.0938            1 
   77000    2.0394601   -4.6995411     4966.357            1 
   77100    2.0716073    -4.744303    4933.0493       -1e+20 
   77200    2.0064925   -4.7616895    4984.3982            3 
   77300    2.1054253   -4.7460716    4957.0651       -1e+20 
   77400    2.0467896   -4.7206529    4964.6827       -1e+20 
   77500    2.0296545   -4.7380132    4963.4661            2 
   77600    2.0656156   -4.7636041    4931.6474       -1e+20 
   77700     2.068456    -4.708165    4979.1462       -1e+20 
   77800    2.0627778   -4.7339422    4959.8891            1 
   77900    2.0514193   -4.7842349    4958.5875            1 
   78000    2.0468149   -4.7158554    4954.0869       -1e+20 
   78100     2.083035   -4.7229368    4977.9227            1 
   78200    2.0470564   -4.7829253    4962.1528            1 
   78300    2.0653974   -4.7322301    4944.8085            1 
   78400    2.0961636   -4.6942483    4980.5429       -1e+20 
   78500    2.0443236   -4.7423372    4977.0101       -1e+20 
   78600     2.058343   -4.7496395    4960.2051            1 
   78700    2.0412184   -4.7251307    4944.7351            1 
   78800     2.058102   -4.7196356    4993.0288            1 
   78900    2.0459036    -4.693882    4975.1386            1 
   79000     2.084163   -4.7438515    4947.2494            1 
   79100    1.9738724   -4.7335607    4964.7692       -1e+20 
   79200    2.0473383   -4.7161292    4956.2535       -1e+20 
   79300    2.0358485   -4.7177084     4934.922       -1e+20 
   79400    2.0324155   -4.7963247    4929.2136            1 
   79500    2.0584706   -4.7571348     4942.025       -1e+20 
   79600     2.082455   -4.7147107    4963.0758       -1e+20 
   79700     2.053983   -4.7445223    4995.9302       -1e+20 
   79800    2.0177183   -4.7270799    4924.7788            1 
   79900    2.0642387    -4.723665    4942.3773       -1e+20 
   80000    2.0346988   -4.7647908    4963.9958            1 
   80100    2.1065901   -4.7962653    4954.3027            2 
   80200    2.0243491    -4.766592    4955.9602            1 
   80300     2.094877   -4.7336415    4948.0559            1 
   80400     2.072251   -4.7315087    4963.5904            1 
   80500    2.0244753   -4.7423139     5000.255       -1e+20 
   80600    2.1112032   -4.7488725    4939.0409            1 
   80700    2.0478082   -4.8036987    4961.1605            1 
   80800    2.0322441    -4.699879     4959.344            2 
   80900    2.0670558   -4.6875558    4970.5541            1 
   81000    2.0136993   -4.7394283    4970.0719            1 
   81100    2.0757016   -4.7743253     4957.286       -1e+20 
   81200    2.0910153   -4.7232189    4976.0361            1 
   81300    2.0542671   -4.7655078    4968.3133       -1e+20 
   81400    2.0422711   -4.7557873    4940.4801            1 
   81500    2.0470125   -4.6993051    4962.7082       -1e+20 
   81600    2.0679501   -4.6980046    5001.7686            1 
   81700    2.0410901   -4.7395488    4950.1018       -1e+20 
   81800    2.0491095    -4.761417    4939.1603            1 
   81900    2.0391796    -4.738181    4965.6663            1 
   82000     2.067609   -4.7348143    4956.0708            1 
   82100    2.0369166   -4.7392676    4938.6356            1 
   82200    2.0126089   -4.7202885    4968.8612            1 
   82300    2.0936531   -4.7368399    4962.6765            1 
   82400    2.0146353   -4.7385806    4956.1446            1 
   82500    2.0626445   -4.7097564    4960.6722            1 
   82600    2.0437214   -4.7463993    4976.3183       -1e+20 
   82700    2.0761924   -4.7848443    4957.3219            1 
   82800    2.0326053   -4.7677886    4938.6653            1 
   82900    2.0809274   -4.7689959    4941.8015       -1e+20 
   83000    2.0516974   -4.7933339    4946.9701            1 
   83100    2.0374256   -4.8142978      4917.95            1 
   83200    2.0707097   -4.7528225    4943.3626            1 
   83300    2.0386024   -4.7150159    4979.3797            1 
   83400    2.0646441   -4.7000079    4997.7154            1 
   83500    2.0729338    -4.728803    4948.3345       -1e+20 
   83600    2.0344038   -4.7738449    4945.0787            1 
   83700     2.056909   -4.7320025    4973.1092            1 
   83800    2.0446715   -4.7307002    4962.9899            1 
   83900    2.0381894   -4.7610146    4956.4363       -1e+20 
   84000    2.0818165   -4.7298299    4967.5261            1 
   84100    1.9987324   -4.6771477     4962.387       -1e+20 
   84200    2.0603759   -4.7503384    4947.9133            1 
   84300    2.0007406    -4.761184    4933.2954            1 
   84400    2.0697723   -4.7583892    4930.5003            2 
   84500    2.0334656   -4.6994888    4962.0511            2 
   84600    2.0534203   -4.6861348    5000.5223            1 
   84700    2.0932125   -4.7055215    4978.6039       -1e+20 
   84800    2.0422017   -4.7658018    4961.4853            1 
   84900    2.0758791   -4.7158882    4938.0031            1 
   85000    2.0719965   -4.7121153    4997.8289            1 
   85100    2.0140491   -4.7109296    4969.4999            1 
   85200    2.0527739    -4.751027    4940.9396            1 
   85300    2.0083184   -4.7355637    4954.8032            1 
   85400    2.0609397   -4.7085498    4971.9241            1 
   85500    2.0534684   -4.7023054    4983.4569            1 
   85600    2.0986376   -4.7129862    5013.7056       -1e+20 
   85700    2.0741589   -4.7413113    4946.7701            1 
   85800    2.0271668   -4.7410481    4937.2503            1 
   85900    2.0565527   -4.6756415     4970.405            1 
   86000    2.0534507   -4.7016689    4977.7264       -1e+20 
   86100    2.0082389    -4.738668    4970.2599       -1e+20 
   86200    2.0621286   -4.7378775    4936.3211            1 
   86300    2.0928483   -4.7329861    4975.3064            1 
   86400    2.0143576   -4.7244196      4962.94            1 
   86500    2.0523776   -4.7148829    4950.3314       -1e+20 
   86600    2.0759494   -4.6778651    4976.0876            1 
   86700    2.0561711   -4.7727431    4970.7346            1 
   86800    2.0042923    -4.721756    4942.7015            1 
   86900    2.0939067    -4.715549    4947.1707            1 
   87000    2.0480991   -4.7609249    4968.0749            2 
   87100    1.9851603   -4.7532292    4934.6487            1 
   87200    2.0578905   -4.7859845    4939.4276            1 
   87300    2.0746299   -4.7672205    4975.6292            1 
   87400    2.0149575    -4.769283    4953.0661            1 
   87500    2.0342931   -4.7105078    4943.1317            1 
   87600     2.052765   -4.6995284    4967.2564            2 
   87700    2.0345574   -4.7555449    4974.1489            1 
   87800    2.0462229   -4.7352048    4939.5293            1 
   87900    2.0779326   -4.7453367    4966.3511            1 
   88000    2.0880588   -4.7412838    4979.6998            2 
   88100     2.031871   -4.7626639    4946.3675            1 
   88200    2.0628148   -4.7273356    4952.6751       -1e+20 
   88300     2.040412   -4.7777409    4966.9698            1 
   88400     2.043041   -4.7339656    4927.6773            1 
   88500    2.0932387   -4.7705184    4957.3084       -1e+20 
   88600    2.0533919   -4.7842195    4978.9428            1 
   88700    2.0989819   -4.7829017    4927.7523            1 
   88800    2.0366667   -4.8129089    4940.1393            1 
   88900    2.0298804   -4.7466243    4936.9348       -1e+20 
   89000    2.1039824    -4.722857    4942.4997            1 
   89100    2.0321971   -4.7385187    4983.2044            1 
   89200    2.0890519   -4.7321091    4972.0541       -1e+20 
   89300    2.0534777   -4.7537707    4963.3469       -1e+20 
   89400    2.0019593     -4.77797    4964.1927            1 
   89500    2.0807141   -4.7401521    4940.3244            1 
   89600    2.0460432   -4.7611006    4928.0867            1 
   89700    2.0246984   -4.7794803    4992.4937       -1e+20 
   89800    2.1200498   -4.7731328    4962.1314            1 
   89900    2.0443954   -4.7435561      4969.04            1 
   90000    2.0684014   -4.7666164    4968.0191       -1e+20 
   90100    2.0648887   -4.7192358    4972.6079            1 
   90200    2.0634808   -4.7954275    4958.5156            3 
   90300    2.0386918    -4.756543     4930.786            1 
   90400    2.0682628   -4.7366396    4970.1652            1 
   90500    2.0364834   -4.6879985    4986.6296            1 
   90600    2.0808446   -4.6995644    4987.9789       -1e+20 
   90700    2.0403919   -4.6937812    4966.2367            1 
   90800    2.0310043   -4.7542066    4982.4612       -1e+20 
   90900    2.1028891   -4.6922674    4966.1962       -1e+20 
   91000    2.0348776    -4.721742    4977.9053            1 
   91100    2.0215667   -4.7436659      4953.61            1 
   91200    2.0857223   -4.7371603    4957.2679            1 
   91300    2.0581392   -4.7834211    4973.7135            1 
   91400    2.0312101   -4.7611288    4954.0818            1 
   91500    2.0783828   -4.7563062    4954.4252            1 
   91600    2.0353101   -4.7413647    4953.6883            1 
   91700    2.0393083   -4.7486302    4940.2922       -1e+20 
   91800    2.0888368   -4.7642851    4942.8851            1 
   91900    2.0099901   -4.7688808    4965.0091            2 
   92000    2.0852877   -4.7444851    4946.5486            1 
   92100    2.0309905   -4.7376492    4953.7586            2 
   92200    2.1048407   -4.7520554    4956.2918       -1e+20 
   92300    2.0320787   -4.7680547    4940.8482            1 
   92400    2.0434754   -4.7359322    4961.8826            1 
   92500    2.1034164    -4.707962    4990.3287       -1e+20 
   92600    2.0803923   -4.7443163      4974.71            1 
   92700    2.0723977   -4.7832731    4953.8953       -1e+20 
   92800    2.0579189   -4.7801017    4931.2124            1 
   92900    2.0625778   -4.7422105    4982.2655       -1e+20 
   93000    2.0518514   -4.7113373    4976.6843       -1e+20 
   93100    2.0336424   -4.7387805    4926.9373            1 
   93200    2.0010389   -4.8064375    4955.2987       -1e+20 
   93300    2.0542513   -4.7312326     4940.915            1 
   93400    2.0445102   -4.7725243    4943.9175            2 
   93500    2.0608896   -4.7927773    4950.0969            2 
   93600    2.0921612   -4.7544964    4961.6884            1 
   93700    2.0180647   -4.7337005    4982.5003            1 
   93800    2.0713868   -4.8000699    4918.5886            1 
   93900      2.10172   -4.7746815    4954.4458            1 
   94000    2.0256141   -4.7648805    4962.1817            2 
   94100    2.0553972   -4.6997415    4939.8158            1 
   94200    2.0259387   -4.7381175    4960.7479            2 
   94300    2.0083067   -4.7750394    4937.3778            1 
   94400    2.0493491   -4.7725347    4917.6237            1 
   94500    2.0822286   -4.7888137    4970.1541            1 
   94600    2.0566899    -4.763809    4953.2977            1 
   94700    2.0713087   -4.7797736    4940.4901            2 
   94800     2.018277   -4.7373722    4970.8722       -1e+20 
   94900    2.0561729   -4.6959364    4970.8213       -1e+20 
   95000    2.0590816   -4.6950622    4958.1831       -1e+20 
   95100    2.0187592   -4.7049912    5043.9365            1 
   95200    2.1085197    -4.705609    4946.0217            1 
   95300    2.0524467   -4.7424948    4959.9262       -1e+20 
   95400    2.0234144   -4.7342549    4980.5898            1 
   95500    2.0707082   -4.6802055    4981.4876            1 
   95600    2.0440028   -4.7121487    4985.4484            1 
   95700    2.0187915   -4.7498487    4940.4052            1 
   95800    2.0615617   -4.7388124    4968.0391            2 
   95900    2.0372729   -4.7071896    4970.3537            1 
   96000    2.0634842   -4.7337156    4934.4598            1 
   96100    2.0268579   -4.7682471     4935.754            1 
   96200    2.0507288   -4.7466361    4975.9603            1 
   96300    2.0948467   -4.7151587    4942.5982            1 
   96400    2.0515709   -4.7693925    4968.6006            1 
   96500    2.0233584   -4.7409558    4957.2221            1 
   96600     2.037213   -4.7234083    4938.6385       -1e+20 
   96700    2.0330545    -4.709006    4990.1301            2 
   96800    2.0535087   -4.6919781    4952.6734            1 
   96900    2.0582011   -4.7471249    4976.9299            1 
   97000    2.0659229   -4.7549183    4979.1159            1 
   97100    2.0392847   -4.7205143    4927.2284            1 
   97200    2.0567563   -4.7617183    4962.1771            1 
   97300    2.0636113   -4.7303881    5013.1431            2 
   97400    2.0345558    -4.740155    4928.3779            1 
   97500    2.0615865   -4.7767554    4949.7507            1 
   97600    2.0089333   -4.7550593    4938.5269            1 
   97700    2.0819588    -4.799176    4919.2969            1 
   97800      2.06627   -4.7610149    4961.0674            1 
   97900    2.0619169   -4.7258418    4994.6593            1 
   98000    2.0611062   -4.7586534    4935.4814            1 
   98100    2.0341424   -4.7499493    4968.9908            1 
   98200    2.0800851   -4.7755608    4956.0158            1 
   98300    2.0000413   -4.7596235    4933.4011            1 
   98400    2.0357707   -4.7271984    4969.8229       -1e+20 
   98500    2.0708886   -4.7170724     4964.634            1 
   98600    1.9978032    -4.750456    4960.9776            1 
   98700    2.0611361   -4.7565127    4957.2989            2 
   98800    2.0493171   -4.7165766    4956.0123            1 
   98900    2.0109168   -4.7251608    4969.1808            1 
   99000    2.0569559   -4.7289296    4984.7007            1 
   99100    2.0452689   -4.7280403     4948.973       -1e+20 
   99200    2.0457383    -4.737958    4978.2922       -1e+20 
   99300    2.0762455   -4.7338325    4980.3531            2 
   99400     2.050051   -4.7584305    4935.1692       -1e+20 
   99500    2.0593022   -4.7720475    4947.5596       -1e+20 
   99600    2.0655853   -4.7396709    4982.9708            1 
   99700    2.0623388   -4.7196171    4930.6093            1 
   99800    2.0418581   -4.7534611    4962.4295            1 
   99900    2.0546374   -4.7319214    4989.0036            1 
  100000    2.1059845   -4.6990087    4972.1981            1 
  100100    2.0585389   -4.7542244    4981.8371            1 
  100200    2.0552772   -4.7633061     4948.896            1 
  100300    2.0621427   -4.7770396    4942.0339            1 
  100400    2.0219891   -4.7077288      5007.23            1 
  100500    2.0669526   -4.7030452    4956.1541            1 
  100600    2.0489176   -4.7497323    4960.6581       -1e+20 
  100700    2.0658846   -4.7595752    4979.5386            1 
  100800    2.0605398   -4.7312382    4963.3585       -1e+20 
  100900    2.0438161    -4.750352    4930.8411            2 
  101000    2.0600175   -4.7578583    4979.9032            1 
  101100     2.018094    -4.725155    4931.3348            1 
  101200    2.0522142   -4.7328341    4952.9975            1 
  101300    2.0586537   -4.8105027    4972.2234            1 
  101400     2.103112   -4.7610805    4937.6602            1 
  101500    2.0512285    -4.764243    4991.3767       -1e+20 
  101600    2.0527465   -4.7366717     4937.202            1 
  101700    2.0215599   -4.7134233    4939.6715       -1e+20 
  101800    2.0492914   -4.7645701      4963.28       -1e+20 
  101900    2.0497714   -4.7557417     4939.247            1 
  102000    2.0327001    -4.787199    4914.7901            1 
  102100    1.9738756   -4.7703713    4922.1119            1 
  102200    2.0432163   -4.7360335    4929.4479            1 
  102300    2.0144958   -4.7473417    4937.8313            1 
  102400    2.0325365   -4.7632193    4936.5635            1 
  102500    2.0340236    -4.728024    4963.6634            1 
  102600    2.0301923   -4.7606938     4944.582            1 
  102700    2.0668557   -4.7797805    4919.9593            1 
  102800    2.0344007   -4.7125643    4990.2052       -1e+20 
  102900    2.0928411    -4.733962    4978.9765            1 
  103000    2.0249256   -4.7137919    4948.7087            1 
  103100    2.0762484   -4.7266558    4958.4067       -1e+20 
  103200    2.0230804   -4.7066777     5027.103            1 
  103300    2.0921171    -4.668181    4955.7781            1 
  103400    2.0464976    -4.713005    4973.7597            1 
  103500    2.0362919   -4.7561697     4977.815       -1e+20 
  103600    2.0277846   -4.7212171    4934.6161            1 
  103700     2.053224   -4.7251598    4994.4182            1 
  103800    2.0566065   -4.7162328    4985.6801       -1e+20 
  103900    2.0479878   -4.7541747     4953.716            1 
  104000    2.0603137   -4.8006245    4938.5837            1 
Loop time of 168.935 on 28 procs for 100000 steps with 4000 atoms

Performance: 102287.617 tau/day, 591.942 timesteps/s
99.7% CPU use with 28 MPI tasks x no OpenMP threads

MPI task timing breakdown:
Section |  min time  |  avg time  |  max time  |%varavg| %total
---------------------------------------------------------------
Pair    | 14.525     | 15.342     | 16.291     |  10.3 |  9.08
Neigh   | 2.8821     | 2.926      | 3.0018     |   1.9 |  1.73
Comm    | 11.266     | 13.423     | 14.92      |  34.0 |  7.95
Output  | 3.8508     | 3.8514     | 3.8628     |   0.1 |  2.28
Modify  | 129.26     | 131.65     | 135.12     |  16.3 | 77.93
Other   |            | 1.739      |            |       |  1.03

Nlocal:        142.857 ave         151 max         133 min
Histogram: 1 1 3 3 3 5 3 3 4 2
Nghost:        1960.54 ave        1985 max        1938 min
Histogram: 4 2 3 2 3 3 4 2 4 1
Neighs:        13207.5 ave       14504 max       11930 min
Histogram: 1 1 2 3 7 8 1 2 2 1
FullNghs:      26413.4 ave       28169 max       24457 min
Histogram: 2 0 4 3 3 6 4 2 1 3

Total # of neighbors = 739574
Ave neighs/atom = 184.89350
Neighbor list builds = 8443
Dangerous builds = 376

#clear
#
#next RN
#
#jump SELF
Total wall time: 0:02:50
