
units lj                  # Use reduced LJ style units
atom_style atomic         # Uncharged point particles
atom_modify map hash      # Needed for indexing of clusters etc
                          # Used to be able to find where atoms are in relation to each other.

lattice fcc 1.0 spacing 1 1 1
Lattice spacing in x,y,z = 1.5874011 1.5874011 1.5874011
region box block 0 10 0 10 0 10 units lattice
create_box 2 box
Created orthogonal box = (0.0000000 0.0000000 0.0000000) to (15.874011 15.874011 15.874011)
  3 by 4 by 4 MPI processor grid
create_atoms 1 box
Created 4000 atoms
  using lattice units in orthogonal box = (0.0000000 0.0000000 0.0000000) to (15.874011 15.874011 15.874011)
  create_atoms CPU = 0.002 seconds
set type 1 type/fraction 2 0.22 78393
Setting atom values ...
  910 settings made for type/fraction
mass 1 1.0
mass 2 1.0
pair_style lj/cut  3.5
pair_modify tail  yes
pair_coeff 1  1  1.0  1.0   # Intearaction between 1 and 1 set with epsilon = 1 and sigma = 1
pair_coeff 1  2  1.5  0.8
pair_coeff 2  2  0.5  0.88

write_data data.0
System init for write_data ...
Neighbor list info ...
  update every 1 steps, delay 10 steps, check yes
  max neighbors/atom: 2000, page size: 100000
  master list distance cutoff = 3.8
  ghost atom cutoff = 3.8
  binsize = 1.9, bins = 9 9 9
  1 neighbor lists, perpetual/occasional/extra = 1 0 0
  (1) pair lj/cut, perpetual
      attributes: half, newton on
      pair build: half/bin/atomonly/newton
      stencil: half/bin/3d
      bin: standard
WARNING: Not all mixed pair coeffs generated from mixing. Use write_data with 'pair ij' option to store all pair coeffs. (../write_data.cpp:312)


#############################
#   M E L T   S Y S T E M   #
#############################

velocity all create 2.4 1741580 mom yes dist gaussian # Assign velocities
                                                    # Temperature 2.4, random number seed, zero linear momentum
                                                                                # Gaussian distribution

timestep 0.002   # simulation timestep
thermo 1000       # output thermodynamic data every 1000 steps bf 100

# Define a fix  in this case with index 1 applied to all
# particles in the simulation. This fix is for simulations
# in the anisotropic NPT ensemble. Note that we use the MTK
# correction.
fix 1 all npt temp 2.4 2.4 0.1 iso 5.68 5.68 0.5 mtk yes tchain 5 pchain 5 # Use NPT ensemble
                                                                         # Set temperature and pressure and damping
                                                                         # Numbers of thermostats in chain and in barostat
run 10000          # run for 10000 steps
Per MPI rank memory allocation (min/avg/max) = 3.642 | 3.644 | 3.648 Mbytes
Step Temp E_pair E_mol TotEng Press Volume 
       0          2.4   -6.9213593            0   -3.3222593   -3.6990896         4000 
    1000    2.4183398   -4.8825564            0   -1.2559537    5.6763877    4400.6785 
    2000    2.3698015   -4.8531035            0   -1.2992899    5.8082166    4400.5272 
    3000    2.3588322   -4.8810831            0   -1.3437193    5.7527005    4387.4563 
    4000    2.3725892   -4.9028035            0   -1.3448094     5.755363     4375.932 
    5000    2.3842852   -4.8514624            0   -1.2759287    5.5307924    4430.8147 
    6000    2.3941863   -4.9137318            0   -1.3233502    5.4628115    4412.1792 
    7000    2.3858305    -4.832633            0    -1.254782    5.4790076    4446.3597 
    8000    2.3895352   -4.8730684            0   -1.2896617    5.6495045    4410.3254 
    9000    2.4558039    -4.849222            0   -1.1664371    5.7089111    4417.8054 
   10000    2.4112296   -4.8719915            0   -1.2560514    5.5643018    4413.7259 
Loop time of 2.37339 on 48 procs for 10000 steps with 4000 atoms

Performance: 728073.557 tau/day, 4213.389 timesteps/s
99.6% CPU use with 48 MPI tasks x no OpenMP threads

MPI task timing breakdown:
Section |  min time  |  avg time  |  max time  |%varavg| %total
---------------------------------------------------------------
Pair    | 0.98929    | 1.0595     | 1.1412     |   3.5 | 44.64
Neigh   | 0.19837    | 0.20651    | 0.21579    |   1.0 |  8.70
Comm    | 0.72998    | 0.82643    | 0.89526    |   4.7 | 34.82
Output  | 0.00025594 | 0.000265   | 0.00049568 |   0.0 |  0.01
Modify  | 0.2459     | 0.26565    | 0.29268    |   2.4 | 11.19
Other   |            | 0.01501    |            |       |  0.63

Nlocal:        83.3333 ave          93 max          75 min
Histogram: 4 4 6 5 6 9 5 4 3 2
Nghost:        1543.60 ave        1575 max        1521 min
Histogram: 5 7 3 7 7 8 5 2 3 1
Neighs:        8644.48 ave        9863 max        7487 min
Histogram: 3 2 5 8 10 5 5 5 3 2

Total # of neighbors = 414935
Ave neighs/atom = 103.73375
Neighbor list builds = 904
Dangerous builds = 169

# Equilibrate just above the melting temperature to avoid step fn in T

fix 1 all npt temp 1.25 1.25 0.1 iso 5.68 5.68 0.5 mtk yes tchain 5 pchain 5
run 2000
Per MPI rank memory allocation (min/avg/max) = 3.643 | 3.645 | 3.649 Mbytes
Step Temp E_pair E_mol TotEng Press Volume 
   10000    2.4112296   -4.8719915            0   -1.2560514    5.5643018    4413.7259 
   11000    1.2494375    -6.613847            0   -4.7401592    5.7706453    3582.6977 
   12000     1.276287   -6.6134247            0   -4.6994727    5.7981724    3585.3376 
Loop time of 0.522851 on 48 procs for 2000 steps with 4000 atoms

Performance: 660991.342 tau/day, 3825.181 timesteps/s
99.6% CPU use with 48 MPI tasks x no OpenMP threads

MPI task timing breakdown:
Section |  min time  |  avg time  |  max time  |%varavg| %total
---------------------------------------------------------------
Pair    | 0.23042    | 0.25372    | 0.28343    |   2.3 | 48.53
Neigh   | 0.032985   | 0.035684   | 0.038614   |   0.7 |  6.82
Comm    | 0.14499    | 0.17685    | 0.20031    |   2.9 | 33.82
Output  | 5.2898e-05 | 5.5029e-05 | 7.0834e-05 |   0.0 |  0.01
Modify  | 0.04405    | 0.051866   | 0.061501   |   2.0 |  9.92
Other   |            | 0.004678   |            |       |  0.89

Nlocal:        83.3333 ave          92 max          75 min
Histogram: 3 5 3 2 16 6 4 2 4 3
Nghost:        1770.58 ave        1790 max        1742 min
Histogram: 1 2 1 6 5 6 12 5 6 4
Neighs:        10668.5 ave       12433 max        9292 min
Histogram: 3 5 4 11 9 7 3 2 2 2

Total # of neighbors = 512086
Ave neighs/atom = 128.02150
Neighbor list builds = 144
Dangerous builds = 11

#############################
# L I N E A R  Q U E N C H  #
#############################

# Define solid atoms. This closely follows ten Wolde  Ruiz-Montero and Frenkel  Faraday Discuss  1996  104  93-110
# Compute components of the per-atom q6 vector
compute q6 all orientorder/atom degrees 1 6 components 6 nnn NULL cutoff 1.3 # compute the Q6 parameter.
                                                                             # Use all neighbours within 1.3 unit cell.

# get number of connections
compute coord_number all coord/atom orientorder q6 0.5

# An atom is solid if it has 8 or more connections (of a possible 14)
variable is_solid atom c_coord_number>=8
group solid dynamic all var is_solid    # Must be dynamic to update
dynamic group solid defined

# do clustering
compute cluster solid cluster/atom 1.3 # Create a cluster where all atoms within are solid and max 1.3 units from another member

# define chunks one chunk per cluster
compute clus_chunks solid chunk/atom c_cluster nchunk every compress yes  # Says which atoms are in which chunk

# count the size of each chunk
compute size_chunks solid property/chunk clus_chunks count


# Find the maximum entry in the vector of chunk sizes
variable max_n equal max(c_size_chunks)


# Thermo style which includes this variable
# thermo_style custom step temp pe vol v_max_n

thermo ${N}  # Print the thermo information every 100 steps
thermo 1000  

# Reset the npt fix at a lower temperature (below freezing)
fix 1  all npt temp  ${temp} ${temp}  0.1  iso  5.68  5.68  0.5  mtk yes tchain  5  pchain  5
fix 1  all npt temp  0.45 ${temp}  0.1  iso  5.68  5.68  0.5  mtk yes tchain  5  pchain  5
fix 1  all npt temp  0.45 0.45  0.1  iso  5.68  5.68  0.5  mtk yes tchain  5  pchain  5

dump dmp2 all dcd ${N} traj.dcd
dump dmp2 all dcd 1000 traj.dcd


compute msd all msd com yes
variable twopoint equal c_msd[4]/6/(step*dt+1.0e-6)
fix 9 all vector 10 c_msd[4]
variable fit equal slope(f_9)/6/(10*dt)
thermo_style custom step temp pe c_msd[4] v_twopoint v_fit v_max_n

fix 1 all npt temp 1.25 ${temp} 0.1 iso 5.68 5.68 0.5 mtk yes tchain 5 pchain 5
fix 1 all npt temp 1.25 0.45 0.1 iso 5.68 5.68 0.5 mtk yes tchain 5 pchain 5
run 5000000 # 5000000  # Run for this many steps
Neighbor list info ...
  update every 1 steps, delay 10 steps, check yes
  max neighbors/atom: 2000, page size: 100000
  master list distance cutoff = 3.8
  ghost atom cutoff = 3.8
  binsize = 1.9, bins = 9 9 9
  4 neighbor lists, perpetual/occasional/extra = 1 3 0
  (1) pair lj/cut, perpetual
      attributes: half, newton on
      pair build: half/bin/atomonly/newton
      stencil: half/bin/3d
      bin: standard
  (2) compute orientorder/atom, occasional
      attributes: full, newton on
      pair build: full/bin/atomonly
      stencil: full/bin/3d
      bin: standard
  (3) compute coord/atom, occasional
      attributes: full, newton on
      pair build: full/bin/atomonly
      stencil: full/bin/3d
      bin: standard
  (4) compute cluster/atom, occasional
      attributes: full, newton on
      pair build: full/bin/atomonly
      stencil: full/bin/3d
      bin: standard
Per MPI rank memory allocation (min/avg/max) = 9.778 | 9.786 | 9.793 Mbytes
Step Temp PotEng c_msd[4] v_twopoint v_fit v_max_n 
   12000     1.276287   -6.6134247 6.3100984e-30 4.3820126e-32 8.3333333e+20            8 
   13000    1.2160304   -6.6118174   0.54748188 0.0035094991  0.045585917            3 
   14000    1.2431495   -6.6281756     1.087342 0.0064722736  0.044489605            1 
   15000    1.2201811   -6.6246023    1.6126344   0.00895908  0.044621178            1 
   16000    1.2710413   -6.6253734    2.1002552  0.010938829   0.04364201            1 
   17000    1.2394371   -6.6248553    2.6141418   0.01281442   0.04324789            2 
   18000    1.2836509   -6.6329615    3.0710832  0.014217977  0.042821202            2 
   19000      1.24348   -6.6423991     3.536011   0.01550882  0.041972237            1 
   20000    1.2469544   -6.6008811     4.106113  0.017108804  0.041868023            2 
   21000    1.2287442   -6.6451503    4.6407237   0.01841557  0.042148633            1 
   22000    1.2538168   -6.6490332     5.196915  0.019685284  0.042332158            1 
   23000     1.226689   -6.6130835     5.708997  0.020684771  0.042552735            3 
   24000    1.2446941    -6.652987    6.1141828  0.021229801  0.042479682            2 
   25000    1.2347054   -6.6503598     6.664559  0.022215196  0.042406789            2 
   26000    1.2243179   -6.6452176    7.2261766  0.023160822  0.042494875            2 
   27000    1.2615443   -6.6427619    7.5872957  0.023417579  0.042362698            1 
   28000    1.2540617   -6.6502488     8.105047  0.024122163  0.042193971            1 
   29000     1.248565   -6.6380663    8.6139266  0.024752662  0.042135819            1 
   30000    1.2474755    -6.635153    9.0071026  0.025019729  0.041949803            1 
   31000    1.2684725   -6.6619866    9.4222448  0.025328615  0.041712926            1 
   32000    1.2519363   -6.6404179    9.9835732  0.025998888  0.041508169            3 
   33000    1.2632083   -6.6311399    10.426036  0.026328373  0.041398198            1 
   34000    1.2462009   -6.5919674    11.023838  0.027019211  0.041337772            2 
   35000    1.2628539   -6.6432764    11.471993   0.02731427  0.041297249            3 
   36000    1.2281413   -6.6100826    11.902848  0.027552887  0.041235028            2 
   37000    1.2409527   -6.6159573    12.421572  0.027976514  0.041173327            1 
   38000     1.258622   -6.6721989    12.873909  0.028232257  0.041105405            1 
   39000    1.2542157    -6.651361    13.325567  0.028473434  0.041027118            2 
   40000    1.2248891   -6.6431402     13.89904  0.028956334  0.040987341            2 
   41000    1.2310961     -6.61339    14.358712  0.029184373  0.040963574            3 
   42000    1.2355733   -6.6111672    14.791921   0.02934905  0.040908888            2 
   43000    1.2351346   -6.6124304    15.362106  0.029771524  0.040865454            1 
   44000    1.2410148   -6.6270793    15.690634   0.02971711  0.040803889            1 
   45000    1.2525235   -6.6211057    16.099573  0.029814024  0.040707971            2 
   46000    1.2557471   -6.6534424    16.594405  0.030062328  0.040620917            1 
   47000    1.2462247   -6.5941912    17.046868  0.030224944  0.040534464            1 
   48000    1.2243815   -6.6413145    17.355189  0.030130536  0.040430997            1 
   49000    1.2756883   -6.6581637    17.824861  0.030314389  0.040301437            2 
   50000    1.2320962   -6.6438978    18.367824  0.030613039  0.040177933            3 
   51000    1.2422864   -6.6196517    18.843659  0.030790292  0.040088752            1 
   52000     1.227463    -6.632481    19.281765  0.030900265  0.040005164            1 
   53000    1.2708357   -6.6304022    19.890554  0.031274455  0.039959303            1 
   54000    1.2784121   -6.6689748    20.356695  0.031414653   0.03995492            5 
   55000    1.2785607   -6.6057015    21.036121  0.031872911  0.039966587            1 
   56000    1.2417945   -6.6236401    21.502616   0.03199794   0.03999408            2 
   57000    1.2305359   -6.6760421    22.055638  0.032245084  0.040014111            2 
   58000     1.213805   -6.6382826    22.595992  0.032465505  0.040058799            1 
   59000    1.2189378   -6.6629428    23.047452  0.032552897  0.040102111            2 
   60000    1.2514474   -6.6727618    23.543462  0.032699252    0.0401474            3 
   61000    1.2398296    -6.615806    24.080844  0.032897328  0.040185368            2 
   62000    1.2454326   -6.6614859    24.471125  0.032891297  0.040221306            3 
   63000    1.2563051   -6.6342096    24.997358  0.033065288  0.040248839            2 
   64000    1.2608387   -6.6535301    25.573161  0.033298387  0.040278492            4 
   65000    1.2654996   -6.6390602    25.887051  0.033188527  0.040289428            1 
   66000    1.2213066   -6.6441392    26.386848  0.033316727  0.040294602            2 
   67000    1.2495427   -6.6617933    26.931363  0.033496719  0.040308332            2 
   68000    1.2339867   -6.6207547    27.351748  0.033519299  0.040315793            2 
   69000    1.2486984   -6.6445268    27.844704  0.033628869  0.040325861            1 
   70000    1.2111261   -6.6323531     28.38235  0.033788512  0.040347041            2 
   71000     1.224494   -6.6609086    29.101256  0.034156404   0.04036974            3 
   72000    1.2502531   -6.6511348    29.546878  0.034197775  0.040397654            3 
   73000    1.2374104   -6.6303671    30.259632  0.034542958  0.040446387            1 
   74000    1.2257433   -6.6528427     30.73904  0.034616035  0.040501198            3 
   75000     1.263783   -6.6571049    31.094396  0.034549329  0.040546019            2 
   76000    1.2411284   -6.6654609    31.514012  0.034554837  0.040587184            4 
   77000    1.2308495   -6.6733371    32.013502  0.034646647  0.040613628            1 
   78000    1.2313639   -6.6241518    32.723064  0.034960538  0.040645654            5 
   79000    1.2578983   -6.6514666    33.218494  0.035040606  0.040678654            3 
   80000    1.2341578    -6.648514    33.865022  0.035276064  0.040717191            1 
   81000      1.26008   -6.6318164    34.317883  0.035306464  0.040760085            1 
   82000    1.2408184   -6.6757697    34.726749  0.035291412  0.040801132            1 
   83000    1.2053476   -6.5851385    35.419704  0.035561952  0.040842167            1 
   84000    1.2084254   -6.6808793    35.661328  0.035378302  0.040878335            3 
   85000    1.2217688   -6.6349522    36.262045  0.035551024  0.040900029            3 
   86000    1.2344571   -6.6800128    36.641076  0.035504918  0.040921223            3 
   87000    1.2254004   -6.6547603    37.299547  0.035727535    0.0409439            1 
   88000    1.2501851   -6.6642174    37.682149  0.035683853  0.040981066            3 
   89000    1.2346611   -6.6022174    38.294461  0.035856237  0.041010204            3 
   90000    1.2249747   -6.6378585    38.687481  0.035821742  0.041034743            2 
   91000    1.2380475   -6.6083246    39.402423  0.036082804  0.041064824            2 
   92000    1.2330922   -6.6656704    39.755155  0.036010104  0.041093223            1 
   93000    1.2522628   -6.6257109    40.252225  0.036068302  0.041113042            2 
   94000    1.2630279    -6.668248    40.739761   0.03611681  0.041128924            2 
   95000    1.2371135   -6.6307158    41.385781  0.036303317  0.041149888            1 
   96000     1.244646   -6.6812828    41.909079  0.036379409   0.04117639            2 
   97000    1.2375721   -6.6153469    42.604984   0.03660222  0.041208291            1 
   98000     1.221643   -6.6362067    43.024697  0.036585626  0.041233155            2 
   99000    1.2549334   -6.6212292    43.362403  0.036500339  0.041256991            2 
  100000    1.2217122   -6.6487115    44.003921  0.036669934  0.041278182            2 
  101000    1.2284509   -6.6273904    44.221606  0.036486474  0.041301961            2 
  102000    1.2272043   -6.5972538    44.765223  0.036572895  0.041314145            3 
  103000    1.2500434   -6.6502632    45.041584  0.036441411  0.041313917            2 
  104000    1.2627345   -6.6663937    45.400372  0.036378503  0.041305799            2 
  105000    1.2204147   -6.6379546    45.993199  0.036502539   0.04129554            6 
  106000    1.2664922   -6.6855622    46.495887   0.03655337  0.041289277            2 
  107000    1.2355548   -6.6642824    46.904387  0.036529897  0.041281026            2 
  108000    1.2437575   -6.6431494    47.437301  0.036602856  0.041271124            1 
  109000     1.253327   -6.6754435    47.931513  0.036644888  0.041261876            1 
  110000    1.2069572   -6.6309656    48.531227  0.036766081  0.041257368            1 
  111000    1.2558516   -6.6499687    48.982987  0.036774014  0.041250884            1 
  112000    1.2121915    -6.665402    49.025467  0.036477282  0.041240673            2 
  113000    1.2304798    -6.700583    49.829512  0.036747428  0.041228607            2 
  114000    1.2399569   -6.6880375    50.264724  0.036743219  0.041225568            1 
  115000    1.2458416   -6.6514137    51.039055  0.036984823  0.041228301            2 
  116000    1.2224226   -6.6372027    51.460792  0.036968959  0.041235856            2 
  117000     1.233844   -6.6814389    51.900137   0.03696591  0.041239088            3 
  118000    1.2227565   -6.6631386    52.687727  0.037208847  0.041248266            1 
  119000    1.2397098   -6.6957052    53.192078  0.037249355  0.041256433            1 
  120000    1.2350443   -6.6854417    53.623733  0.037238703  0.041264224            2 
  121000    1.2265689   -6.6526328    54.062798  0.037233332  0.041272571            3 
  122000     1.224943   -6.6273512    54.568378  0.037273482   0.04127534            1 
  123000     1.248446   -6.6520763    54.844113  0.037157258  0.041267604            2 
  124000    1.2266681   -6.7031864    54.836747  0.036852653  0.041254109            2 
  125000    1.2358995   -6.6542772    55.433093  0.036955395   0.04123377            2 
  126000    1.2131541   -6.6401357    55.940377  0.036997603  0.041213619            1 
  127000    1.2104299   -6.6241586    56.455437   0.03704425  0.041193817            1 
  128000    1.2486918   -6.6851357    57.093987  0.037170565  0.041179659            4 
  129000    1.2218971   -6.6380511    57.721023  0.037287482  0.041167796            1 
  130000    1.2325709    -6.670628    57.952747  0.037149197  0.041159101            2 
  131000    1.2183673   -6.7041567    58.568176  0.037257109   0.04115257            1 
  132000    1.2388689   -6.6741205    58.876232  0.037169338  0.041144962            3 
  133000    1.2244123   -6.6565169    59.126953  0.037046963  0.041127794            2 
  134000    1.2263412   -6.6562494    59.619854  0.037077023  0.041111486            2 
  135000    1.2671181   -6.6737449    60.250745  0.037191818  0.041094144            2 
  136000    1.2713669   -6.6804625    60.750995  0.037224874  0.041079994            1 
  137000    1.2552904   -6.6608048    61.511933  0.037416018  0.041072122            1 
  138000    1.2376572   -6.6703985    61.926268  0.037395089   0.04106938            1 
  139000    1.2078802   -6.6546759    62.283382  0.037340157  0.041064056            2 
  140000    1.2345463   -6.6761081    62.829557  0.037398545  0.041057079            1 
  141000     1.200415   -6.6786896    63.225602  0.037367377  0.041047131            5 
  142000    1.2547093   -6.6508648    63.667124  0.037363336  0.041038077            2 
  143000    1.2173329   -6.6509296    64.264362  0.037450094  0.041026097            1 
  144000    1.2361988   -6.6529681    64.670031  0.037424786  0.041013851            4 
  145000    1.2409987    -6.699377    65.011346  0.037362842  0.041001892            1 
  146000    1.2285622   -6.7055478    65.683589  0.037490633  0.040993472            1 
  147000    1.2594995   -6.6793378    65.897347  0.037356773  0.040981245            2 
  148000    1.2283965   -6.6515396    66.592308  0.037495669  0.040967162            3 
  149000    1.2205763   -6.6496729    67.083432  0.037518698  0.040954146            2 
  150000    1.2324383   -6.7265513    67.209353  0.037338529  0.040940735            1 
  151000    1.2702365   -6.6569218    67.974763  0.037513666  0.040927034            4 
  152000    1.2193444   -6.6146092      68.8607  0.037752576  0.040914183            4 
  153000    1.2465549   -6.6085051    69.116277  0.037645031   0.04090428            1 
  154000    1.2196474   -6.6666719    69.287058  0.037492997  0.040895192            2 
  155000    1.2338175   -6.6696644    69.748213  0.037499039  0.040880982            1 
  156000    1.2105645    -6.717253    70.118467  0.037456446  0.040866829            1 
  157000    1.2234208   -6.6664879    70.976622  0.037673366  0.040855007            2 
  158000    1.2134362   -6.6756895    71.604659   0.03776617  0.040844902            1 
  159000    1.2129301   -6.6991246    71.482919  0.037464842  0.040835344            2 
  160000    1.2198569   -6.6708294    71.946237  0.037471999  0.040823524            2 
  161000    1.2433889   -6.6684524    72.356781   0.03745175  0.040808047            3 
  162000     1.218575   -6.6764445    72.776328  0.037436382  0.040789962            3 
  163000    1.2231422    -6.705914    73.548471  0.037601468  0.040775057            2 
  164000    1.2290488   -6.6562027    73.675444  0.037436709  0.040758975            2 
  165000     1.227664   -6.6850932    74.310269  0.037530439   0.04074133            2 
  166000    1.2436132    -6.625472    74.989232  0.037645196  0.040724244            2 
  167000    1.2122361   -6.7092244    75.015505  0.037432887  0.040704199            2 
  168000    1.2196178   -6.6575853    75.121841  0.037262818   0.04068144            2 
  169000    1.2350834   -6.6578426    75.601729  0.037278959  0.040657776            1 
  170000    1.2108612   -6.6409644    76.240243  0.037372668  0.040631931            1 
  171000    1.2438728   -6.7092322    76.314062  0.037190089   0.04060555            2 
  172000    1.2403605   -6.6708727    77.190302  0.037398402  0.040583948            2 
  173000    1.2172606   -6.6927435    77.564179  0.037362321   0.04056129            2 
  174000    1.2123384   -6.6954017    77.942375  0.037328724  0.040538276            2 
  175000    1.2351684   -6.6838646    78.080476  0.037181179   0.04051197            1 
  176000    1.2421395   -6.7047754    78.574626  0.037203895  0.040483803            2 
  177000    1.2011131   -6.6639804    79.315035  0.037342295  0.040457529            1 
  178000    1.2306704   -6.7119001    79.449896  0.037195644  0.040431212            2 
  179000    1.2439883   -6.6661282    79.890664  0.037193047  0.040406181            1 
  180000    1.2514425   -6.6667085    80.796907  0.037405975  0.040379941            3 
  181000    1.2274506   -6.7199138    81.174102  0.037372975  0.040359197            4 
  182000    1.2202499    -6.679764     81.69388  0.037405623  0.040340473            1 
  183000    1.2289528   -6.6871394    81.968825  0.037326423  0.040322396            2 
  184000    1.2064306   -6.6521228    83.152366  0.037659586  0.040305953            4 
  185000    1.2208874   -6.6409867    83.414927  0.037574291  0.040291261            1 
  186000    1.2211623   -6.6674113    83.632372  0.037469701  0.040275267            4 
  187000    1.2532145   -6.6887968    83.892997  0.037385471  0.040258841            2 
  188000    1.2100625   -6.7333638    84.242967  0.037341741  0.040239306            1 
  189000    1.2319023   -6.6848572    84.883594  0.037426629  0.040218393            2 
  190000     1.224814   -6.6989114    85.042506  0.037299345  0.040197852            3 
  191000    1.2219836   -6.6975944    85.633151  0.037361758  0.040178815            1 
  192000    1.2256068   -6.6638343    86.376391  0.037489753  0.040161091            1 
  193000    1.2061696   -6.6623625    86.841182  0.037496192  0.040145114            1 
  194000    1.2285925   -6.6859398    87.237274  0.037473056  0.040131212            3 
  195000    1.2100433   -6.7069228    87.643197  0.037454357  0.040116717            1 
  196000    1.2471379   -6.6568458    88.364773  0.037570057   0.04010082            3 
  197000    1.2103536   -6.7244928    88.472634  0.037424972  0.040085835            2 
  198000    1.2334774    -6.626365    89.350408   0.03760539  0.040071773            4 
  199000     1.223328   -6.6510975    89.575349  0.037510615  0.040056012            1 
  200000    1.2094424   -6.7045994    89.982061  0.037492525  0.040040246            1 
  201000    1.2123029   -6.6618769    90.285715  0.037431888  0.040024173            2 
  202000    1.2194592   -6.7034784    90.575484  0.037366124  0.040007261            2 
  203000    1.2638955   -6.6004198    91.837253  0.037700022   0.03999343            3 
  204000    1.2133974   -6.6914449    91.922852  0.037550185   0.03998311            2 
  205000    1.2282849   -6.6852532    92.309246  0.037524084  0.039971714            2 
  206000    1.1947656    -6.713907    92.685561  0.037494159  0.039960318            2 
  207000    1.1913645   -6.6964249    93.102567  0.037480904  0.039947746            1 
  208000    1.2132505   -6.6917577    93.880096  0.037612218  0.039932907            2 
  209000    1.2033818   -6.7116978     94.31764  0.037606714  0.039919829            1 
  210000     1.224121   -6.6957099    94.587509  0.037534726   0.03990753            1 
  211000    1.2224306   -6.7235057    94.937718  0.037495149  0.039895052            2 
  212000    1.2239625   -6.7342508    95.185342  0.037415622  0.039881322            1 
  213000    1.2168306   -6.6603686    96.007305  0.037561543  0.039866932            1 
  214000    1.2468062   -6.7451435     95.87629  0.037335004  0.039852121            3 
  215000    1.2615152   -6.7006499    96.796202  0.037517908  0.039836915            2 
  216000    1.2088548   -6.7108795     97.27548   0.03752912  0.039821856            1 
  217000    1.2457453   -6.7075568    97.863947  0.037582161  0.039809051            2 
  218000    1.2302301   -6.7180159    98.414321  0.037620153  0.039797267            1 
  219000    1.2329227   -6.7121054    98.854913  0.037616025  0.039788508            2 
  220000     1.220812   -6.7396455    99.197064  0.037574645   0.03977741            3 
  221000    1.2100563   -6.7245259    99.415235  0.037486891  0.039766034            3 
  222000    1.2428572   -6.7250361    100.24407  0.037629157  0.039754454            1 
  223000     1.246611   -6.7119216    100.74232  0.037646606  0.039745429            2 
  224000    1.2269913   -6.6903529    101.46512  0.037747441  0.039736557            2 
  225000    1.2136844   -6.6991144    101.58132  0.037622711  0.039726353            1 
  226000    1.2415697   -6.7247582    102.01831  0.037617372  0.039717686            2 
  227000    1.2039161   -6.6492737    103.37074  0.037948143  0.039712769            2 
  228000    1.2215015   -6.6521264    103.86365  0.037961861  0.039710392            1 
  229000    1.2037834   -6.7178166    104.26032  0.037940437  0.039707122            1 
  230000    1.2578884   -6.7153353    104.72925  0.037945379  0.039705083            3 
  231000    1.2370086   -6.6973155    105.57312  0.038085542  0.039704925            1 
  232000    1.2223169   -6.7187604    105.68172  0.037960387  0.039706109            1 
  233000    1.2397171   -6.6880309    105.97982  0.037904086  0.039705996            1 
  234000    1.2063326   -6.7041031    106.57652  0.037954601  0.039705484            1 
  235000    1.2188549   -6.6896765    107.13896  0.037992537  0.039705925            5 
  236000    1.2189559   -6.6875558    107.93049   0.03811105  0.039707018            1 
  237000    1.2014445   -6.6653308    108.39311  0.038112908  0.039707381            1 
  238000    1.2202335   -6.6645842    109.16771  0.038223987  0.039708298            2 
  239000    1.2257239   -6.7073622    109.36255   0.03813199   0.03970993            1 
  240000    1.2279048   -6.6591631    110.68825  0.038433421  0.039713251            3 
  241000    1.1956661   -6.6578795    110.68668  0.038273404  0.039717359            3 
  242000    1.1997526   -6.6728774    110.90061  0.038188916  0.039722913            1 
  243000    1.2203387   -6.6937053    111.58226   0.03826552  0.039727177       -1e+20 
  244000    1.2014236   -6.7265093     111.6576  0.038134427  0.039729749            3 
  245000    1.1976401    -6.696106    111.89926  0.038060974   0.03973033            2 
  246000    1.2424814   -6.6922585    112.86883  0.038234698  0.039730663            3 
  247000    1.2284728   -6.7074552    113.07056  0.038147961  0.039732089            2 
  248000    1.2311967   -6.6955897    112.96708  0.037959367  0.039731622            3 
  249000    1.2253419   -6.7260931    113.64491  0.038033771  0.039730895            2 
  250000    1.2316222   -6.7466875    114.14831  0.038049438  0.039729549            2 
  251000    1.2156333   -6.6866745    114.52883  0.038024179  0.039725099            1 
  252000    1.2262258   -6.7118749    114.90157  0.037996551  0.039721424            2 
  253000    1.2179915   -6.7660038    115.17699  0.037937084  0.039717032            1 
  254000    1.1935234   -6.7094779    115.83185  0.038002575  0.039711052            2 
  255000    1.1869166   -6.7286871    115.80002  0.037843144  0.039706691            2 
  256000    1.2406068   -6.7392719    115.88554  0.037723157  0.039699812            2 
  257000    1.2056538   -6.6695576    116.84579  0.037887739  0.039691789            2 
  258000    1.2103285   -6.6942615    117.33459  0.037898768  0.039683704            2 
  259000    1.2008643    -6.728787    117.72343  0.037877551  0.039676578            1 
  260000    1.2169634   -6.6890357    117.89425  0.037786619  0.039669545            1 
  261000    1.2089017   -6.6888101    119.27185   0.03808169  0.039664228            1 
  262000    1.2052831   -6.7253293    119.25548  0.037931134  0.039660629            1 
  263000    1.1954277   -6.7203871    119.76756  0.037949163   0.03965563            3 
  264000    1.2348469   -6.6880005    120.04494  0.037892975  0.039649464            3 
  265000    1.2024876   -6.6707757    120.51224   0.03789693  0.039644324            4 
  266000     1.206201   -6.7185291    121.07678  0.037931321  0.039638371            1 
  267000    1.2281174   -6.7231851    121.59881  0.037952188  0.039631739            1 
  268000     1.236612   -6.7063321    122.43279  0.038069897   0.03962686            1 
  269000    1.2289529   -6.7381301     122.4904   0.03794622   0.03962138            2 
  270000    1.2392822   -6.6995601    123.17194  0.038016031  0.039616587            2 
  271000    1.2017284   -6.6775236    123.74211  0.038051079  0.039611982            2 
  272000    1.2208539   -6.7012015    124.56633  0.038163703  0.039608392            1 
  273000    1.2126422   -6.6941711      124.478  0.037996949  0.039604653            1 
  274000    1.2097969   -6.7535126    125.25191  0.038093645  0.039601572            2 
  275000    1.2191871   -6.7131086    125.62232   0.03806737  0.039597972            2 
  276000    1.2169535   -6.7252267    125.95651  0.038030346   0.03959497            2 
  277000    1.1901606   -6.6968691    126.33766  0.038007718  0.039591214            1 
  278000    1.2018996   -6.6840974    126.72019  0.037985667  0.039585002            1 
  279000    1.1846531    -6.696553    126.84472  0.037886715  0.039577599            2 
  280000    1.2488521   -6.7301237     127.1098  0.037830297  0.039570962            2 
  281000     1.203682   -6.7129698    127.67139  0.037862215   0.03956483            2 
  282000     1.208765   -6.7207744    128.27853  0.037907367   0.03955795            2 
  283000    1.1999962   -6.6892166    128.64354  0.037880901  0.039551459            3 
  284000    1.1971435   -6.6841997     128.7356   0.03777453  0.039544351            2 
  285000    1.2050739   -6.7386122    129.50333   0.03786647  0.039536274            1 
  286000    1.1966801   -6.7448029    129.85515  0.037836583  0.039528485            2 
  287000    1.1813857    -6.681301    130.76504  0.037968942   0.03952125            2 
  288000    1.2077562   -6.7169708    131.28733  0.037988231  0.039514287            2 
  289000    1.1959721   -6.6938704    131.64066  0.037958669  0.039508479            2 
  290000    1.2043614   -6.7062775    132.06212  0.037948884  0.039503021            3 
  291000     1.231303   -6.7068875     132.4357  0.037925459  0.039494785            1 
  292000    1.2011161   -6.6743191    132.65592  0.037858424  0.039486541            2 
  293000    1.2191577   -6.6881828    132.79521  0.037768831  0.039478167            1 
  294000    1.2071873   -6.7032167    133.67282  0.037889121   0.03946916            1 
  295000     1.205763   -6.6768292    133.70306  0.037769226  0.039459148            2 
  296000    1.2139519    -6.732192    133.63493  0.037622448  0.039447992            1 
  297000    1.2045972   -6.7434206    134.04526  0.037610903  0.039436174            1 
  298000    1.2289986   -6.6822156    134.72788   0.03767558  0.039424413            2 
  299000    1.2196744   -6.7375838    135.41955  0.037742351  0.039412338            2 
  300000    1.2155154   -6.7313829    135.34807  0.037596685  0.039400821            1 
  301000    1.2167415   -6.7544451    135.89162  0.037622265  0.039389079       -1e+20 
  302000    1.2017529   -6.7028878    136.87948  0.037770277  0.039378257            2 
  303000    1.1936909    -6.704845    137.04352  0.037690736  0.039367172            3 
  304000    1.1935372   -6.7491904    137.04956   0.03756841  0.039356005            2 
  305000    1.2070767   -6.6948465    138.01074  0.037707853  0.039345356            1 
  306000    1.2217664   -6.7392489    138.27999   0.03765795  0.039335892            2 
  307000    1.1999898   -6.7634773    138.88889  0.037700568  0.039325164            1 
  308000    1.1979843   -6.7204043    139.21915  0.037667518  0.039314599            2 
  309000    1.2105528   -6.7103914    139.30421  0.037568558  0.039303728            2 
  310000    1.1981943   -6.7364852    139.79686  0.037579801  0.039292691            2 
  311000    1.1886422   -6.6798747    140.65127  0.037687907  0.039282573            2 
  312000    1.1998907   -6.6824632    141.84209  0.037885174  0.039273698            1 
  313000    1.2422353   -6.7349681    141.07776  0.037560638  0.039263372            1 
  314000    1.2221575   -6.7029257    142.44568  0.037804056  0.039254564            1 
  315000    1.2184129   -6.6969792    142.26618  0.037636554  0.039245081            3 
  316000    1.2156567   -6.7154225    142.81116  0.037661172  0.039235444            2 
  317000    1.2007105   -6.6719215    143.88691  0.037825159  0.039226183            3 
  318000    1.2172806   -6.7178664    143.11273  0.037503335  0.039216836            1 
  319000    1.1855262   -6.7255591    144.17044   0.03766208  0.039207796            2 
  320000    1.1837637   -6.7506093    144.85088  0.037721583  0.039199013            2 
  321000    1.1857453   -6.6979265    145.61604  0.037802709  0.039190924            1 
  322000    1.2226335   -6.6848861    145.71323  0.037710462  0.039183749            2 
  323000    1.2274131   -6.7840983    145.53516   0.03754777  0.039175337            2 
  324000     1.197142   -6.7352454     147.2117  0.037863092  0.039167561            2 
  325000     1.208858   -6.7252665    147.38839  0.037791896  0.039160418            2 
  326000    1.2098283   -6.7187563    147.74526  0.037767192  0.039154086            1 
  327000    1.2111454   -6.7460859    147.66542  0.037631351    0.0391451            1 
  328000    1.2026264   -6.7586404    148.91456  0.037833984  0.039138187            1 
  329000    1.2143718   -6.7193688    149.09586   0.03776491  0.039131783            1 
  330000    1.1866347   -6.7438398    149.70459   0.03780419   0.03912652            2 
  331000    1.1749794   -6.7183609    151.09716  0.038040574   0.03912173            3 
  332000    1.1718009   -6.7500879     150.7956  0.037850302  0.039116644            4 
  333000     1.200237   -6.6863713    151.67112  0.037955736  0.039111037            3 
  334000    1.1780979   -6.7623468    151.77892  0.037868993  0.039106343            2 
  335000    1.2075445   -6.7404282     152.1736  0.037854129  0.039101552            2 
  336000    1.1795108   -6.7415359      152.538  0.037831844  0.039097348            2 
  337000    1.1785203   -6.7462737    153.36326  0.037923656   0.03909329            2 
  338000    1.1848569   -6.7499996    153.57403  0.037863421  0.039088431            3 
  339000    1.1881449    -6.710227    154.59744  0.038003305  0.039084349            4 
  340000    1.2035484   -6.6968546    154.99727  0.037989527  0.039080484            1 
  341000    1.2084139   -6.7618694    155.23666  0.037936622  0.039077428            1 
  342000    1.1948786     -6.70185    155.57058  0.037907061   0.03907399            3 
  343000    1.1856658   -6.7278156    156.22202  0.037954814  0.039070891            3 
  344000    1.1937627   -6.7138239    156.45303  0.037900444  0.039065886            1 
  345000    1.2070171    -6.716662    156.82303  0.037879958  0.039061537            2 
  346000    1.2152628   -6.7052738    157.40276  0.037910106  0.039055337            4 
  347000    1.1918289   -6.7373475    157.75715  0.037885964  0.039049355            2 
  348000    1.2016951   -6.7434244    158.08212  0.037854914  0.039044005            4 
  349000    1.1800396   -6.7221977    158.48195  0.037841917  0.039038833            1 
  350000    1.1774495   -6.7370207     158.7079  0.037787595  0.039033426            3 
  351000    1.2088654   -6.7457434    159.54692  0.037879135  0.039029022            1 
  352000    1.2106093   -6.7129631    159.35691  0.037726541  0.039024452            5 
  353000    1.1923557   -6.7072031     160.5258   0.03789561  0.039019515            1 
  354000    1.1986575   -6.7253355    160.56504  0.037797796  0.039013897            2 
  355000    1.1986984   -6.7429982    160.31085  0.037631654  0.039007222            2 
  356000    1.1672152   -6.7426768     160.7502  0.037628793  0.038998754            1 
  357000    1.2208867   -6.7327263    161.58851  0.037719074  0.038990527            3 
  358000    1.1994785   -6.7375536    161.90151  0.037686572  0.038981855            1 
  359000    1.1909208   -6.7337544    162.61878  0.037748091  0.038974679            2 
  360000    1.1814779    -6.714027    163.09562  0.037753615  0.038967581            1 
  361000    1.1610666   -6.7309747    163.26858  0.037688962  0.038960282            1 
  362000     1.198217   -6.7337354    163.88383   0.03772648  0.038954441            1 
  363000    1.1818446   -6.7322366    164.13614  0.037680474  0.038948075            2 
  364000    1.1876021   -6.7491007    164.73474  0.037713998  0.038941397            4 
  365000    1.1821181   -6.7804838    164.51404  0.037560283  0.038934615            2 
  366000    1.1684371   -6.7813137    164.75148  0.037511722  0.038926214            2 
  367000    1.1986723   -6.7582723     165.5607  0.037593256  0.038918245            5 
  368000     1.187052   -6.7161202    166.85353  0.037783862   0.03891117            4 
  369000    1.1896535   -6.7645448    166.12038  0.037515894  0.038903304            2 
  370000     1.194554   -6.7332133    167.24125  0.037666949  0.038896263            4 
  371000    1.1889838   -6.7504299    167.59837  0.037645637  0.038888434            2 
  372000    1.2142946   -6.7182448    167.69199  0.037565409  0.038880801            3 
  373000    1.2042855   -6.7283559     168.5207  0.037649843    0.0388735            2 
  374000    1.2047104   -6.7220509    169.37748  0.037740081  0.038865789            2 
  375000    1.1830901   -6.6934383    169.82592  0.037739093  0.038858046            1 
  376000    1.1967574   -6.7380041    169.63081  0.037595482  0.038850314            2 
  377000     1.192946   -6.7581423      169.778  0.037528293   0.03884278            1 
  378000    1.2099468   -6.7207814    170.62566  0.037615887  0.038833904            2 
  379000    1.2094336   -6.7580537    170.92819  0.037583156   0.03882462            1 
  380000    1.1883987   -6.7461849    171.18133  0.037539765  0.038815901            2 
  381000    1.1550458    -6.723885    172.25045  0.037675076  0.038807278            2 
  382000    1.1888275   -6.7600714    171.86731  0.037492869  0.038798488            2 
  383000    1.1873498   -6.7782054    172.36061  0.037502308  0.038790711            5 
  384000    1.1927516   -6.7293427    173.07471  0.037559617  0.038783389            2 
  385000    1.2297197   -6.7438592    173.45792  0.037545004  0.038776012            2 
  386000    1.1885192   -6.7016342    174.46708  0.037665604  0.038768635            3 
  387000    1.2105518   -6.7543403    174.58607    0.0375939  0.038762121            2 
  388000    1.1903094   -6.7362102    174.50082  0.037478698   0.03875447            3 
  389000    1.1856028   -6.7635471    174.78285  0.037442769  0.038745062            2 
  390000     1.190763   -6.7613225    175.20204  0.037436334  0.038736285            1 
  391000    1.2091459   -6.7490826    175.22397  0.037345262  0.038726959            2 
  392000    1.2049918   -6.7408578    175.73835  0.037359342  0.038716857            2 
  393000    1.2004192   -6.7812998    176.84924  0.037499838  0.038707306            1 
  394000    1.1878715   -6.6978917    177.40936  0.037523131   0.03869807            2 
  395000    1.1787532   -6.7357205    177.64485  0.037477817  0.038689873            2 
  396000     1.185766   -6.7611234    177.97676  0.037453021  0.038681088            1 
  397000    1.1776349   -6.7686438    177.99555  0.037362625  0.038671208            2 
  398000    1.1682115   -6.7040897    179.42366  0.037567768  0.038662841            2 
  399000    1.1688482   -6.7153432    179.73908   0.03753949  0.038655557            2 
  400000    1.1933779   -6.7518612    181.09654  0.037728446  0.038647796            2 
  401000    1.1542077   -6.7484219    180.82924  0.037578811  0.038640348            3 
  402000    1.1878187   -6.7106564    181.38447  0.037600429  0.038634438            1 
  403000    1.1427346   -6.7169249    181.45989  0.037522723  0.038627422            2 
  404000    1.1851746   -6.7695287    181.32614  0.037402256  0.038619514            2 
  405000    1.1963718   -6.7253234    183.20196  0.037695877  0.038613128            2 
  406000    1.1875915   -6.6923265    183.29694  0.037622524  0.038607503            2 
  407000     1.177548   -6.7338297     183.4226  0.037555814  0.038601912            2 
  408000    1.1873958   -6.7785046    183.99957  0.037581612  0.038597085            4 
  409000    1.2062864   -6.7686289    184.32693  0.037556423  0.038592379            1 
  410000     1.200136   -6.7370186    185.72239  0.037748454  0.038587614            2 
  411000    1.1766647   -6.7326237    185.85095  0.037682675  0.038582652            4 
  412000    1.1617003   -6.7409113    186.58845  0.037740382  0.038577699            1 
  413000    1.1977027   -6.7911409    186.91705  0.037715304  0.038573433            1 
  414000    1.1951608   -6.7715101    187.36924  0.037715225  0.038569788            3 
  415000    1.1782186   -6.7472993    187.94276   0.03773951   0.03856617            1 
  416000    1.1910897   -6.7207507    188.51325   0.03776307  0.038562855            1 
  417000    1.1714248   -6.7570242    188.86825  0.037743455  0.038559602            2 
  418000    1.1616591   -6.7310145    190.02472  0.037883715  0.038556189            1 
  419000    1.1931258   -6.7283195    189.50208  0.037689355  0.038553284            4 
  420000    1.1953232   -6.7826704    189.98669  0.037695772  0.038550076            7 
  421000    1.1597786   -6.7322424    191.12393  0.037831339   0.03854776            1 
  422000    1.1747586   -6.7303215    191.57345  0.037830461    0.0385453            3 
  423000    1.1694259   -6.7522807    191.27133  0.037681508  0.038542038            1 
  424000    1.1953541   -6.7436341    191.44492  0.037626753  0.038538104            1 
  425000    1.2035743   -6.7587058    192.06199  0.037659214  0.038534668            2 
  426000    1.1740063    -6.752395    192.26701  0.037610917  0.038530958            2 
  427000    1.1920359   -6.7663455    192.55321  0.037578691  0.038526881            2 
  428000    1.1913784      -6.7261    193.65236  0.037704899   0.03852272            3 
  429000    1.2064199   -6.7344134    194.09824  0.037703621  0.038519001            2 
  430000    1.1889444   -6.7877581    194.13707  0.037623464  0.038514966            3 
  431000    1.1930653   -6.7361511    194.62202  0.037629934  0.038511717            1 
  432000    1.1797574   -6.7637634    194.95354  0.037606779  0.038508137            1 
  433000    1.2121996   -6.7496912    196.03927  0.037728881   0.03850487            2 
  434000    1.1511838   -6.7896628    195.94943  0.037624698  0.038500796            1 
  435000     1.190333   -6.7404685     196.5695  0.037656993  0.038496359            2 
  436000    1.2083774   -6.7895826    196.67672  0.037591117  0.038492055            2 
  437000    1.1688348    -6.746692    197.77727  0.037714964   0.03848801            2 
  438000    1.1988209   -6.7665618    197.89531  0.037651315  0.038484106            2 
  439000    1.1947087   -6.7604596    198.26165  0.037635089  0.038480317            2 
  440000    1.1613149    -6.794506    198.20561   0.03753894  0.038475545            3 
  441000    1.2053321   -6.8065391    198.67857  0.037543191  0.038470631            1 
  442000    1.1908056   -6.7452613    199.48321  0.037609957   0.03846521            5 
  443000    1.1762626   -6.7524084    199.60735   0.03754841  0.038460139            3 
  444000    1.1962252   -6.7231161    199.95398    0.0375289  0.038454607            4 
  445000    1.1896575   -6.7973009    199.41876  0.037344337   0.03844864            2 
  446000    1.1725242   -6.7900847    199.83567  0.037338504   0.03844253            2 
  447000     1.167877   -6.7437957    201.04796  0.037480977  0.038435885            2 
  448000    1.1941078   -6.7452957    200.96603  0.037382075  0.038429307            2 
  449000    1.1487003   -6.7629278     201.5944  0.037415442  0.038422907            2 
  450000    1.1575168   -6.7801555    201.67909   0.03734798  0.038415972            2 
  451000    1.1806417   -6.7584774    202.90609  0.037491887  0.038409618            2 
  452000    1.1609366   -6.7684105    202.37679  0.037311354  0.038402821            2 
  453000    1.1782345   -6.7927285    202.80608  0.037307961  0.038396017            2 
  454000    1.1873588   -6.7698473    204.07535  0.037458765  0.038389826            2 
  455000    1.2039247   -6.7918746    203.96169   0.03735562  0.038384099            2 
  456000    1.1875126   -6.7236805    205.46791  0.037548961  0.038378053            2 
  457000    1.1859957   -6.7403923    206.15408  0.037591919  0.038372895            4 
  458000    1.1948158   -6.7698541    206.02625  0.037486581  0.038367849            2 
  459000    1.1761031   -6.7973322    206.58041  0.037505521   0.03836212            1 
  460000    1.1788647   -6.7603367    207.58947  0.037606787  0.038356948            2 
  461000    1.1779678   -6.7475141    208.08913  0.037615533  0.038352956            1 
  462000    1.1873541   -6.7434245    208.15797  0.037546531  0.038349118            3 
  463000    1.1682362   -6.7594372    208.95464  0.037608826  0.038345183            1 
  464000     1.184654   -6.7835166    208.77412  0.037495351   0.03834051            1 
  465000    1.1711539   -6.7799833    209.09743  0.037472658  0.038336299            1 
  466000    1.1619381   -6.7965029    209.78051  0.037514397   0.03833112            1 
  467000    1.1873777   -6.7377659    211.15432  0.037679215  0.038327615            2 
  468000    1.1712018    -6.745981    211.59067  0.037676401  0.038323823            1 
  469000    1.1725138   -6.7544831    211.68207  0.037612308  0.038319921            2 
  470000    1.1911099   -6.7509834    211.65766  0.037527953  0.038316174            2 
  471000    1.1928917   -6.7704105    212.57248  0.037610134  0.038312612            1 
  472000    1.2064188   -6.7543158    213.23237  0.037646958  0.038309556            2 
  473000    1.1791116   -6.7680483    213.58742  0.037629918  0.038305336            2 
  474000    1.1787083   -6.7416038    213.61947  0.037556166  0.038301767            1 
  475000    1.2071512   -6.7143713    215.08617  0.037734416  0.038299127            1 
  476000    1.1898939   -6.8128661    214.88284  0.037619545  0.038296841            3 
  477000    1.1819398   -6.7825738    214.89971  0.037543625  0.038294532            2 
  478000    1.1917133   -6.7552101    215.23536  0.037523598  0.038291209            4 
  479000     1.169721   -6.7667446    215.85735   0.03755347  0.038288426            3 
  480000     1.178765   -6.7638121    215.12239  0.037347638  0.038285016            1 
  481000    1.1433168   -6.7710991     217.1428  0.037620028  0.038281317       -1e+20 
  482000    1.1628938   -6.8242872    217.03674  0.037523641  0.038277634            2 
  483000    1.1837358   -6.7733072     217.5509  0.037534663  0.038273807            2 
  484000     1.169924    -6.763347    218.64661  0.037645765  0.038270257            4 
  485000    1.1800823   -6.7672418    218.44859  0.037534122   0.03826707            7 
  486000    1.1752702   -6.7755152    219.41789  0.037623096  0.038263289            2 
  487000    1.1718122   -6.8167091    218.80495  0.037440956  0.038259767            3 
  488000    1.1736574   -6.8179772    219.28691  0.037446536  0.038255485            1 
  489000    1.1608968   -6.7840887    219.52306  0.037410202   0.03825107            2 
  490000    1.1759093   -6.7309596    220.78066  0.037547732  0.038246678            4 
  491000    1.1780492   -6.7632868    221.04952  0.037516891  0.038242355            2 
  492000    1.1657305   -6.8113506    221.62112  0.037537452  0.038238533            2 
  493000    1.1591482   -6.7758685    222.27385  0.037571645   0.03823539            2 
  494000    1.1893412   -6.7691431    223.53783  0.037708811  0.038233005            3 
  495000    1.1744636    -6.774428    223.05956  0.037552114  0.038230286            1 
  496000    1.1749831   -6.7592353    224.50511  0.037719273  0.038227968            3 
  497000    1.1591054   -6.7828535    224.47138  0.037637723  0.038225639            1 
  498000    1.1829333   -6.8080067    224.64522  0.037591235  0.038223326            1 
  499000    1.1819156   -6.7825109    225.83598  0.037714759  0.038220929            3 
  500000    1.1696035    -6.795937    225.64348  0.037607247  0.038219623            1 
  501000    1.1501692   -6.7899221    226.25688  0.037634212  0.038217853            2 
  502000    1.1634279   -6.7854356    227.13676  0.037705305  0.038216032            3 
  503000    1.1828134   -6.8052669    226.76524  0.037568794  0.038214056            2 
  504000    1.1649078   -6.7596831    228.22606   0.03773579  0.038211938            1 
  505000    1.1699666   -6.7754237    227.76991  0.037585794  0.038209617            1 
  506000    1.1890048    -6.790245    228.45097  0.037623678   0.03820664            2 
  507000    1.1807762    -6.779491    228.30768  0.037525916  0.038203195            1 
  508000    1.1662911   -6.8066081    228.99401  0.037564634  0.038199341            2 
  509000     1.134723   -6.7819377    229.46024  0.037567164  0.038195865            1 
  510000     1.165433   -6.7930762    230.40567  0.037647985  0.038192725            2 
  511000    1.1782554   -6.8016812    229.56967  0.037437976  0.038189621            2 
  512000    1.1720057   -6.7911498    230.34149  0.037490477  0.038185933            5 
  513000     1.145155   -6.7734655    230.97702  0.037520633   0.03818195            2 
  514000     1.178584   -6.8003571    231.10537  0.037468445  0.038178108            3 
  515000    1.1860012   -6.8037777    230.54206   0.03730454  0.038173585            3 
  516000    1.1556514   -6.8007419     232.7056  0.037581654  0.038169095            3 
  517000    1.1568228   -6.7666674    232.43281  0.037464991  0.038165596            3 
  518000    1.1545013   -6.8115439    231.99803   0.03732272  0.038161753            4 
  519000    1.1398857   -6.7943853     233.9328  0.037561464  0.038157806            1 
  520000    1.1589865   -6.8007681    234.33031  0.037552934  0.038154262            2 
  521000    1.1816497   -6.8401447    234.27238  0.037471589  0.038150765            3 
  522000    1.1652252    -6.753727    235.69259  0.037626532  0.038147486            1 
  523000    1.1805382   -6.7410694    236.41131  0.037669107  0.038145033            2 
  524000    1.1964612   -6.7863862    235.53323  0.037457574   0.03814177            1 
  525000    1.1698168   -6.7003138    237.03361  0.037624382  0.038138571            2 
  526000    1.1495273   -6.7758575    236.78523  0.037513503  0.038134963            3 
  527000    1.1518649   -6.7877061    237.70396  0.037587597  0.038131157            2 
  528000    1.1786527   -6.8107861     237.2553  0.037445597   0.03812785            2 
  529000    1.1508928   -6.7925491    237.70963  0.037446382  0.038123707            1 
  530000    1.1640865   -6.8103285    237.62107  0.037361803  0.038119566            1 
  531000    1.1693653   -6.8170043    238.48621  0.037427214  0.038115211            4 
  532000    1.1797231   -6.7817859    239.37887   0.03749669  0.038111429            1 
  533000    1.1512585    -6.778733    239.65327  0.037469241   0.03810797            5 
  534000    1.1993936   -6.7563383    240.27345  0.037495856  0.038104661            3 
  535000    1.1624912   -6.7824627    240.25377  0.037422705  0.038100951            2 
  536000    1.1714917   -6.8016272     240.5847  0.037404337  0.038096968            2 
  537000    1.1665711   -6.7872154    240.77269  0.037363857  0.038092397            1 
  538000    1.1667716   -6.7885791    240.92353  0.037317771  0.038088014            2 
  539000    1.1705539   -6.7794511    241.31055  0.037308372  0.038083727            2 
  540000    1.1594114   -6.7798588    241.53641  0.037274137  0.038079403            2 
  541000    1.1493757   -6.7517368    242.72249  0.037387938  0.038075502            2 
  542000    1.1799826   -6.7834548     243.1702  0.037387792  0.038071281            1 
  543000    1.1751506   -6.7773176    244.46508  0.037517661  0.038066913            1 
  544000    1.2059012   -6.7651845    244.66549  0.037479394  0.038062698            1 
  545000    1.1406728   -6.8230576    244.03431  0.037314114  0.038058673            1 
  546000    1.1488709   -6.8247692    244.80096  0.037362785  0.038053985            5 
  547000    1.1692583   -6.7702643    244.67113  0.037274699  0.038049673            3 
  548000    1.1650637   -6.7477507    246.26641  0.037449271  0.038046052            2 
  549000    1.1643291   -6.7931323    245.94192  0.037331803  0.038041845            2 
  550000    1.1556551   -6.7803693    245.78215   0.03723972  0.038038088            1 
  551000    1.1660701    -6.806804    247.06077  0.037365513  0.038033861            4 
  552000    1.1823775   -6.8075374    247.32274   0.03733737   0.03802901            3 
  553000    1.1993669   -6.7810379    247.47926  0.037293439  0.038024754            4 
  554000    1.1783586   -6.7571125    248.27131  0.037345263  0.038020221            3 
  555000    1.1615459   -6.7913572    247.42347  0.037150671  0.038015003            1 
  556000    1.1740162   -6.8139704    248.51154  0.037246934  0.038009198            2 
  557000    1.1774106   -6.8337577    247.62836   0.03704793  0.038002646            1 
  558000    1.1974434    -6.791421    248.43374  0.037101813  0.037996307            3 
  559000    1.1524175   -6.8369982     248.9389  0.037110748  0.037990007            1 
  560000     1.163426   -6.7777709    250.41594  0.037264277  0.037984138            2 
  561000    1.1429942    -6.779255    250.66173  0.037234362  0.037979545            1 
  562000    1.1592771   -6.7946002    251.57193  0.037303073  0.037974799            1 
  563000    1.1754107   -6.7560587    252.95881  0.037442097  0.037970472            1 
  564000    1.1810806   -6.7661355    253.25425  0.037419364  0.037966109            5 
  565000    1.1890773   -6.8001215     252.9808  0.037312802   0.03796146            2 
  566000    1.1596799   -6.8106802    252.66158  0.037199879  0.037956868            1 
  567000     1.126799   -6.7609523    254.15277  0.037353435  0.037952233            1 
  568000    1.1483358   -6.7542159    255.02012  0.037414923  0.037947704            1 
  569000     1.134835   -6.8571413    254.90614  0.037332475  0.037943455            1 
  570000    1.1290547   -6.7573478    256.34705  0.037477639  0.037939853            2 
  571000    1.1364565   -6.8012963    255.48597  0.037286335  0.037936451            2 
  572000    1.1905829   -6.7867595    255.68441   0.03725006  0.037932747            1 
  573000    1.1466018   -6.8256146    255.15804  0.037108499    0.0379286            2 
  574000    1.1584638    -6.821237    256.68922  0.037266146  0.037924299            3 
  575000    1.1782657   -6.8377205    256.19394  0.037129556  0.037920216            2 
  576000      1.17932   -6.7744203    258.10739  0.037341925  0.037916223            3 
  577000    1.1540125   -6.7826021    259.06997  0.037416229  0.037912905            1 
  578000    1.1570361   -6.8222394    259.05673  0.037349586  0.037909482            2 
  579000    1.1716241    -6.837587    259.92505  0.037410053  0.037906116            3 
  580000    1.1518217   -6.7798043    259.60194  0.037299129  0.037902746            2 
  581000    1.1460359   -6.8131112    259.92805  0.037281706  0.037899065            1 
  582000    1.1600133   -6.8118817     259.9833  0.037225558  0.037895555            1 
  583000    1.1669201      -6.7882    260.07296  0.037174522  0.037891198            2 
  584000    1.1485686   -6.7819083     261.3634  0.037295006  0.037887802            2 
  585000     1.170845   -6.8060668    262.18869  0.037348816  0.037884221            2 
  586000    1.1210924   -6.7910027    261.48408  0.037184881   0.03788002            3 
  587000    1.1784799   -6.7981312    261.85612   0.03717435  0.037875331            2 
  588000    1.1552769   -6.8178665    262.54894  0.037209316  0.037870351            2 
  589000    1.1481472   -6.8296391    262.06536  0.037077725   0.03786483            2 
  590000    1.1512565   -6.8417534    262.80968  0.037120012  0.037859457            1 
  591000    1.1701728   -6.8156857    263.55115  0.037161752  0.037854074            1 
  592000    1.1451728   -6.8118175    262.72943  0.036983309  0.037848528            1 
  593000    1.1586619   -6.8283127    263.78301     0.037069  0.037843145            2 
  594000    1.1547243   -6.8019322    263.51773  0.036969379  0.037837465            3 
  595000    1.1602373   -6.8020469    264.70699  0.037073808  0.037831346            1 
  596000    1.1543892   -6.8120979    264.59876  0.036996471  0.037825293            1 
  597000    1.1478217   -6.8087307    265.61327  0.037076113  0.037818505            3 
  598000    1.1567331   -6.8144452    265.41666  0.036986714  0.037811521            2 
  599000     1.162608   -6.7904517    264.43986  0.036789074  0.037803907            2 
  600000    1.1533723   -6.8248008    265.07103  0.036815421  0.037796284            3 
  601000    1.1557825   -6.8489696     264.7937  0.036715709  0.037788299            1 
  602000    1.1418958   -6.8338693    265.57571  0.036762972  0.037780117            2 
  603000    1.1583414   -6.7940967     266.8278  0.036875042   0.03777208            1 
  604000    1.1445611   -6.8205552    267.15849  0.036859615  0.037764018            2 
  605000    1.1280612   -6.8133807    268.01556  0.036916743  0.037755811            1 
  606000    1.1531388   -6.8178769    267.90368  0.036840441  0.037747792            2 
  607000    1.1785287   -6.8329169    267.81383  0.036767412  0.037739729            2 
  608000    1.1269195   -6.7859874    268.65498  0.036822228  0.037731584            5 
  609000    1.1611472    -6.798115    269.02591  0.036812522  0.037723116            2 
  610000      1.13631   -6.8327979    268.47736  0.036677235  0.037714661            2 
  611000    1.1456835   -6.8355708    267.70488  0.036511849  0.037705518            4 
  612000    1.1410478   -6.8373275    268.21521  0.036521679  0.037696056            2 
  613000    1.1471833    -6.831789    269.82036   0.03668031  0.037686461            3 
  614000    1.1334167    -6.834465    269.18653  0.036534545  0.037676903            1 
  615000    1.1748629   -6.8260365     270.3751  0.036636193  0.037667418            3 
  616000    1.1457211   -6.8020081    270.24517   0.03655914  0.037658421            2 
  617000    1.1488277   -6.8526934    270.50063  0.036534391  0.037648832            2 
  618000    1.1534336   -6.8064234    270.90213  0.036529414  0.037639319            3 
  619000      1.12611   -6.8298007    271.67629  0.036574621  0.037630056            6 
  620000    1.1442048   -6.8291084    270.38055  0.036341472  0.037620306            2 
  621000    1.1448127   -6.8068602     272.4573  0.036561634  0.037610135            1 
  622000    1.1285221    -6.777209    271.84803  0.036421226  0.037600296            1 
  623000    1.1619382   -6.8445967    272.37382  0.036433095  0.037590775            2 
  624000    1.1375308   -6.7791908    272.84703  0.036437905  0.037580585            1 
  625000    1.1449948   -6.8156128    273.39133  0.036452177  0.037570637            2 
  626000     1.159222   -6.8217497    273.19549  0.036367876  0.037560187            2 
  627000    1.1416568   -6.8451901    273.61681   0.03636587  0.037550292            1 
  628000     1.172652   -6.8359828    273.87938  0.036342806  0.037539927            2 
  629000    1.1435757   -6.7936348    275.07497  0.036443424  0.037530128            2 
  630000    1.1637692   -6.8570783    274.21341  0.036271615  0.037519955            2 
  631000    1.1388963   -6.8466028    274.91187  0.036306375  0.037509729            3 
  632000    1.1430575   -6.8384641    276.42762   0.03644879  0.037499576            1 
  633000    1.1533328   -6.7732298    277.14111  0.036485138  0.037490012            3 
  634000    1.1468956   -6.8785367    276.28916   0.03631561  0.037480125            3 
  635000    1.1142774   -6.8513756    276.76602     0.036321  0.037470146            2 
  636000    1.1757235   -6.8219135    277.76269  0.036394482  0.037460224            3 
  637000    1.1658128   -6.7930548     278.1793   0.03639185  0.037450623            2 
  638000    1.1572387   -6.8222288    278.02784  0.036315026  0.037440693            3 
  639000    1.1366202   -6.8438301    278.37441  0.036303392  0.037430394            2 
  640000    1.1593451   -6.8692982    279.04838  0.036334424  0.037420343            2 
  641000    1.1354524   -6.8295217    278.70354  0.036232909  0.037410071            3 
  642000    1.1522551   -6.8380518     279.6695  0.036301856  0.037399832            3 
  643000    1.1401256   -6.7950472    280.72443  0.036382119  0.037389776            1 
  644000    1.1731123   -6.8186502    280.97923  0.036358596   0.03738021            2 
  645000    1.1745234   -6.8012584    281.93927  0.036426262  0.037370689            1 
  646000    1.1522595   -6.8083282    281.93817  0.036369733  0.037361552            3 
  647000    1.1411563   -6.8404241    282.16867  0.036343208  0.037351911            2 
  648000    1.1500899   -6.8178009    282.55082  0.036336268  0.037342627            1 
  649000    1.1454711    -6.867503    282.44394  0.036266556  0.037333165            1 
  650000    1.1549008   -6.7957571    284.58871  0.036485732  0.037324469            1 
  651000    1.1484117    -6.806636     284.9838  0.036480262  0.037315902            2 
  652000    1.1415509    -6.821043    285.19762  0.036451639  0.037307688            4 
  653000    1.1559351   -6.8149248    285.56943  0.036443265  0.037299722            3 
  654000    1.1565991   -6.8018599    286.42507  0.036496569  0.037291775            3 
  655000    1.1871339   -6.8378559    285.97115  0.036383098  0.037284457            1 
  656000    1.1543027   -6.8669237    286.27663  0.036366442  0.037276514            2 
  657000    1.1549266   -6.8767073    287.45624   0.03646071  0.037268348            3 
  658000    1.1247182   -6.8502114     287.8656  0.036457142  0.037260975            1 
  659000    1.1642276   -6.8544619    288.62489  0.036497837  0.037253487            1 
  660000    1.1590585   -6.8366692    289.72146  0.036580993   0.03724615            3 
  661000    1.1269991   -6.8044768    288.91758  0.036424304  0.037239191            2 
  662000      1.14112   -6.8628012    289.79922  0.036480265  0.037232125            2 
  663000    1.1711302   -6.8157896    290.76624  0.036546787  0.037225194            1 
  664000    1.1340317   -6.8253495     291.2822  0.036556501  0.037218916            2 
  665000    1.1175984   -6.8308529    291.28428  0.036501789   0.03721281            3 
  666000    1.1299582    -6.824599    291.51157  0.036475422  0.037206331            2 
  667000    1.1604488   -6.8258758    293.13002  0.036622942  0.037199836            2 
  668000    1.1438768   -6.8392083    292.69006  0.036513232  0.037193305            2 
  669000    1.1576307   -6.8242235    293.69975  0.036584423   0.03718671            4 
  670000    1.1673512   -6.8061834    293.75382  0.036536544  0.037180517            3 
  671000    1.1377205    -6.832244    293.15383  0.036407579  0.037173715            4 
  672000    1.1586892     -6.85088    294.01829  0.036460601  0.037167002            1 
  673000    1.1351393   -6.8635766    295.17919  0.036550172  0.037160206            4 
  674000    1.1395444   -6.8332388    294.72657  0.036439981  0.037154176            2 
  675000    1.1192975   -6.8022324    295.88291  0.036528754  0.037147883            1 
  676000    1.1491636   -6.8531556     295.5453  0.036433099   0.03714183            4 
  677000    1.1425236   -6.8493511    296.18968  0.036458601   0.03713559            3 
  678000    1.1389645   -6.8047276    296.88859  0.036490731  0.037129609            5 
  679000    1.1251917   -6.8449144    296.10109   0.03634034  0.037122928            2 
  680000    1.1326321   -6.8296268    297.07426  0.036406159  0.037115929            2 
  681000    1.1560519   -6.8447442    298.65719  0.036546402  0.037109406            1 
  682000    1.1559179   -6.8262885    298.13005  0.036428403  0.037103262            3 
  683000    1.1277962   -6.8351242    298.56066  0.036427606  0.037096828            2 
  684000     1.136444   -6.8026374    299.67603  0.036510238  0.037090041            2 
  685000    1.1307161   -6.8677602    298.62205  0.036328717  0.037083363            3 
  686000     1.143605    -6.843772    299.08189   0.03633162  0.037076789            1 
  687000    1.1662162   -6.8394976    299.82841  0.036369288  0.037069866            4 
  688000    1.1462138   -6.8191578    299.70237  0.036301159  0.037063007            1 
  689000    1.1493632   -6.8336199      300.665  0.036364901  0.037056687            1 
  690000    1.1218498   -6.8474276    301.91903   0.03646365  0.037050682            1 
  691000    1.1462428   -6.8243336    302.72151  0.036507659  0.037044852            1 
  692000    1.1340712   -6.8498407    301.73364  0.036335939  0.037038405            2 
  693000    1.1633028   -6.8138895    302.59757  0.036387394  0.037032255            2 
  694000    1.1493317   -6.8084497    303.96345  0.036498974  0.037026008            1 
  695000    1.1366592    -6.828214    303.06705  0.036338975  0.037019245            2 
  696000    1.1505111   -6.8554739    303.87451  0.036383442  0.037013244            2 
  697000    1.1586131   -6.8707809    303.05622  0.036233408  0.037006571            2 
  698000    1.1592558   -6.8646785    303.97615  0.036291327  0.036999253            1 
  699000    1.1560065   -6.8503132    303.95407  0.036236775  0.036991998            1 
  700000    1.1352533   -6.8590823    303.91487  0.036180342  0.036984596            2 
  701000    1.1433905   -6.7927665    305.28354  0.036291433  0.036977627            1 
  702000    1.1267243   -6.8583763    305.54717  0.036271031  0.036970811            1 
  703000    1.1525466   -6.8513843    305.75242  0.036243767  0.036963884            2 
  704000    1.1443458    -6.825458     305.2959  0.036138246  0.036956776            6 
  705000    1.1160158   -6.8393324     306.0066  0.036170992  0.036949442            2 
  706000    1.1442301   -6.8227837     307.0361  0.036241277  0.036941885            1 
  707000    1.1356146   -6.8525631    306.62196  0.036141202  0.036934212            2 
  708000    1.1214659   -6.8538082    307.24137  0.036163061  0.036926483            2 
  709000    1.1564004   -6.8692994    307.68229  0.036163879  0.036918527            3 
  710000    1.1580513   -6.8773759     307.7009  0.036115129  0.036910788            2 
  711000    1.1309875   -6.8407537    309.17946   0.03623763  0.036903419            1 
  712000    1.1271993   -6.8479951     309.1767  0.036186411   0.03689569            3 
  713000    1.1285814   -6.8915326    308.59768  0.036067985  0.036888022            2 
  714000    1.1475265   -6.8272451    308.93902  0.036057309  0.036880867            1 
  715000    1.1085856   -6.8379971    310.70671  0.036212903  0.036873407            2 
  716000    1.1276348   -6.8467782    310.62195  0.036152462  0.036865976            5 
  717000    1.1408794   -6.8720174    310.17409  0.036049988  0.036858287            3 
  718000    1.1398573   -6.8480222    309.87412  0.035964963  0.036850156            1 
  719000    1.1425626   -6.8769142    311.29763   0.03607993  0.036842282            2 
  720000    1.1313261   -6.8617518    310.58607  0.035947462  0.036834183            2 
  721000    1.1051429   -6.8452609    312.53574  0.036122947  0.036825962            2 
  722000    1.0916167   -6.8192245    312.47485  0.036065887  0.036817556            3 
  723000    1.1355591   -6.8644475    312.61991  0.036032723  0.036809342            1 
  724000     1.120636   -6.8396839    313.21951  0.036051969  0.036801401            2 
  725000     1.143193   -6.8667966    312.81941  0.035956254  0.036793844            2 
  726000    1.1128844   -6.8522493     313.5277  0.035988028  0.036785419            1 
  727000    1.1281689   -6.8581467    313.57936  0.035944447   0.03677735            2 
  728000     1.147432   -6.8934524    313.66647  0.035905045  0.036769149            5 
  729000    1.1229143   -6.8890791    313.74622  0.035864909  0.036760918            1 
  730000    1.1284602    -6.814198    315.57287  0.036024301  0.036752655            1 
  731000    1.1371033   -6.8743758    315.22146  0.035934959   0.03674443            2 
  732000    1.1368007   -6.8932449    314.17185  0.035766376   0.03673584            1 
  733000    1.1251529   -6.8829488    315.80737   0.03590352  0.036726961            2 
  734000    1.1716351   -6.8706424    315.45819  0.035814962  0.036718426            2 
  735000    1.1434633   -6.8674052    316.93752  0.035933959  0.036709788            3 
  736000    1.1266187   -6.8325225    316.64559  0.035852082  0.036701198            2 
  737000    1.1126043   -6.8458804    317.22663  0.035869135  0.036692728            2 
  738000    1.1391077   -6.8536746    317.29848  0.035828645  0.036683871            2 
  739000    1.1499015   -6.8917914    317.39482  0.035791026  0.036675424            3 
  740000    1.1411416   -6.8679208    318.14358   0.03582698  0.036666588            5 
  741000    1.1165393   -6.8619624    319.93092  0.035979636  0.036658075            1 
  742000    1.1406817   -6.8541384    318.79029  0.035803042  0.036649974            2 
  743000    1.1328265   -6.8695608    319.19176  0.035799883  0.036641481            2 
  744000    1.1465877   -6.8824193     319.7154  0.035810416  0.036633306            1 
  745000    1.1224964   -6.8309546    321.14735  0.035922522  0.036625377            1 
  746000    1.1508696   -6.8555905    320.95342  0.035852706  0.036617476            3 
  747000     1.124305   -6.9247686    320.14279  0.035714278  0.036609269            2 
  748000    1.1283074   -6.8169164    322.98482  0.035983157  0.036601381            3 
  749000    1.1408183   -6.8507594    322.57164  0.035889146  0.036593389            1 
  750000    1.1395775   -6.8838927    320.85543  0.035650603  0.036585136            2 
  751000    1.1228891   -6.8669276    322.82041  0.035821173  0.036576851            2 
  752000    1.1284768   -6.9076607    322.90396  0.035782796   0.03656838            2 
  753000     1.144622   -6.8805174     323.4671  0.035797599  0.036560404            1 
  754000    1.1124007   -6.8839295    323.68476  0.035774178  0.036552475            2 
  755000    1.1438126   -6.8685922    323.54186  0.035711022  0.036544211            1 
  756000    1.1308058    -6.844147    324.58668  0.035778955  0.036536081            1 
  757000    1.1320208   -6.8877665    323.59389    0.0356224  0.036527446            2 
  758000    1.1052573   -6.8894759    324.11172  0.035632335  0.036518743            1 
  759000    1.1560181    -6.886697    324.91773  0.035673883  0.036509945            1 
  760000    1.1378551   -6.8880706    325.15484  0.035652943  0.036501575            4 
  761000    1.1169341   -6.8752571    325.46475  0.035640029  0.036493084            1 
  762000      1.14192   -6.8793449    326.42877  0.035698684  0.036485022            2 
  763000     1.117168   -6.9184678    327.07752  0.035722752  0.036476698            2 
  764000    1.1278529   -6.8731329    327.23461  0.035693129  0.036468649            3 
  765000    1.1107084   -6.8885673      327.846  0.035713072  0.036460506            1 
  766000     1.124549   -6.8458269    328.79421  0.035769605  0.036452793            1 
  767000    1.1330304   -6.8441068    329.53643  0.035803611  0.036445065            2 
  768000    1.1194202   -6.8462621    329.62049  0.035766113  0.036437727            2 
  769000    1.1044176   -6.8917244    328.65805  0.035615307  0.036429913            3 
  770000     1.150622   -6.8486773    331.21981    0.0358463  0.036421881            2 
  771000    1.1101706   -6.8482552    330.62719  0.035735753  0.036414042            2 
  772000    1.1342994   -6.8890952    330.27058  0.035650969  0.036406224            4 
  773000    1.1470865   -6.8463983    331.72914   0.03576209  0.036398302            4 
  774000    1.1212885   -6.8653763    332.82364  0.035833725  0.036390899            5 
  775000    1.1381225   -6.8562547    331.43401  0.035638066  0.036382892            3 
  776000    1.1183119   -6.8596254    333.32454  0.035795161  0.036375184            4 
  777000    1.1161401   -6.8469037    331.88054  0.035594223  0.036367259            4 
  778000    1.1353923   -6.8760712    332.60373  0.035625935   0.03635892            2 
  779000    1.1166657   -6.8806668    332.72256  0.035592914  0.036350727            1 
  780000    1.1110108   -6.8635493    332.92343  0.035568743  0.036342294            3 
  781000    1.1265883   -6.7953696    335.33554  0.035780574   0.03633429            2 
  782000    1.1452669   -6.9061268    333.74519  0.035565344  0.036326351            6 
  783000    1.1267195   -6.8531702    334.45428  0.035595389  0.036318076            2 
  784000    1.1196519   -6.8802481    333.50202  0.035448769  0.036309573            2 
  785000    1.1337558   -6.8772248    334.71433  0.035532306  0.036301066            2 
  786000    1.1440781   -6.8282927    335.82989  0.035605375  0.036292853            4 
  787000    1.1180936   -6.8829939    334.86972  0.035458463  0.036284568            2 
  788000    1.1301254   -6.8626084    335.88742  0.035521089   0.03627674            2 
  789000    1.1105525   -6.8667581    337.10337  0.035604496  0.036268898            3 
  790000    1.1231858   -6.8794227    337.48984  0.035600194  0.036261221            2 
  791000    1.1488482   -6.8543099    338.33834  0.035644579   0.03625367            3 
  792000    1.1055074   -6.8725098    339.36192  0.035707273  0.036246225            1 
  793000    1.1420176   -6.8667119    338.64701  0.035587117  0.036238688            2 
  794000     1.139799   -6.8700228    339.85537  0.035669119  0.036231332            4 
  795000    1.1294197   -6.8574433    340.04997  0.035644651  0.036224003            1 
  796000    1.1163437   -6.8351304    340.70839  0.035668801  0.036216913            2 
  797000    1.1158909   -6.8363965    341.79997  0.035738181  0.036209922            1 
  798000    1.1170965   -6.8831944    340.85284   0.03559449  0.036202806            2 
  799000    1.1221516   -6.8637312    341.63587  0.035631609  0.036195544            5 
  800000    1.1126946   -6.9116089    340.73401  0.035493126  0.036187813            6 
  801000    1.1180866   -6.8712524     341.3819  0.035516219  0.036179935            2 
  802000      1.13471   -6.8897788    342.09064  0.035545578  0.036172311            1 
  803000    1.1431852   -6.8522474    342.10051  0.035502336  0.036164819            2 
  804000    1.1216972   -6.9008572    342.55491  0.035505277  0.036157439            2 
  805000    1.1334423   -6.8602304    342.88209  0.035495041  0.036149618            3 
  806000    1.1201784   -6.8575956    343.88396  0.035554586  0.036141718            1 
  807000    1.1551144   -6.8358874    343.86166  0.035508226  0.036134156            3 
  808000    1.1194653   -6.9147391    342.90814  0.035365939  0.036126053            2 
[...]
 4800000   0.48249664   -8.2731404     729.4397  0.012663884  0.011040374            5 
 4801000   0.49271424    -8.302868    730.11249  0.012672924  0.011036809            6 
 4802000   0.47261926   -8.2778713    729.09505  0.012652628  0.011033243            9 
 4803000   0.47845957   -8.2658219    729.47457  0.012656579  0.011029681            7 
 4804000   0.48591334   -8.2637975    728.85929  0.012643271  0.011026117            5 
 4805000   0.48077646   -8.2835385     729.2939  0.012648177  0.011022556            8 
 4806000   0.48535751   -8.2725069    729.58116  0.012650526  0.011018998           12 
 4807000   0.48092746   -8.2739983    729.23354  0.012641868  0.011015443           15 
 4808000   0.47992775   -8.2761205    729.76003  0.012648364  0.011011889            7 
 4809000    0.4863578   -8.2717195    729.91484  0.012648417  0.011008335            6 
 4810000   0.48321994   -8.2916544    729.87563  0.012645108  0.011004779           11 
 4811000   0.48938283   -8.2875245    727.91402  0.012608502   0.01100123            8 
 4812000   0.48970018   -8.2614281    728.21518  0.012611097  0.010997678            7 
 4813000   0.47188475   -8.2714991    729.80049  0.012635925   0.01099413            6 
 4814000   0.48283276   -8.2746817    728.96142  0.012618775  0.010990584            9 
 4815000    0.4811205   -8.2743422    729.46653  0.012624897  0.010987036            6 
 4816000   0.47288637   -8.2663894    728.77968   0.01261039  0.010983488            7 
 4817000   0.47927568    -8.278715    729.29124  0.012616622  0.010979944            5 
 4818000   0.48646231   -8.2749652    729.10742  0.012610824  0.010976401            7 
 4819000   0.47927773   -8.2821765    730.01803  0.012623954  0.010972858           10 
 4820000   0.47409167   -8.2674845    729.60759  0.012614239  0.010969318            8 
 4821000   0.47754002   -8.2848585    729.09203  0.012602711  0.010965781            6 
 4822000   0.49197838   -8.2957881    728.67519  0.012592894  0.010962243            4 
 4823000   0.48670209   -8.2898577    729.71611  0.012608268  0.010958706            5 
 4824000   0.48583211   -8.2824969    728.91634  0.012591838  0.010955171           10 
 4825000   0.48504556   -8.2715601    728.59815  0.012583733  0.010951639            8 
 4826000   0.48046966    -8.286167     730.1353  0.012607669  0.010948106            7 
 4827000    0.4846141   -8.2790537    729.66855  0.012596999  0.010944579            8 
 4828000   0.48613013   -8.2756423    728.99207  0.012582713  0.010941052           12 
 4829000    0.4715191   -8.2884337    729.75421   0.01259326  0.010937524            6 
 4830000   0.47707662   -8.3043663    728.86716  0.012575348  0.010933999            4 
 4831000   0.46763745    -8.284183    729.53512  0.012584267  0.010930477            8 
 4832000   0.48288375   -8.2912856    728.75367  0.012568186  0.010926957            6 
 4833000   0.47236968    -8.280384    728.79377  0.012566276  0.010923435            5 
 4834000   0.47781233   -8.2931617    729.53466  0.012576449  0.010919913           10 
 4835000   0.46843528   -8.2884832    728.80095  0.012561202  0.010916393            8 
 4836000   0.47972661   -8.2776691    728.90188  0.012560344  0.010912873            5 
 4837000   0.47451161   -8.2789835    728.78498  0.012555733  0.010909358            6 
 4838000   0.47352591   -8.2905765    728.62441  0.012550372  0.010905845            6 
 4839000    0.4798635    -8.303702    729.32206  0.012559793  0.010902333            6 
 4840000   0.47327747   -8.2764892    728.31296  0.012539824   0.01089882            9 
 4841000   0.48709631   -8.3056046    730.36324  0.012572527  0.010895312            7 
 4842000   0.48010553    -8.262716    729.03187  0.012547017  0.010891805            8 
 4843000   0.47207189   -8.2801221    729.48942  0.012552299  0.010888298            6 
 4844000    0.4816556   -8.2745925    729.70909  0.012553487   0.01088479            4 
 4845000   0.48121935   -8.2910591    728.89723  0.012536932  0.010881285            9 
 4846000   0.47157561   -8.2709863     729.2353  0.012540159  0.010877781            6 
 4847000   0.47108468   -8.2877561    728.90238  0.012531848  0.010874278            7 
 4848000   0.47533772   -8.2989067    729.37299  0.012537352  0.010870777            9 
 4849000   0.46605486   -8.2879114    728.43964  0.012518726  0.010867277            8 
 4850000   0.48220415   -8.2900701    728.61745    0.0125192   0.01086378           10 
 4851000    0.4770279   -8.2886113    729.10897  0.012525063  0.010860285            6 
 4852000   0.47816957   -8.2877894    728.16881  0.012506334  0.010856792            8 
 4853000   0.47441826   -8.2990009    729.42356  0.012525303  0.010853299            6 
 4854000   0.47764998   -8.2938699     728.5036  0.012506929  0.010849808            7 
 4855000   0.46869707   -8.2925461    728.34918  0.012501702  0.010846317           11 
 4856000   0.47255779   -8.2853081    728.67244  0.012504675  0.010842828            8 
 4857000   0.47956811   -8.2963652    728.16919  0.012493466  0.010839341            5 
 4858000   0.46829898   -8.2999418    728.82763  0.012502189  0.010835853            6 
 4859000   0.47820842   -8.2904264    728.87259  0.012500387  0.010832367            7 
 4860000    0.4734588   -8.2939302    729.66537  0.012511409  0.010828881            5 
 4861000    0.4768782   -8.3096849    728.96509   0.01249683    0.0108254           11 
 4862000   0.47946192    -8.297735    728.80496  0.012491515  0.010821917            7 
 4863000   0.47499822   -8.2942075    728.54914  0.012484563  0.010818433            7 
 4864000   0.47047317   -8.2967204    728.89503  0.012487922  0.010814951            6 
 4865000   0.47035993   -8.2964066    729.76637   0.01250028  0.010811472            6 
 4866000   0.47495896   -8.2861214    728.72606  0.012479896  0.010807995            5 
 4867000   0.47550898   -8.2963322    728.22651  0.012468778  0.010804515           13 
 4868000   0.47871383   -8.3075755    729.77038  0.012492645  0.010801042           11 
 4869000   0.47643754   -8.2997083    727.67961  0.012454296  0.010797569            6 
 4870000    0.4664571   -8.2995021    729.28788  0.012479259  0.010794098            8 
 4871000   0.47531393    -8.292525    729.78188  0.012485148  0.010790626            9 
 4872000   0.46491239    -8.301599    728.74408  0.012464834  0.010787158            9 
 4873000   0.46864377   -8.2786452    728.99327  0.012466538  0.010783691            8 
 4874000   0.48184034   -8.3056578    728.88226  0.012462082  0.010780223            5 
 4875000   0.46739009   -8.2945764    728.91251  0.012460043  0.010776757            7 
 4876000   0.47541059   -8.3058571    728.61007  0.012452319  0.010773291            9 
 4877000   0.46136213   -8.3257184    728.78528  0.012452759  0.010769826           12 
 4878000   0.47120595   -8.3016901     729.0492  0.012454715  0.010766363            6 
 4879000   0.46887972   -8.2980327    729.02067  0.012451675  0.010762904            7 
 4880000   0.47134716    -8.292283    728.54507  0.012441002  0.010759446           11 
 4881000   0.46275502   -8.3008481    729.39918  0.012453035  0.010755989            8 
 4882000   0.46282054   -8.3142978    729.32662  0.012449246  0.010752533            9 
 4883000   0.46341443   -8.3000674    728.22689  0.012427928  0.010749079            7 
 4884000   0.47664427   -8.2980822    728.27462  0.012426198  0.010745626            9 
 4885000   0.47622512   -8.3027461        728.5  0.012427499  0.010742174            7 
 4886000   0.47089049   -8.3130977    728.64501  0.012427429  0.010738721            7 
 4887000   0.47655899   -8.2920897    727.84148  0.012411184  0.010735272            7 
 4888000   0.46799238   -8.3173906    729.07215  0.012429626  0.010731824            8 
 4889000   0.46829469   -8.3060398    728.84177  0.012423157  0.010728381            6 
 4890000   0.46072471   -8.3120188    728.41237  0.012413299  0.010724936            6 
 4891000   0.47481502   -8.3069149    729.02228  0.012421153  0.010721491            8 
 4892000   0.46955344   -8.3048059    727.14194  0.012386583  0.010718049            7 
 4893000   0.47317675   -8.2901782    729.14148  0.012418105  0.010714608            7 
 4894000   0.45865861   -8.2959705    728.99859  0.012413135  0.010711172            7 
 4895000   0.46407767   -8.2983837    728.63394  0.012404391  0.010707737            5 
 4896000   0.47919814   -8.2998276    727.90989  0.012389534  0.010704302            9 
 4897000   0.46991548   -8.3005951    728.62543   0.01239918  0.010700867            8 
 4898000   0.47324263   -8.3031163    729.18015  0.012406087  0.010697433            5 
 4899000    0.4719887   -8.2880457    728.21313  0.012387105  0.010694003            6 
 4900000   0.46581435   -8.3128684    728.01189  0.012381155  0.010690573            4 
 4901000   0.45868887   -8.3159049      727.799  0.012375009  0.010687142            6 
 4902000   0.46906832   -8.3163796     728.9408  0.012391894  0.010683715            8 
 4903000   0.47585203   -8.3011982    728.95276   0.01238957  0.010680289            6 
 4904000    0.4713919   -8.2975153    728.87689  0.012385755  0.010676865            7 
 4905000   0.46313378   -8.3126051    728.09783  0.012369994  0.010673441           13 
 4906000   0.47367615   -8.2870369    727.29602  0.012353853  0.010670016            6 
 4907000   0.46515263   -8.3128742    728.27858  0.012368022  0.010666596            9 
 4908000   0.45362686   -8.3120165    728.44231  0.012368281  0.010663176            4 
 4909000   0.46391358   -8.3188907    727.48068  0.012349438  0.010659757            7 
 4910000    0.4705669    -8.308415    729.13267   0.01237496  0.010656339            7 
 4911000   0.46129243   -8.3040551    729.49578  0.012378602  0.010652924           13 
 4912000   0.46566735   -8.2900122    728.61001  0.012361055  0.010649511            6 
 4913000   0.46765885   -8.2990944    728.21474  0.012351834    0.0106461            5 
 4914000   0.44748381   -8.2998082    727.95333  0.012344888   0.01064269           10 
 4915000   0.46132507    -8.308055    729.46045  0.012367929  0.010639282            4 
 4916000   0.46089672    -8.299106    727.67576   0.01233516  0.010635874            7 
 4917000   0.46966243   -8.3148135    728.58756  0.012348105   0.01063247            6 
 4918000    0.4551155   -8.3150062    728.90673  0.012351002  0.010629063            8 
 4919000   0.45796474   -8.3092892    728.35811  0.012339197   0.01062566            4 
 4920000   0.47661267   -8.3146944    727.96615   0.01233005  0.010622256            6 
 4921000   0.46741236   -8.3188832    727.52113  0.012320008  0.010618853            3 
 4922000   0.46535786     -8.31223    727.35618  0.012314713  0.010615453            5 
 4923000   0.45451402   -8.2846441    727.69825  0.012318001  0.010612055            8 
 4924000     0.474288   -8.3100017    728.41737   0.01232767  0.010608656            5 
 4925000   0.46221368   -8.3193247    728.14714  0.012320595  0.010605261            8 
 4926000   0.46603071   -8.3182645    728.38675  0.012322147  0.010601865           10 
 4927000   0.45834813   -8.2910056    727.91065  0.012311593   0.01059847            5 
 4928000    0.4658989   -8.3014355    728.41032  0.012317545  0.010595078            3 
 4929000   0.46628926   -8.3096523     729.3222  0.012330462   0.01059169            5 
 4930000   0.47266376   -8.3045056    728.47994  0.012313724    0.0105883            9 
 4931000   0.46747806   -8.2999873    728.39118  0.012309727  0.010584916            7 
 4932000   0.46267141   -8.3021848    727.70893  0.012295704  0.010581527            4 
 4933000   0.45986692   -8.2860843    728.57039  0.012307764  0.010578141            5 
 4934000    0.4564455   -8.3195625    728.28991  0.012300532  0.010574758            5 
 4935000   0.46984356   -8.3097049    728.29889  0.012298191  0.010571374            5 
 4936000   0.45929081   -8.2993786     728.3809  0.012297084  0.010567993            5 
 4937000   0.46126242   -8.3069693    728.96326  0.012304423  0.010564614            4 
 4938000   0.46786099   -8.3102098    727.99217  0.012285544  0.010561237           12 
 4939000   0.45931246   -8.3036694    728.50785  0.012291757  0.010557859            6 
 4940000    0.4702618   -8.3135897    727.78334  0.012277047  0.010554482            8 
 4941000   0.45863808   -8.3334119    728.00698  0.012278334  0.010551107            8 
 4942000   0.46231489   -8.3185353    727.18524  0.012261993  0.010547734            7 
 4943000   0.46857616   -8.3229127     728.5523   0.01228256  0.010544359            5 
 4944000   0.46333355   -8.3138362    728.09187  0.012272314  0.010540988            5 
 4945000   0.46755376   -8.3114569      728.209  0.012271807  0.010537619            4 
 4946000   0.45706538   -8.3220794    727.51452  0.012257624  0.010534249            5 
 4947000   0.46636336   -8.3109373    726.97418  0.012246044   0.01053088            4 
 4948000   0.45720995   -8.3230488    728.55431  0.012270182  0.010527513            7 
 4949000    0.4630175     -8.31116    727.70363  0.012253378  0.010524151            9 
 4950000   0.46032348   -8.3146123    728.16253  0.012258629   0.01052079            6 
 4951000   0.45387781   -8.3209079    728.19199  0.012256648  0.010517427            7 
 4952000   0.46829383   -8.3076646    728.88484  0.012265833  0.010514068           14 
 4953000   0.45981391   -8.3126453    727.82101  0.012245458  0.010510708            7 
 4954000   0.46926091   -8.3153808    727.68611  0.012240716  0.010507353           10 
 4955000   0.45128803   -8.3072682    728.15619  0.012246152  0.010503996            8 
 4956000   0.45896316   -8.3273387    728.01967  0.012241385  0.010500641           12 
 4957000    0.4501064   -8.3243812    728.46535  0.012246408  0.010497289           10 
 4958000   0.45475064   -8.3077682    728.13609  0.012238404  0.010493939            5 
 4959000   0.45861389   -8.3129677    727.49986  0.012225245  0.010490587            7 
 4960000   0.44589102   -8.3181759    728.13023  0.012233371  0.010487237            8 
 4961000   0.45188782    -8.313186    727.75356  0.012224578  0.010483889            3 
 4962000   0.45983511   -8.3116461    727.39892  0.012216158  0.010480542            5 
 4963000   0.46115731   -8.3075671    729.18675  0.012243716  0.010477195            9 
 4964000   0.45490735   -8.3197431     727.9013   0.01221967  0.010473855            7 
 4965000   0.45642452   -8.3099422    728.39253  0.012225454  0.010470511           15 
 4966000   0.44891854    -8.333621    727.71901   0.01221169  0.010467167           11 
 4967000   0.45614536   -8.3239789    727.44228  0.012204588  0.010463825            7 
 4968000   0.45050737    -8.324278    727.90521  0.012209897  0.010460487            6 
 4969000   0.44851344   -8.3148208    727.64179  0.012203022  0.010457147            9 
 4970000   0.46522132   -8.3126035    728.17526  0.012209511  0.010453811            8 
 4971000    0.4632548   -8.3316801    728.39511  0.012210741  0.010450477            9 
 4972000   0.46127003    -8.318581    726.42938  0.012175338  0.010447142           12 
 4973000    0.4546908   -8.3195523    727.08641    0.0121839   0.01044381            7 
 4974000    0.4651131   -8.3180842    727.03735  0.012180628  0.010440481            4 
 4975000   0.45289628   -8.3032727    726.88331    0.0121756  0.010437152            6 
 4976000   0.46378212   -8.3188837    727.28128  0.012179818  0.010433827           12 
 4977000   0.44621214   -8.3250039    727.11474  0.012174582  0.010430498            4 
 4978000   0.44641413   -8.3164972    728.73223  0.012199214  0.010427172           10 
 4979000   0.46651178   -8.3189076    728.01943  0.012184834  0.010423847            5 
 4980000   0.45311556    -8.316942    726.92644  0.012164097  0.010420524            9 
 4981000   0.44771472   -8.3183917    727.55444  0.012172162  0.010417204            9 
 4982000   0.46226809   -8.3230644    729.35323  0.012199807  0.010413882           11 
 4983000   0.45062689   -8.3168021    728.33676  0.012180359  0.010410563            8 
 4984000   0.46343778   -8.3221418    727.81822  0.012169245  0.010407247            7 
 4985000   0.46125106   -8.3263085    727.65976  0.012164155   0.01040393            6 
 4986000   0.45140719   -8.3105156    728.38205  0.012173787  0.010400613            8 
 4987000   0.45065574   -8.3126774    728.06353  0.012166024    0.0103973           11 
 4988000   0.44686537   -8.3069242    728.12416  0.012164598  0.010393987           10 
 4989000   0.45091311   -8.3144174    729.10968  0.012178621  0.010390676            7 
 4990000   0.45314738   -8.3323909    728.22818  0.012161459  0.010387367           11 
 4991000   0.46052133   -8.3173519    728.00453  0.012155288  0.010384057            5 
 4992000   0.45712067    -8.324674    727.09873  0.012137733   0.01038075           11 
 4993000   0.45310063   -8.3084085    727.13722  0.012135944  0.010377446            8 
 4994000   0.45115604   -8.3241499     728.1397  0.012150242   0.01037414            9 
 4995000   0.44334979   -8.3265042    726.94232  0.012127833  0.010370837            6 
 4996000   0.45366224   -8.3218733    728.42161   0.01215008  0.010367533            5 
 4997000   0.45635676   -8.3245912    727.82965  0.012137777  0.010364233            6 
 4998000   0.44670284   -8.3170119     727.0306  0.012122025  0.010360933            6 
 4999000   0.44459898   -8.3309597     727.2921   0.01212396  0.010357636            9 
 5000000   0.44597317   -8.3236618    728.39408  0.012139901  0.010354337            7 
 5001000    0.4500218   -8.3173426    728.29619  0.012135843   0.01035104            8 
 5002000   0.44836213   -8.3322172    728.33631  0.012134085  0.010347745            5 
 5003000   0.44363451   -8.3229712    727.93022  0.012124895  0.010344449            7 
 5004000   0.44071613   -8.3181687    727.43218  0.012114178  0.010341155            8 
 5005000   0.43830831   -8.3382737     728.3977  0.012127834  0.010337863           12 
 5006000   0.44972732    -8.316148    727.24104  0.012106157  0.010334574           10 
 5007000   0.44758487   -8.3332971    727.71025  0.012111548  0.010331287           10 
 5008000   0.44179073   -8.3336596    728.64374  0.012124663  0.010328001            6 
 5009000   0.44886436   -8.3226631    728.14717  0.012113981  0.010324717            4 
 5010000   0.45477233    -8.323596     728.1856  0.012112202  0.010321436            7 
 5011000    0.4542314   -8.3130416    727.01369  0.012090296  0.010318153            5 
 5012000   0.44836684   -8.3329398    727.36516  0.012093728  0.010314873            5 
Loop time of 11695.8 on 48 procs for 5000000 steps with 4000 atoms

Performance: 73872.419 tau/day, 427.502 timesteps/s
99.4% CPU use with 48 MPI tasks x no OpenMP threads

MPI task timing breakdown:
Section |  min time  |  avg time  |  max time  |%varavg| %total
---------------------------------------------------------------
Pair    | 739.62     | 783.59     | 834.17     |  84.0 |  6.70
Neigh   | 74.854     | 77.829     | 80.341     |  18.6 |  0.67
Comm    | 703.25     | 753.84     | 807.64     |  95.0 |  6.45
Output  | 13.813     | 13.817     | 13.892     |   0.3 |  0.12
Modify  | 9947.8     | 9962.6     | 9981.5     |   8.5 | 85.18
Other   |            | 104.2      |            |       |  0.89

Nlocal:        83.3333 ave          94 max          78 min
Histogram: 7 8 3 14 4 7 3 0 1 1
Nghost:        1958.40 ave        1980 max        1941 min
Histogram: 3 5 6 8 7 7 6 3 0 3
Neighs:        12428.1 ave       13863 max       10896 min
Histogram: 3 2 5 6 7 6 9 3 2 5
FullNghs:      24856.3 ave       28062 max       22929 min
Histogram: 6 2 10 9 10 5 2 2 0 2

Total # of neighbors = 1193104
Ave neighs/atom = 298.27600
Neighbor list builds = 268416
Dangerous builds = 0

#clear
#
#next RN
#
#jump SELF
Total wall time: 3:14:59
