
units lj                  # Use reduced LJ style units
atom_style atomic         # Uncharged point particles
atom_modify map hash      # Needed for indexing of clusters etc
                          # Used to be able to find where atoms are in relation to each other.

lattice fcc 1.0 spacing 1 1 1
Lattice spacing in x,y,z = 1.5874011 1.5874011 1.5874011
region box block 0 10 0 10 0 10 units lattice
create_box 2 box
Created orthogonal box = (0.0000000 0.0000000 0.0000000) to (15.874011 15.874011 15.874011)
  3 by 4 by 4 MPI processor grid
create_atoms 1 box
Created 4000 atoms
  using lattice units in orthogonal box = (0.0000000 0.0000000 0.0000000) to (15.874011 15.874011 15.874011)
  create_atoms CPU = 0.003 seconds
set type 1 type/fraction 2 0.86 78393
Setting atom values ...
  3427 settings made for type/fraction
mass 1 1.0
mass 2 1.0
pair_style lj/cut  3.5
pair_modify tail  yes
pair_coeff 1  1  1.0  1.0   # Intearaction between 1 and 1 set with epsilon = 1 and sigma = 1
pair_coeff 1  2  1.5  0.8
pair_coeff 2  2  0.5  0.88

write_data data.0
System init for write_data ...
Neighbor list info ...
  update every 1 steps, delay 10 steps, check yes
  max neighbors/atom: 2000, page size: 100000
  master list distance cutoff = 3.8
  ghost atom cutoff = 3.8
  binsize = 1.9, bins = 9 9 9
  1 neighbor lists, perpetual/occasional/extra = 1 0 0
  (1) pair lj/cut, perpetual
      attributes: half, newton on
      pair build: half/bin/atomonly/newton
      stencil: half/bin/3d
      bin: standard
WARNING: Not all mixed pair coeffs generated from mixing. Use write_data with 'pair ij' option to store all pair coeffs. (../write_data.cpp:312)


#############################
#   M E L T   S Y S T E M   #
#############################

velocity all create 2.4 9622624 mom yes dist gaussian # Assign velocities
                                                    # Temperature 2.4, random number seed, zero linear momentum
                                                                                # Gaussian distribution

timestep 0.002   # simulation timestep
thermo 1000       # output thermodynamic data every 1000 steps bf 100

# Define a fix  in this case with index 1 applied to all
# particles in the simulation. This fix is for simulations
# in the anisotropic NPT ensemble. Note that we use the MTK
# correction.
fix 1 all npt temp 2.4 2.4 0.1 iso 5.68 5.68 0.5 mtk yes tchain 5 pchain 5 # Use NPT ensemble
                                                                         # Set temperature and pressure and damping
                                                                         # Numbers of thermostats in chain and in barostat
run 10000          # run for 10000 steps
Per MPI rank memory allocation (min/avg/max) = 3.642 | 3.644 | 3.648 Mbytes
Step Temp E_pair E_mol TotEng Press Volume 
       0          2.4   -3.3969599            0   0.20214005   -2.8933285         4000 
    1000    2.3844824   -2.5217773            0    1.0540521    5.5971889    3959.0252 
    2000    2.3868853    -2.596999            0   0.98243389    5.7204753    3879.5341 
    3000    2.4470621   -2.5661392            0    1.1035363    5.7942533    3919.2248 
    4000    2.4116353   -2.5820224            0    1.0345261     5.620643     3897.858 
    5000    2.4310188   -2.6231653            0    1.0224513     5.646529    3872.8638 
    6000    2.4449263   -2.5516291            0    1.1148434    5.8098858    3905.9228 
    7000    2.4055199     -2.53828            0    1.0690977    5.9205065    3903.3783 
    8000    2.4662668   -2.5398906            0    1.1585848    5.8133488    3929.9282 
    9000     2.401873   -2.5470587            0    1.0548501    5.6987748    3940.9018 
   10000    2.3941957   -2.5766617            0    1.0137341    5.2879536    3967.7694 
Loop time of 2.66735 on 48 procs for 10000 steps with 4000 atoms

Performance: 647834.252 tau/day, 3749.041 timesteps/s
99.5% CPU use with 48 MPI tasks x no OpenMP threads

MPI task timing breakdown:
Section |  min time  |  avg time  |  max time  |%varavg| %total
---------------------------------------------------------------
Pair    | 1.1144     | 1.1824     | 1.3353     |   3.4 | 44.33
Neigh   | 0.20913    | 0.21782    | 0.24472    |   1.3 |  8.17
Comm    | 0.78535    | 0.8963     | 0.98964    |   4.6 | 33.60
Output  | 0.00024714 | 0.00025324 | 0.00032397 |   0.0 |  0.01
Modify  | 0.28318    | 0.35503    | 0.4202     |   6.2 | 13.31
Other   |            | 0.01551    |            |       |  0.58

Nlocal:        83.3333 ave          93 max          75 min
Histogram: 4 5 7 3 4 11 4 3 5 2
Nghost:        1653.19 ave        1692 max        1628 min
Histogram: 7 4 8 10 5 4 1 5 2 2
Neighs:        9620.42 ave       11295 max        8573 min
Histogram: 8 7 3 9 2 11 3 2 1 2

Total # of neighbors = 461780
Ave neighs/atom = 115.44500
Neighbor list builds = 905
Dangerous builds = 206

# Equilibrate just above the melting temperature to avoid step fn in T

fix 1 all npt temp 1.25 1.25 0.1 iso 5.68 5.68 0.5 mtk yes tchain 5 pchain 5
run 2000
Per MPI rank memory allocation (min/avg/max) = 3.643 | 3.645 | 3.649 Mbytes
Step Temp E_pair E_mol TotEng Press Volume 
   10000    2.3941957   -2.5766617            0    1.0137341    5.2879536    3967.7694 
   11000    1.2797386    -3.833382            0   -1.9142539    5.5625813    3021.7247 
   12000    1.2297792   -3.7982899            0   -1.9540822    5.8133275    3019.6208 
Loop time of 0.632956 on 48 procs for 2000 steps with 4000 atoms

Performance: 546009.334 tau/day, 3159.776 timesteps/s
99.7% CPU use with 48 MPI tasks x no OpenMP threads

MPI task timing breakdown:
Section |  min time  |  avg time  |  max time  |%varavg| %total
---------------------------------------------------------------
Pair    | 0.26667    | 0.30209    | 0.33991    |   2.5 | 47.73
Neigh   | 0.039495   | 0.04223    | 0.047175   |   0.8 |  6.67
Comm    | 0.19146    | 0.2377     | 0.27696    |   3.4 | 37.55
Output  | 6.4007e-05 | 6.5637e-05 | 8.0694e-05 |   0.0 |  0.01
Modify  | 0.040563   | 0.045983   | 0.05177    |   1.7 |  7.26
Other   |            | 0.00489    |            |       |  0.77

Nlocal:        83.3333 ave          90 max          75 min
Histogram: 1 0 2 3 13 5 12 6 5 1
Nghost:        1980.08 ave        2006 max        1962 min
Histogram: 4 5 8 7 7 4 9 2 0 2
Neighs:        12646.1 ave       14098 max       11172 min
Histogram: 2 3 4 10 4 10 6 4 1 4

Total # of neighbors = 607012
Ave neighs/atom = 151.75300
Neighbor list builds = 143
Dangerous builds = 19

#############################
# L I N E A R  Q U E N C H  #
#############################

# Define solid atoms. This closely follows ten Wolde  Ruiz-Montero and Frenkel  Faraday Discuss  1996  104  93-110
# Compute components of the per-atom q6 vector
compute q6 all orientorder/atom degrees 1 6 components 6 nnn NULL cutoff 1.3 # compute the Q6 parameter.
                                                                             # Use all neighbours within 1.3 unit cell.

# get number of connections
compute coord_number all coord/atom orientorder q6 0.5

# An atom is solid if it has 8 or more connections (of a possible 14)
variable is_solid atom c_coord_number>=8
group solid dynamic all var is_solid    # Must be dynamic to update
dynamic group solid defined

# do clustering
compute cluster solid cluster/atom 1.3 # Create a cluster where all atoms within are solid and max 1.3 units from another member

# define chunks one chunk per cluster
compute clus_chunks solid chunk/atom c_cluster nchunk every compress yes  # Says which atoms are in which chunk

# count the size of each chunk
compute size_chunks solid property/chunk clus_chunks count


# Find the maximum entry in the vector of chunk sizes
variable max_n equal max(c_size_chunks)


# Thermo style which includes this variable
# thermo_style custom step temp pe vol v_max_n

thermo ${N}  # Print the thermo information every 100 steps
thermo 1000  

# Reset the npt fix at a lower temperature (below freezing)
fix 1  all npt temp  ${temp} ${temp}  0.1  iso  5.68  5.68  0.5  mtk yes tchain  5  pchain  5
fix 1  all npt temp  0.45 ${temp}  0.1  iso  5.68  5.68  0.5  mtk yes tchain  5  pchain  5
fix 1  all npt temp  0.45 0.45  0.1  iso  5.68  5.68  0.5  mtk yes tchain  5  pchain  5

dump dmp2 all dcd ${N} traj.dcd
dump dmp2 all dcd 1000 traj.dcd


compute msd all msd com yes
variable twopoint equal c_msd[4]/6/(step*dt+1.0e-6)
fix 9 all vector 10 c_msd[4]
variable fit equal slope(f_9)/6/(10*dt)
thermo_style custom step temp pe c_msd[4] v_twopoint v_fit v_max_n

fix 1 all npt temp 1.25 ${temp} 0.1 iso 5.68 5.68 0.5 mtk yes tchain 5 pchain 5
fix 1 all npt temp 1.25 0.45 0.1 iso 5.68 5.68 0.5 mtk yes tchain 5 pchain 5
run 5000000 # 5000000  # Run for this many steps
Neighbor list info ...
  update every 1 steps, delay 10 steps, check yes
  max neighbors/atom: 2000, page size: 100000
  master list distance cutoff = 3.8
  ghost atom cutoff = 3.8
  binsize = 1.9, bins = 8 8 8
  4 neighbor lists, perpetual/occasional/extra = 1 3 0
  (1) pair lj/cut, perpetual
      attributes: half, newton on
      pair build: half/bin/atomonly/newton
      stencil: half/bin/3d
      bin: standard
  (2) compute orientorder/atom, occasional
      attributes: full, newton on
      pair build: full/bin/atomonly
      stencil: full/bin/3d
      bin: standard
  (3) compute coord/atom, occasional
      attributes: full, newton on
      pair build: full/bin/atomonly
      stencil: full/bin/3d
      bin: standard
  (4) compute cluster/atom, occasional
      attributes: full, newton on
      pair build: full/bin/atomonly
      stencil: full/bin/3d
      bin: standard
Per MPI rank memory allocation (min/avg/max) = 9.828 | 9.834 | 9.838 Mbytes
Step Temp PotEng c_msd[4] v_twopoint v_fit v_max_n 
   12000    1.2297792   -3.7982899            0            0 8.3333333e+20            2 
   13000    1.2692492   -3.8378068   0.91758992 0.0058819864  0.078166081            2 
   14000     1.253818     -3.82953    1.8585249  0.011062648  0.078192753            1 
   15000    1.2462762   -3.7782592     2.957348  0.016429711  0.081462031            2 
   16000    1.2662959   -3.7965802    4.0033991  0.020851036  0.084144339            1 
   17000    1.2504419   -3.8578537    4.9047422  0.024042853  0.083860911            2 
   18000    1.2730877    -3.811079    5.8961997   0.02729722   0.08341771            1 
   19000    1.2345464   -3.7999971    7.0546095  0.030941269  0.083693799            4 
   20000    1.2600442   -3.8276563    7.9365561  0.033068983  0.084037869            2 
   21000     1.270748   -3.8265618    8.9905998  0.035676983  0.084040397            2 
   22000    1.2431255   -3.7955517    10.137529  0.038399731  0.084323516            1 
   23000     1.283053   -3.8204239    11.273777  0.040847016   0.08482617            1 
   24000    1.2307003   -3.8134808    12.177232  0.042282054  0.085380635            6 
   25000    1.2212949   -3.8561219    13.220655  0.044068851  0.085528108            1 
   26000    1.2103713   -3.8181905     14.23459  0.045623684  0.085700529            2 
   27000    1.2357732   -3.8175903    15.234953  0.047021459  0.085751141            1 
   28000    1.2474467   -3.8106733    16.321114  0.048574744  0.085776653            4 
   29000      1.22891   -3.8221616     17.10251  0.049145142  0.085608806            2 
   30000    1.2488948   -3.8301934    18.090408  0.050251134  0.085223751            1 
   31000    1.2359477   -3.8242763    18.977279  0.051014191  0.084865577            1 
   32000    1.2751253   -3.8126834    19.848089  0.051687732  0.084537374            2 
   33000    1.2616688    -3.835271    20.903614  0.052786903  0.084115029            2 
   34000      1.23382   -3.8302165    21.837675  0.053523712  0.083773015            1 
   35000    1.2317611   -3.8578109    22.738522  0.054139337  0.083558388            2 
   36000    1.2474342   -3.8250963    23.789119  0.055067405  0.083351195            1 
   37000    1.2285574   -3.8550222    24.846686  0.055961004  0.083180713            2 
   38000    1.2439825    -3.839977    25.979356   0.05697227  0.083123666            2 
   39000    1.2708244   -3.7908624    26.737678   0.05713179  0.083099412            1 
   40000    1.2742247   -3.8430305    27.550516  0.057396908  0.082986498            3 
   41000    1.2217194   -3.8296804    28.690376  0.058313772  0.082815716            1 
   42000    1.2385162   -3.7936325    29.605938   0.05874194  0.082685226            2 
   43000    1.2492713    -3.830923    30.746803  0.059586827  0.082611531            1 
   44000    1.2424827    -3.804453    31.923365  0.060460919  0.082589823            2 
   45000     1.232657   -3.8030063    32.896739  0.060919886  0.082590392            1 
   46000     1.227977   -3.8069771    33.714697  0.061077348  0.082549409            1 
   47000    1.2490444     -3.83093    34.436166  0.061057032  0.082490993            2 
   48000    1.2449198   -3.8526007    35.584714  0.061779016  0.082432044            3 
   49000    1.2807056   -3.8423398    36.385085  0.061879395  0.082344424            3 
   50000    1.2521919   -3.8092044    37.378375  0.062297292  0.082241005            2 
   51000    1.2629334   -3.8551424    38.241312  0.062485803  0.082101952            2 
   52000    1.2642016    -3.791821    39.134286  0.062715202  0.081949693            3 
   53000    1.2488054   -3.8033417     40.17772  0.063172515  0.081811663            2 
   54000    1.2334089   -3.8439511    40.854217  0.063046631   0.08166502            2 
   55000    1.2485513    -3.821858    42.293213  0.064080625  0.081587188            2 
   56000    1.2284371   -3.7915483    43.191535  0.064273118  0.081517784            2 
   57000    1.2550771   -3.8308267    44.019124  0.064355443  0.081444818            3 
   58000    1.2302211   -3.8350064    45.244508  0.065006476  0.081384259            2 
   59000    1.2424708   -3.8450241    46.220454  0.065283127  0.081376144            1 
   60000    1.2724726   -3.8057636    47.521826  0.066002536  0.081399445            5 
   61000    1.2420775   -3.8303277    48.227578  0.065884668  0.081454789            1 
   62000    1.2473477   -3.8301485    49.166013   0.06608335  0.081441584            1 
   63000     1.209975   -3.8377531    50.210602   0.06641614  0.081445322            2 
   64000    1.2417455   -3.8200769    51.467487  0.067014957  0.081452347            2 
   65000    1.2482404   -3.8546276    52.062278   0.06674651  0.081463539            1 
   66000    1.2112273   -3.7736716    53.413456  0.067441231  0.081494473            3 
   67000    1.2313096   -3.8396283    54.202116  0.067415566   0.08151858            2 
   68000    1.2152831   -3.8101726    55.513444  0.068031181  0.081549928            1 
   69000    1.2498483   -3.8432892    56.094358  0.067746809  0.081603905            4 
   70000    1.2412969   -3.8421222    57.244515  0.068148231  0.081634384            2 
   71000    1.2392405    -3.813119    58.122757  0.068219198  0.081636405            1 
   72000     1.246748   -3.8163924    59.151528  0.068462417  0.081642119            3 
   73000    1.2283167   -3.7928929    60.068917  0.068571823  0.081649706            2 
   74000    1.2279126   -3.8050366     60.97268  0.068662927  0.081668797            3 
   75000    1.2626895     -3.81497    62.026891  0.068918767   0.08165963            2 
   76000    1.2513585   -3.8005342    62.817766  0.068879129  0.081634538            1 
   77000    1.2412504    -3.831137    63.694843  0.068933812  0.081617015            2 
   78000    1.2524435   -3.8452272    64.324633  0.068722898  0.081568287            3 
   79000    1.2376988   -3.8193089    64.757706  0.068309816  0.081477904            1 
   80000    1.2332947   -3.8512407    65.962893  0.068711347  0.081390264            3 
   81000    1.2380923   -3.8413443     67.37562  0.069316482  0.081323148            1 
   82000    1.2408139   -3.8526115    68.475793   0.06958922  0.081305731            1 
   83000    1.2199399   -3.8009605    70.218415  0.070500416  0.081314697            3 
   84000    1.2393013     -3.82403    70.371907  0.069813399  0.081331632            1 
   85000    1.2276518   -3.8671694     70.96386  0.069572412    0.0813186            3 
   86000     1.187274   -3.8410148    72.198865   0.06996014  0.081283129            2 
   87000    1.2341439    -3.823992    73.177514  0.070093404  0.081248795            3 
   88000    1.2274514   -3.8083201    73.937979  0.070017025  0.081209147            2 
   89000    1.2367373   -3.8144664    74.915704   0.07014579  0.081172447            3 
   90000    1.2396658    -3.861375    75.795413  0.070180938  0.081129346            2 
   91000    1.2215902   -3.8319535    76.715894   0.07025265  0.081099609            1 
   92000    1.2257515   -3.8054969    77.476931  0.070178379  0.081059332            2 
   93000    1.2537142   -3.8489876    78.312453  0.070172448  0.081007727            1 
   94000    1.2492181   -3.7839214    79.328764  0.070326918  0.080952091            3 
   95000    1.2563439   -3.8449168    80.522365  0.070633653  0.080912573            1 
   96000    1.2388746   -3.8030812    81.583722  0.070819202   0.08086024            2 
   97000    1.2356041   -3.8400095    82.222478  0.070637867  0.080809219            2 
   98000    1.2507984   -3.8520966    82.955387  0.070540294  0.080759764            1 
   99000    1.2407204   -3.8535338    83.800938   0.07053951  0.080711506            1 
  100000    1.2637918   -3.8555387    84.855406  0.070712838   0.08066087            2 
  101000    1.2413259   -3.8433484    86.064453  0.071010274  0.080630749            2 
  102000    1.2203582   -3.8209374    87.292255  0.071317202  0.080590081            1 
  103000    1.2481042   -3.8632774    87.915358   0.07112893  0.080553088            1 
  104000    1.2184433    -3.815707    89.572864  0.071773128  0.080532777            1 
  105000    1.2510035   -3.8027152     90.68655  0.071973452  0.080527666            1 
  106000    1.2381204   -3.7937983    90.978773  0.071524192  0.080518975            2 
  107000    1.2235888   -3.8285955    91.772449  0.071473869  0.080489403            3 
  108000    1.2239063   -3.8397756      92.7046  0.071531327  0.080445284            2 
  109000    1.2304696   -3.8733745    93.150721  0.071216147  0.080400721            2 
  110000    1.2375742   -3.8526855    94.283788  0.071427111  0.080351601            4 
  111000    1.2455416   -3.8359601    95.620498   0.07178716  0.080304264            1 
  112000    1.2090363   -3.7988186    96.149946  0.071540138  0.080259287            1 
  113000    1.2253281   -3.8771841    96.700052  0.071312723   0.08021093            2 
  114000    1.2292322   -3.8538957    97.451235  0.071236282  0.080165501            1 
  115000    1.2230414    -3.837135    98.902067  0.071668164  0.080119111            1 
  116000    1.2429205    -3.814216    100.00068  0.071839566  0.080079646            3 
  117000    1.2381028    -3.837051    100.80143  0.071795891   0.08004618            3 
  118000    1.2252786   -3.8637155    101.39794  0.071608711  0.080007186            5 
  119000    1.2280282   -3.8493498    102.77185  0.071969083  0.079971081            1 
  120000    1.2101832   -3.8622482    103.73261  0.072036537  0.079933898            2 
  121000    1.2313388   -3.8688976    104.73471  0.072131346  0.079912292            1 
  122000    1.2141905   -3.8645308    105.98892  0.072396805  0.079884118            1 
  123000    1.2338599   -3.8258251    106.92679  0.072443623  0.079858261            2 
  124000    1.2552335   -3.8683592    107.70076   0.07237954  0.079833553            5 
  125000    1.2411007   -3.8410423    108.24841  0.072165603  0.079802803            1 
  126000     1.240308   -3.8394163     109.0332  0.072111901  0.079765291            1 
  127000    1.2074596   -3.8347614    109.82747  0.072065269  0.079719572            3 
  128000    1.2383889     -3.83949    111.18032  0.072383021  0.079684869            2 
  129000    1.2380569   -3.8299265    112.51938  0.072686935   0.07964895            1 
  130000    1.2463273   -3.8537677      112.882  0.072360259  0.079615956            2 
  131000    1.2384323   -3.8393982    113.67785  0.072314156    0.0795787            3 
  132000    1.2460021   -3.8832945    114.29718  0.072157309  0.079536192            1 
  133000    1.2048867   -3.8074367    115.37993  0.072293191  0.079501679            2 
  134000    1.2433577   -3.8462665     116.0446  0.072167042  0.079461115            3 
  135000    1.2296807   -3.8481231    116.79405  0.072095093  0.079416445            1 
  136000    1.2253343   -3.8473559    117.34606  0.071903221  0.079370537            1 
  137000    1.2356406   -3.8277497    118.27403  0.071942843  0.079318453            2 
  138000    1.2117115   -3.8878777    119.08506  0.071911267  0.079274248            4 
  139000    1.2552412   -3.8421569    120.84678  0.072450107  0.079226429            4 
  140000    1.2238811   -3.8528586    120.94624  0.071991811   0.07917534            2 
  141000    1.2337721   -3.8530846    121.92115  0.072057414  0.079119073            1 
  142000    1.2228525   -3.8131108    123.28199  0.072348587  0.079077716            1 
  143000    1.2182705   -3.8565204    123.64664   0.07205515  0.079032563            2 
  144000    1.2245579   -3.8416732    125.42023  0.072581151  0.078987133            1 
  145000    1.2399417   -3.8621599    125.41091  0.072075234  0.078950273            2 
  146000    1.2177787   -3.8238941    126.73817  0.072339139  0.078912131            1 
  147000    1.2308897   -3.8237299    127.93969  0.072528167    0.0788706            2 
  148000    1.2372456   -3.8268134    129.20068  0.072748128   0.07883415            2 
  149000    1.2386906   -3.8316882    129.70403  0.072541404  0.078790823            3 
  150000    1.2078347   -3.8269549    130.28664  0.072381468  0.078744225            3 
  151000    1.2334691   -3.8348152    131.36753  0.072498639  0.078706505            3 
  152000     1.199633   -3.8437208    132.20279    0.0724796  0.078668301            2 
  153000    1.2250911   -3.8573104    133.23981  0.072570701  0.078627372            7 
  154000    1.2291444    -3.835768    134.34981  0.072700114  0.078590439            3 
  155000     1.266959   -3.8588288    134.63609  0.072384992  0.078546569            4 
  156000     1.212127   -3.9017647    135.68661  0.072482163  0.078506685            4 
  157000    1.2088935   -3.8396485    136.91349  0.072671705  0.078467671            2 
  158000    1.2414788   -3.8587809    137.57843   0.07256246  0.078432828            1 
  159000    1.2406995   -3.8455981     138.1283  0.072394285  0.078397898            2 
  160000    1.2139376   -3.8557057    139.48368  0.072647749  0.078367276            4 
  161000    1.2246591   -3.8228871    140.27082  0.072603946  0.078336952            2 
  162000    1.2308497   -3.8027832    141.54038  0.072808839  0.078313116            2 
  163000    1.2028425   -3.8336873    142.47512  0.072840043   0.07829775            4 
  164000    1.2418703   -3.8677934    143.24541    0.0727873  0.078278693            2 
  165000    1.1908855   -3.8599363     144.7852  0.073123839   0.07826334            4 
  166000    1.2148142   -3.8133044    146.00961  0.073297997  0.078251151            2 
  167000    1.2359942   -3.8640511    147.18229  0.073444256  0.078248323            2 
  168000    1.2127375    -3.829957    147.08505  0.072958854  0.078234804            2 
  169000    1.2269941   -3.8669775    147.80524  0.072882267  0.078220061            2 
  170000    1.2249075   -3.8413384     150.2131  0.073633872  0.078210921            2 
  171000    1.2184036    -3.868509    149.53641  0.072873492  0.078197983            3 
  172000    1.2403524   -3.8227904    151.02655   0.07317178   0.07818395            1 
  173000    1.2179191   -3.8832671    151.93053  0.073184265  0.078167596            1 
  174000    1.2396693   -3.8183911    153.54088  0.073534903  0.078148605            4 
  175000    1.2184824   -3.8310775     153.0968  0.072903236  0.078127851            2 
  176000    1.2160404   -3.8469994    154.50548  0.073156003  0.078108052            1 
  177000    1.2397409   -3.8233969    156.18299  0.073532482  0.078099469            2 
  178000    1.2425889   -3.8989078    156.05659  0.073060203  0.078085258            1 
  179000    1.2242066    -3.860217    157.23405   0.07320021  0.078070903            3 
  180000    1.2195739   -3.8577858    158.13811  0.073212086  0.078059962            1 
  181000    1.1996997   -3.8911408     158.6924  0.073062799   0.07804341            2 
  182000    1.2280413   -3.8575925    160.27121  0.073384253   0.07802546            3 
  183000    1.2353592   -3.8718963    160.24902  0.072973143   0.07801583            2 
  184000    1.1933223   -3.8803939    162.37387  0.073538892  0.078004147            2 
  185000    1.2604756   -3.8624538     163.0629  0.073451756  0.078002797            2 
  186000    1.2036953   -3.8825662    164.98004  0.073915788  0.077999399            4 
  187000    1.2337309   -3.8686052    165.64172  0.073815385  0.077992196            1 
  188000    1.2242169   -3.8895623    165.85544  0.073517481  0.077989016            3 
  189000    1.2196227    -3.859078    166.94377  0.073608363  0.077985943            1 
  190000    1.2029291   -3.8610744    168.31609  0.073822846  0.077977804            3 
  191000    1.2479732   -3.8729502    169.57088  0.073983802  0.077973509            2 
  192000    1.2208693   -3.8607176    169.15915   0.07341977  0.077968143            2 
  193000    1.2290928   -3.8483926    171.32029  0.073972492  0.077966006            2 
  194000    1.2334343   -3.8591825    171.01924  0.073461874  0.077963239            1 
  195000    1.2409891   -3.8705353      172.515   0.07372436  0.077957327            2 
  196000    1.2280425   -3.8632669    173.71463   0.07385826  0.077955657            1 
  197000    1.2054995   -3.8656304     175.1191  0.074077454  0.077957523            3 
  198000    1.2249866   -3.8721588    176.61623   0.07433343  0.077961083            2 
  199000    1.2109378    -3.833566    178.51131  0.074753481  0.077976143            2 
  200000    1.2379323   -3.8563895    178.43757  0.074348986  0.077990964            3 
  201000    1.2050028   -3.8786012    179.19784  0.074294296   0.07800133            3 
  202000    1.2240562   -3.8665966    180.87764  0.074619486  0.078011338            3 
  203000    1.2416846   -3.8296404    181.43294  0.074479861  0.078020821            3 
  204000    1.2264765   -3.8436481    182.32291  0.074478313  0.078030806            2 
  205000    1.2087647   -3.9237237    182.28932  0.074101347  0.078039865            3 
  206000    1.2102963   -3.8402033    184.36107  0.074579719  0.078052138            1 
  207000    1.2222992   -3.8417303    185.66574   0.07474466  0.078063542            3 
  208000    1.2192882   -3.8643357    186.45875  0.074703024  0.078075625            2 
  209000    1.2131849   -3.8320524    187.88475  0.074914175   0.07809254            2 
  210000      1.23821   -3.8343309    189.14712   0.07505838  0.078107447            1 
  211000    1.2269824    -3.879913    189.38407  0.074796238  0.078126004            1 
  212000    1.2293767   -3.8650651    190.82821  0.075011087  0.078140237            2 
  213000    1.2184139    -3.878117     191.4737  0.074911463  0.078158568            2 
  214000    1.2251017    -3.879369    192.11308  0.074810391  0.078174052            1 
  215000      1.18437   -3.8281272     194.0345  0.075207171  0.078188674            1 
  216000     1.258016   -3.8544529    194.39086  0.074996472  0.078206339            2 
  217000    1.2160417   -3.8935537    195.22276  0.074970338  0.078226238            2 
  218000    1.2568597   -3.8893621    196.65235  0.075172915  0.078243866            1 
  219000    1.2015062   -3.8909313    197.69043  0.075224669  0.078257119            1 
  220000     1.202855   -3.8665934    198.48768  0.075184729  0.078272348            2 
  221000    1.2073693   -3.9206937    198.47894  0.074841229  0.078280717            2 
  222000    1.2276781    -3.886718    198.18405  0.074393412  0.078287101            4 
  223000    1.2286997   -3.8368442    199.65622  0.074609949  0.078288525            2 
  224000    1.2271368   -3.8823138    200.39155  0.074550427  0.078289165            2 
  225000    1.2263905   -3.8560765    201.79708  0.074739658  0.078295362            3 
  226000    1.2213848   -3.8913659    202.28788  0.074589927  0.078299177            2 
  227000    1.2353888   -3.8800707    204.34278  0.075015704  0.078301907            3 
  228000     1.191183   -3.8530083    204.52761  0.074754242  0.078306644            3 
  229000     1.230683   -3.8701953    205.06777   0.07462437  0.078309106            2 
  230000    1.2231541   -3.8824249    205.71361  0.074533918  0.078305035            2 
  231000    1.2048202   -3.8801615    207.40686  0.074822099  0.078300977            2 
  232000    1.2047149    -3.876931    208.92994  0.075046673   0.07830546            1 
  233000    1.2185696    -3.858844    210.00891  0.075110484   0.07830894            1 
  234000    1.2132348   -3.8523481    209.66364  0.074666539  0.078308982            2 
  235000     1.239281   -3.8847608     209.9321  0.074444008  0.078303804            2 
  236000    1.2328538   -3.8495639    212.03234  0.074870177  0.078298085            2 
  237000    1.2053887   -3.8650934    212.93375  0.074871222  0.078292171            4 
  238000    1.2391336   -3.8446933    213.74746  0.074841546  0.078285411            2 
  239000    1.2151401   -3.8837509    214.82257  0.074903268  0.078282944            1 
  240000    1.2293835   -3.8244504    215.32171  0.074764482   0.07827915            4 
  241000    1.2206787   -3.8730315     216.9213  0.075007364  0.078276078            1 
  242000    1.2074531   -3.8322447    218.46317  0.075228364  0.078270661            1 
  243000    1.2133259   -3.8858682    217.65002  0.074639924   0.07826741            1 
  244000    1.1785391    -3.851188    219.23058  0.074873832  0.078265555            3 
  245000    1.2218971   -3.8851946    219.33802  0.074604767  0.078262076            1 
  246000    1.2138564   -3.8719769    222.53076  0.075383047  0.078262749            4 
  247000    1.2230949   -3.8775956     222.9882  0.075232187  0.078267633            2 
  248000    1.2153119   -3.8958468    222.67965  0.074825151  0.078271477            2 
  249000    1.1673197   -3.8489523    223.53604  0.074811258  0.078270834            1 
  250000    1.2413472   -3.9287355    223.79534  0.074598448  0.078262337            3 
  251000    1.2033848   -3.8696635    225.97588  0.075025194  0.078258217            1 
  252000    1.2235586   -3.8915626    225.42749  0.074546126  0.078250156            4 
  253000     1.217798   -3.9028183    226.49527  0.074603184  0.078243862            1 
  254000    1.1886989   -3.8822966    228.26532  0.074890198  0.078238748            2 
  255000    1.2008431   -3.8851182     230.1943  0.075226894   0.07823763            1 
  256000    1.2085285    -3.887144    230.42283  0.075007432  0.078236253            2 
  257000    1.1866754   -3.8884324    231.34603  0.075014926  0.078233701            1 
  258000     1.234544   -3.8699316    233.27335  0.075346689   0.07823183            1 
  259000    1.2267035   -3.8772511    233.03085  0.074977752  0.078233521            3 
  260000    1.2127562   -3.8573766    234.90887  0.075291304  0.078231976            1 
  261000    1.2154546    -3.849085    236.42652  0.075487395  0.078232445            1 
  262000     1.185658    -3.908798    236.42787  0.075199704   0.07823053            1 
  263000     1.204174   -3.8292413    237.77307  0.075340009  0.078229181            3 
  264000    1.2009297   -3.8802752    238.57127  0.075306587  0.078229426            1 
  265000    1.1936719   -3.8717132     237.6739   0.07474022  0.078225039            1 
  266000    1.2221855   -3.8591775    239.57852  0.075055928  0.078214155            2 
  267000     1.210977   -3.8878565    241.46021  0.075362112  0.078208848            2 
  268000     1.224931    -3.899416    241.91596  0.075222625   0.07820392            2 
  269000    1.2234873   -3.8815256    242.31242  0.075065806  0.078199465            2 
  270000    1.2033461   -3.8894371    242.80569  0.074940028  0.078194723            1 
  271000    1.2173791   -3.8779226    244.75812  0.075263875  0.078188967            2 
  272000    1.1900166   -3.8764445    244.30972   0.07484979  0.078180895            1 
  273000    1.1967283   -3.8683208    245.96433  0.075080686  0.078174067            1 
  274000    1.2230896   -3.8771692    247.09491  0.075150521  0.078166755            2 
  275000    1.2323835   -3.8815143    247.40405  0.074970923  0.078159377            2 
  276000    1.2016593   -3.8571572    248.85348  0.075136919  0.078153116            1 
  277000    1.2220065   -3.8801098    248.77851  0.074843114  0.078146603            2 
  278000    1.1870559   -3.8544502    250.41616  0.075064795  0.078140497            2 
  279000    1.2024457   -3.8910978     251.4164  0.075094504  0.078133662            3 
  280000    1.2203714   -3.9168224    251.50508  0.074852703  0.078127334            1 
  281000    1.1954812   -3.8921315     253.4813  0.075172391  0.078122555            2 
  282000    1.1790575   -3.8696902    254.80355  0.075296557  0.078115801            3 
  283000    1.2018041   -3.8606626    254.94795  0.075073012  0.078111348            2 
  284000    1.2369686   -3.9010037    255.77263  0.075050655  0.078106566            1 
  285000    1.1733213   -3.8891933    257.97416  0.075431039  0.078106515            4 
  286000    1.2076239   -3.8780379    257.95723  0.075162362  0.078105897            2 
  287000     1.201686    -3.885696    258.82309  0.075151886  0.078102847            3 
  288000    1.2059505   -3.8642985    261.13705   0.07556049  0.078103047            3 
  289000    1.1812276   -3.8577054    261.65847  0.075449385  0.078100333            9 
  290000    1.1943025    -3.876223    260.59696  0.074884183   0.07809825            3 
  291000    1.2129513    -3.904924    263.02546  0.075322297  0.078092209            3 
  292000    1.2319087   -3.8827782    264.04412  0.075355056  0.078086235            7 
  293000    1.2020427   -3.8664473    263.51185  0.074946488  0.078081044            4 
  294000    1.1832536   -3.8995103    264.29796  0.074914388  0.078069252            1 
  295000      1.20708   -3.8802919     266.1888  0.075194577   0.07806007            1 
  296000    1.2142462   -3.8529513    266.87795  0.075134558  0.078049324            1 
  297000    1.2050245   -3.8854663    266.84203  0.074871501  0.078040862            2 
  298000    1.2080574   -3.8809306    267.95123  0.074930433  0.078028518            1 
  299000    1.2036642   -3.8783235    269.49805  0.075110939  0.078015887            2 
  300000    1.2102901   -3.8947527    269.46241  0.074850669  0.078007915            2 
  301000    1.2211162   -3.8969011    270.40333  0.074862495  0.077998813            2 
  302000    1.2138458   -3.8948316    271.04598  0.074791937  0.077992357            3 
  303000    1.2170452    -3.842178    273.37612  0.075185952  0.077982709            1 
  304000     1.216209   -3.9042209     274.5205  0.075252331  0.077974527            4 
  305000    1.1914712   -3.8733892    273.89036  0.074833432   0.07796171            1 
  306000    1.2157664   -3.8710191    275.78768  0.075105576  0.077951531            1 
  307000    1.1823949   -3.8795573    275.52739  0.074790279  0.077942491            4 
  308000    1.2284979   -3.8883512    276.47447  0.074803697  0.077931247            2 
  309000    1.2094802    -3.904241    278.75315  0.075176145   0.07792332            2 
  310000    1.1832291   -3.8856281    279.54991  0.075147825  0.077914826            2 
  311000    1.2261236   -3.9333525    278.99411  0.074757265  0.077903597            1 
  312000     1.213046   -3.9115724    279.56421  0.074669929  0.077891035            1 
  313000    1.2287969   -3.8951852    281.93163  0.075061668  0.077880864            5 
  314000    1.2258348   -3.8962854    282.84813  0.075065851   0.07787292            2 
  315000    1.1856093   -3.8741021    284.35552  0.075226327  0.077863769            2 
  316000    1.1797082   -3.9139385    284.51179   0.07502948  0.077855586            4 
  317000    1.2037615   -3.8760699    286.60453  0.075342936  0.077847215            2 
  318000    1.2020721   -3.8556244    286.85032   0.07517042   0.07783987            2 
  319000    1.1921817   -3.8977108    286.97561  0.074967506  0.077829743            2 
  320000    1.2146952    -3.859519     289.0824  0.075281875  0.077820132            1 
  321000     1.210554   -3.8318546    290.26186  0.075353547  0.077812827            2 
  322000     1.205288   -3.8696559    289.04385  0.074804309  0.077807264            3 
  323000    1.1866279   -3.9001174    290.09142  0.074842988  0.077798221            3 
  324000    1.1938325   -3.8716591    291.19585  0.074896052  0.077789469            3 
  325000    1.2008288   -3.9111024    291.22302  0.074672568  0.077779374            2 
  326000    1.1825064    -3.888075    292.56637  0.074786905  0.077768698            3 
  327000     1.180854   -3.8922554    293.53696  0.074805546  0.077757813            1 
  328000    1.2297675   -3.9158916    294.19942  0.074745788   0.07774647            1 
  329000    1.1955339   -3.8780355    295.40137  0.074823041  0.077732869            4 
  330000    1.2060282    -3.897052     295.7878   0.07469389  0.077719749            2 
  331000     1.195727   -3.8776655    297.51438  0.074902915  0.077706428            2 
  332000    1.2148834   -3.9092979    297.53098   0.07468147  0.077693705            2 
  333000    1.2132822   -3.9061281      299.488  0.074946947  0.077684105            1 
  334000    1.2113574   -3.9237763     300.0705  0.074867889   0.07767207            4 
  335000     1.194359   -3.9123355    301.17886  0.074920115  0.077663807            1 
  336000    1.2307497   -3.9111384    302.15507  0.074939253  0.077656324            2 
  337000    1.2044892   -3.8926552     302.9559   0.07491491  0.077646281            3 
  338000    1.1822143   -3.9074661     304.3063  0.075026208  0.077634686            1 
  339000    1.2115928   -3.8937327    305.21991  0.075029476  0.077624258            2 
  340000    1.1685385   -3.8798386    305.78963  0.074948439  0.077614575            1 
  341000    1.1971872   -3.8791857    307.27084  0.075090625    0.0776074            3 
  342000       1.2002   -3.8921644    306.33868  0.074643928  0.077596277            4 
  343000    1.1931532   -3.8755468    307.90683  0.074807296  0.077581762            1 
  344000    1.1995255   -3.8877316    307.07672   0.07438874  0.077566621            1 
  345000    1.2302679   -3.8954964    307.97928   0.07439113  0.077546577            1 
  346000    1.1767472   -3.8798075    309.82852  0.074621512   0.07753015            2 
  347000     1.205305   -3.9227839    309.61953  0.074356276  0.077513281            1 
  348000    1.1900145    -3.895567     312.1337  0.074744661  0.077494622            3 
  349000    1.1858564    -3.897446    311.86058  0.074465276  0.077477446            2 
  350000     1.196793   -3.8878313    313.06052  0.074538218  0.077460062            3 
  351000    1.1885664    -3.901754    311.91262  0.074053329  0.077438798            1 
  352000    1.1696292   -3.8558254    314.54166  0.074465355   0.07742023            2 
  353000    1.1942635   -3.9150732    313.71936  0.074060283  0.077398416            2 
  354000    1.1846049   -3.8981535    315.21425  0.074202978  0.077379624            3 
  355000     1.220566   -3.8528617    316.54929  0.074307344  0.077359742            2 
  356000     1.207957   -3.8410191    319.08988  0.074693323  0.077342657            1 
  357000    1.2137718   -3.8980942    319.91603  0.074676944  0.077329495            1 
  358000    1.1606959   -3.9150325    320.58079  0.074623089   0.07731576            1 
  359000    1.1697519   -3.8577963    322.57746  0.074878705  0.077302393            2 
  360000    1.2114615   -3.8953877    321.49591  0.074420349  0.077290235            1 
  361000    1.2114945   -3.9086497    323.84267  0.074755925    0.0772779            3 
  362000     1.185177   -3.8736183     325.1243  0.074844453  0.077265755            4 
  363000    1.1750572   -3.9097124    324.25139  0.074437877  0.077252281            4 
  364000    1.1766667   -3.9329083    325.30372  0.074474295  0.077239139            1 
  365000    1.1836879   -3.8939184    327.08759  0.074677532  0.077227124            1 
  366000    1.2044076   -3.8803409    327.41352  0.074547705  0.077215438            3 
  367000    1.1923091   -3.9032527    328.88148  0.074677901  0.077206023            1 
  368000    1.1784463   -3.8996567    329.53808   0.07462366  0.077195947            3 
  369000    1.1871524   -3.9442472    330.01251   0.07452857  0.077184518            2 
  370000    1.2104269   -3.8880236    331.81427  0.074732945   0.07717087            1 
  371000    1.1757488   -3.8821581    332.84407  0.074762818   0.07715632            1 
  372000    1.2056176   -3.9169087    332.23535  0.074425482  0.077143164            2 
  373000    1.1915597   -3.8804934    334.85798  0.074811882  0.077131492            3 
  374000    1.1834898   -3.9060279    335.23256  0.074695312  0.077120382            1 
  375000    1.2036248   -3.8997816    335.78382  0.074618626  0.077110028            1 
  376000    1.2255596    -3.926839    335.83292  0.074431055   0.07709973            1 
  377000    1.1712727   -3.8910436    337.99226  0.074710934  0.077086441            1 
  378000    1.1799972   -3.9017603    337.40634  0.074384113  0.077072301            2 
  379000     1.216038    -3.888983    338.43047  0.074413032  0.077059199            1 
  380000    1.1944716   -3.9458964    339.00387  0.074342954   0.07704699            3 
  381000     1.183402   -3.9085861    341.00824  0.074586229  0.077034064            3 
  382000    1.1963137    -3.918253    341.60666  0.074521522  0.077019701            2 
  383000    1.1949298    -3.896212    342.32442   0.07448312  0.077006806            1 
  384000     1.198657   -3.9189788    342.99164   0.07443395  0.076993957            4 
  385000    1.2114856   -3.8981593    344.79442  0.074630826  0.076980573            1 
  386000    1.1602805   -3.8803193    345.77194  0.074648519  0.076967401            3 
  387000    1.2189636   -3.9254254    346.06636  0.074519026  0.076953893            2 
  388000    1.2051854   -3.9246903    346.67755  0.074458236  0.076942896            2 
  389000    1.2028937   -3.8917113    348.74277  0.074709249  0.076930899            1 
  390000    1.1741423   -3.9072948     348.1777  0.074396945   0.07692037            2 
  391000    1.1886258   -3.8665358    350.29442  0.074657805  0.076908691            5 
  392000    1.2163016     -3.89994    351.32465  0.074686363  0.076897241            1 
  393000    1.1805637   -3.9153363    352.96872  0.074844937   0.07688645            4 
  394000    1.1792341   -3.9121069     351.8539  0.074419183   0.07687451            4 
  395000    1.1922108   -3.9253264     354.7557  0.074842975  0.076861064            3 
  396000    1.1899613   -3.8997013    353.83975  0.074461227  0.076849084            3 
  397000    1.1893634   -3.9333444    355.16103  0.074551013  0.076839373            4 
  398000    1.1887933   -3.9041885     354.8959  0.074308187  0.076830878            1 
  399000    1.1830633   -3.8968168    358.36997  0.074847528  0.076824323            2 
  400000    1.1762829   -3.9141913    359.02216  0.074796282  0.076816148            2 
  401000    1.1900876   -3.9212404     358.9354  0.074591728  0.076805694            3 
  402000      1.18598   -3.9461172    359.13682  0.074447931  0.076795363            2 
  403000    1.1623562   -3.9253812    360.49012  0.074543036  0.076785287            1 
  404000    1.2132252    -3.909816    361.34279  0.074534404  0.076775255            3 
  405000    1.1598958   -3.8864677    362.72242  0.074634242  0.076764965            3 
  406000    1.1930927   -3.9313951    362.75601   0.07445731  0.076753681            1 
  407000    1.1987609   -3.9279214    363.05049  0.074334663  0.076741909            5 
  408000    1.1921771   -3.9266687     365.2541  0.074602553  0.076730888            2 
  409000    1.1925295     -3.93996    364.27812  0.074221297  0.076719367            1 
  410000    1.1986806   -3.8855919      367.383  0.074671341  0.076708873            2 
  411000    1.1855672    -3.925131    367.58592  0.074530803  0.076698411            3 
  412000    1.1910906    -3.900868    368.49757  0.074534298  0.076688816            2 
  413000    1.1797266   -3.9325611    370.19139  0.074695598  0.076677681            3 
  414000    1.2008737    -3.905064    369.24296  0.074324268  0.076667465            2 
  415000    1.1950745   -3.9155891    369.67911  0.074232752  0.076654517            2 
  416000    1.2211095   -3.8946031    371.25831  0.074370655  0.076641658            2 
  417000    1.1973082   -3.9128673    372.28424  0.074397331   0.07662834            1 
  418000    1.1958268   -3.9267599    372.74443  0.074311091  0.076617099            3 
  419000     1.197168   -3.9015464     373.8808  0.074359746  0.076605634            2 
  420000     1.185444   -3.9153515    374.23561  0.074253097  0.076594967            2 
  421000    1.1725174   -3.8756878    377.83374  0.074788944  0.076584272            2 
  422000    1.1918389    -3.959157    374.38852  0.073931383  0.076572884            2 
  423000    1.2100422   -3.9200002     376.6064  0.074193539  0.076559989            1 
  424000    1.1754853   -3.9197373    377.71497  0.074236432   0.07654722            4 
  425000    1.2039043   -3.9141177    379.18289  0.074349587  0.076535246            1 
  426000    1.1849045   -3.9427358    379.89873  0.074315088   0.07652399            2 
  427000    1.1540775   -3.9134161    382.04495  0.074559904  0.076513842            1 
  428000    1.1897171    -3.906037    381.07122  0.074196109  0.076504115            1 
  429000    1.1950987   -3.9211358    382.68583  0.074336797  0.076491645            2 
  430000     1.196706   -3.9015078    384.34504  0.074485472  0.076481292            2 
  431000    1.1857618   -3.9296991    384.86778  0.074413723  0.076471411            4 
  432000    1.1753192   -3.9349545     386.2971  0.074517188  0.076461878            2 
  433000    1.1845474   -3.8508151    388.89163  0.074844424  0.076450423            1 
  434000    1.1554904   -3.9041583    385.95816   0.07410871   0.07643777            2 
  435000     1.180549   -3.9384796    386.93331  0.074125154  0.076423624            2 
  436000    1.1944513   -3.8934502    388.39221  0.074233985  0.076408298            4 
  437000    1.1972443   -3.9359249    388.66886  0.074116869  0.076394687            3 
  438000    1.2053011    -3.905456     390.6627  0.074326997  0.076381448            2 
  439000    1.2076717   -3.9357158    392.76454  0.074556671  0.076368071            3 
  440000    1.1736402   -3.9176591    391.27227  0.074104597  0.076354085            3 
  441000    1.2256516    -3.929241    392.59842  0.074187154  0.076341516            3 
  442000    1.1753179   -3.9289231    394.48063  0.074374177  0.076329474            2 
  443000    1.1728163   -3.8904891     395.3115  0.074362584  0.076316015            5 
  444000    1.1541552   -3.9226491     393.9937  0.073947767  0.076302984            2 
  445000    1.1670179   -3.9079857    396.90963  0.074327646  0.076290313            1 
  446000    1.1783091   -3.9077195    400.24993  0.074785114  0.076279204            2 
  447000     1.213956   -3.9134639    398.28835  0.074252117  0.076268886            1 
  448000    1.1987164   -3.9360087     399.3024     0.074275  0.076258695            2 
  449000    1.1664458   -3.9242078     400.6876  0.074366666  0.076250005            3 
  450000    1.1579294   -3.9143843     402.9362  0.074617815  0.076241659            2 
  451000    1.1601925   -3.9527878    403.10075  0.074482769  0.076234995            1 
  452000    1.1832458   -3.9444103    403.35717   0.07436526  0.076227192            2 
  453000    1.1833424   -3.9514313    403.68964  0.074262259  0.076218052            4 
  454000    1.1704933   -3.9281778    404.57587  0.074261357  0.076208657            2 
  455000    1.1913354   -3.9373901    404.13053  0.074016581  0.076198694            2 
  456000    1.1670378   -3.9259634    406.96364   0.07437201  0.076188842            3 
  457000    1.1571763   -3.9026047    408.76313  0.074537405  0.076180373            3 
  458000     1.156265   -3.9139101    408.93373    0.0744057  0.076169677            1 
  459000    1.1936644   -3.9099568    408.96109  0.074248565  0.076159077            2 
  460000    1.1867256   -3.9078405    409.78445  0.074236313  0.076146684            2 
  461000     1.169063   -3.9154083    411.30456  0.074350064  0.076133772            3 
  462000    1.1851057   -3.9143798    411.18574  0.074167702  0.076121232            2 
  463000    1.1559677    -3.898957    411.09119  0.073990495  0.076109213            1 
  464000    1.1684364   -3.9050409    413.52607  0.074268331   0.07609823            1 
  465000    1.1605327   -3.9107369    413.61316  0.074124222  0.076085697            3 
  466000    1.1697196   -3.9334496    415.02579  0.074217774  0.076074195            2 
  467000    1.1968744   -3.9062898    417.02559  0.074415702  0.076062514            3 
  468000      1.22009   -3.9381256    415.91794  0.074059463  0.076050291            2 
  469000    1.1733022   -3.9118785    414.96896  0.073732936  0.076036842            3 
  470000    1.1688289   -3.9498163     416.7149   0.07388562  0.076021675            3 
  471000    1.1665132   -3.9433022    418.61168  0.074064345  0.076006693            2 
  472000    1.1643045   -3.9352312    418.22555  0.073839257  0.075993962            1 
  473000    1.1736896   -3.9113372    420.53915   0.07409076  0.075980224            3 
  474000    1.1657634   -3.9635655    418.26426  0.073534504  0.075968081            2 
  475000    1.2063677   -3.9188782    422.78758  0.074173259  0.075956303            2 
  476000     1.176767   -3.9419335    423.34698  0.074115368  0.075945324            2 
  477000    1.1632504   -3.9480959    423.66298  0.074015196  0.075933689            3 
  478000    1.1810554   -3.9052878    424.99239  0.074092119  0.075922749            2 
  479000     1.175164   -3.9409198     427.2864  0.074336534  0.075912067            1 
  480000    1.1694351   -3.9156562    427.95999  0.074298609  0.075902965            1 
  481000    1.1720808   -3.8999599    429.03849  0.074330992  0.075893085            3 
  482000    1.1808019   -3.9410799    427.75871  0.073955516  0.075884038            2 
  483000    1.1988977   -3.9224787    429.26418  0.074062143  0.075874288            3 
  484000    1.1792026   -3.8897037     432.9492  0.074543594  0.075865932            3 
  485000    1.1774184   -3.9270402    430.29119  0.073933194  0.075858285            1 
  486000    1.1746209   -3.9202324    430.72729  0.073855845  0.075848224            3 
  487000    1.1763813   -3.9037035    433.77663  0.074225981  0.075838286            5 
  488000    1.1703633   -3.9367914    435.57875  0.074381617  0.075827913            4 
  489000    1.1700522   -3.9247926    434.21694  0.073997433  0.075817915            2 
  490000    1.1869522   -3.9205544    435.41686  0.074050486  0.075806843            1 
  491000     1.140384   -3.9097567    435.76719   0.07395913  0.075795246            2 
  492000    1.1814042   -3.9452044    437.88443  0.074167418  0.075782951            3 
  493000    1.1833208   -3.9555039    437.73019  0.073990905  0.075771051            2 
  494000    1.1659776   -3.9167602    438.00041  0.073886709  0.075757762            2 
  495000    1.1801968   -3.9379851    437.98628  0.073735064  0.075744201            4 
  496000    1.1891343    -3.919102    439.26559  0.073801342   0.07572999            2 
  497000    1.1667113   -3.9422128    440.14337  0.073800028  0.075717844            3 
  498000    1.1828868     -3.93128    440.29554  0.073677299  0.075704438            3 
  499000    1.1930015   -3.9564739    441.78087    0.0737777   0.07569105            2 
  500000    1.1644676   -3.9330725    445.08919  0.074181531  0.075679236            2 
  501000    1.1595252   -3.9282822    442.79497  0.073651857  0.075666965            3 
  502000    1.1907949   -3.9302749    444.90967  0.073856188  0.075654475            1 
  503000    1.1857099   -3.9027881    446.43032  0.073961285  0.075643862            2 
  504000    1.1722411   -3.9378155    444.90695  0.073562658  0.075632291            3 
  505000    1.2010926   -3.9340228    447.66517   0.07387214  0.075621769            2 
  506000    1.1565678   -3.9277999    449.41535  0.074014386    0.0756094            2 
  507000    1.1726416   -3.9485783    449.58297  0.073895951  0.075597014            3 
  508000    1.1675454   -3.9257812    450.06685  0.073829864  0.075585348            2 
  509000    1.1579778   -3.9260191     450.5552  0.073764768   0.07557315            2 
  510000    1.1706503    -3.942111    451.48425  0.073771937  0.075561109            2 
  511000    1.1975616   -3.9432981     450.1318  0.073407012  0.075549694            2 
  512000    1.1953106   -3.9191041    452.44748   0.07364054   0.07553646            2 
  513000    1.1625294   -3.9171515    454.53991  0.073836893  0.075522771            1 
  514000    1.1729668   -3.9554215    455.28704  0.073814371  0.075509547            1 
  515000    1.1772077   -3.9301619    455.37576  0.073685398  0.075496437            3 
  516000     1.180535   -3.9572927    455.80299  0.073611593  0.075483478            2 
  517000    1.1753794   -3.9456733    455.09481  0.073355062  0.075468649            3 
  518000    1.1703126   -3.9509244    455.60655  0.073295776  0.075455035            5 
  519000    1.1790118   -3.9535715    457.42496  0.073446525  0.075440764            1 
  520000    1.1814355   -3.9603826    459.62191  0.073657357   0.07542679            2 
  521000    1.1913557   -3.9090186    461.09991  0.073752384  0.075413908            3 
  522000    1.1914108   -3.9561765    459.82196  0.073407081  0.075400111            1 
  523000    1.1682498   -3.9225396    459.72623   0.07325147  0.075385614            2 
  524000    1.1906403   -3.9329749    459.68941  0.073105822  0.075372056            1 
  525000    1.1652118   -3.9433696    462.19754  0.073364688  0.075359119            2 
  526000    1.1581666   -3.9896515    463.04531  0.073359523  0.075344737            2 
  527000    1.1742446   -3.9279903    464.43416  0.073439937  0.075331389            2 
  528000    1.1697927   -3.9483269    465.35301  0.073445866  0.075317107            3 
  529000    1.1737093   -3.9382506    465.06679  0.073261939  0.075302799            3 
  530000    1.1695093   -3.9320905    466.65217  0.073372983  0.075288044            1 
  531000    1.1535468   -3.9442661    467.70785  0.073400478  0.075271503            3 
  532000     1.160046   -3.9360107    466.01879   0.07299793  0.075256027            2 
  533000    1.1730815   -3.9479336    467.62707  0.073112424  0.075239848            2 
  534000    1.1807188   -3.9332098    469.86187  0.073324262  0.075224359            1 
  535000    1.1792686   -3.9427302    470.48298  0.073283953   0.07520999            3 
  536000    1.1377218   -3.9255039    472.32435  0.073433512  0.075194327            2 
  537000    1.1437881   -3.9424086    471.57211  0.073180029  0.075179208            6 
  538000    1.1581918   -3.9082047    472.26187  0.073150847   0.07516359            1 
  539000    1.1726856   -3.9325266    473.67353  0.073233384  0.075149103            3 
  540000    1.1715683   -3.9231771    476.07545  0.073468433   0.07513499            1 
  541000    1.1801806   -4.0007773    477.48678  0.073550028  0.075121293            2 
  542000     1.173214   -3.9529039    476.86181  0.073318236  0.075108298            1 
  543000    1.1613022   -3.9496218    476.80874  0.073175067  0.075094477            2 
  544000    1.1788988   -3.9202266    477.91698  0.073210321  0.075079185            2 
  545000    1.1849292   -3.9438972     478.5554  0.073173609  0.075063709            1 
  546000    1.1749389   -3.9873042    477.93231  0.072944492  0.075049302            1 
  547000    1.1645083   -3.9273979    479.10902  0.072990405  0.075036408            3 
  548000    1.1520561   -3.9507035     483.6064  0.073541119  0.075023498            2 
  549000    1.1467094   -3.9708486    482.20254  0.073194071  0.075010572            1 
  550000    1.1678046    -3.976517    482.11349  0.073047499    0.0749968            2 
  551000    1.1475455   -3.9539967    485.58076  0.073439317   0.07498337            1 
  552000    1.1696114   -3.9108982    486.20394  0.073400353  0.074969183            2 
  553000    1.1777735   -3.9338572    487.52212  0.073466263  0.074955526            2 
  554000    1.1732006   -3.9414651    487.90126  0.073390683  0.074942663            4 
  555000     1.148826   -3.9354552    489.12175  0.073441703  0.074929775            1 
  556000    1.1543762   -3.9467654    487.50448  0.073067218   0.07491631            4 
  557000    1.1162627   -3.9406025    488.79496  0.073129108  0.074903851            4 
  558000    1.1806674   -3.9734409    489.06533  0.073038431  0.074891232            3 
  559000     1.190474   -3.9458546    491.87642  0.073326836  0.074879294            4 
  560000    1.1427751   -3.8994385    493.33843  0.073413457   0.07486736            1 
  561000    1.1872595   -3.9432198    493.84889  0.073358421  0.074856356            2 
  562000    1.1573542   -3.9463315    493.68522  0.073203621  0.074845204            1 
  563000    1.1748199   -3.9698011    493.64833  0.073068136  0.074833876            1 
  564000    1.1575621   -3.9448502    496.66859  0.073384839  0.074822425            1 
  565000    1.1641592   -3.9638065    496.84395  0.073280818   0.07481086            1 
  566000    1.1659045   -3.9597101    495.12696  0.072898552  0.074797265            2 
  567000    1.1654578   -3.9241686    496.56043  0.072980662  0.074784532            1 
  568000    1.1473094   -3.9382715    496.23897  0.072805013  0.074772236            2 
  569000    1.1803794    -3.943309    498.87887   0.07306369  0.074759457            1 
  570000    1.1797672   -3.9827092    499.26296  0.072991661   0.07474545            2 
  571000    1.1563176   -3.9642747    500.77526  0.073084539  0.074733712            1 
  572000    1.1456111   -3.9191532    503.58559  0.073366199  0.074721078            2 
  573000    1.1557126   -3.9489686    503.32928  0.073200884  0.074708826            1 
  574000    1.1597814   -3.9184149    504.49332  0.073242353  0.074696404            1 
  575000    1.1908702    -3.942667    506.72142  0.073437887  0.074685601            3 
  576000    1.1792452    -3.945816    507.68531  0.073449842  0.074673677            2 
  577000    1.1634963   -3.9573693     505.7959  0.073049667  0.074661893            1 
  578000    1.1655391     -3.94603    508.32655  0.073288141  0.074650418            2 
  579000     1.166094   -3.9374525    508.96403  0.073253314  0.074639411            2 
  580000    1.1414341   -3.9334984    509.30842  0.073176497   0.07462853            2 
  581000    1.1574736   -3.9485825    510.42501  0.073210702  0.074617352            1 
  582000    1.1701918   -3.9689141    508.63628  0.072828791  0.074605354            2 
  583000    1.1850728   -3.9383088     509.1525  0.072777658  0.074593149            2 
  584000    1.1550434   -3.8983453    513.81429  0.073318249  0.074581488            1 
  585000    1.1227005   -3.9384205    512.05428  0.072942205  0.074569494            2 
  586000    1.1664293   -3.9287077    513.55028  0.073030472  0.074556263            2 
  587000    1.1739014   -3.9462961    513.29803  0.072870248  0.074544317            1 
  588000    1.1746414   -3.9402918    515.36403   0.07303912  0.074531048            2 
  589000    1.1595246    -3.940468    516.73561   0.07310917  0.074517936            2 
  590000    1.1874681   -3.9626075     514.0496  0.072605876  0.074504108            2 
  591000     1.176402   -3.9552662    514.89312  0.072601963  0.074489408            4 
  592000    1.1838555   -3.9337691    514.04203  0.072359519  0.074474083            4 
  593000    1.1597635   -3.9049779     518.9023  0.072920504  0.074458713            4 
  594000    1.1509395   -3.9245236    518.07294  0.072681389  0.074443285            2 
  595000    1.1393347   -3.9858837    517.88817  0.072533357  0.074427833            2 
  596000    1.1557439   -3.9867412    517.71811  0.072387878  0.074413306            2 
  597000    1.1523285   -3.9461021    518.93014  0.072435809  0.074397185            3 
  598000     1.139372   -3.9607903    520.13327  0.072482339  0.074382496            4 
  599000    1.1511266   -3.9634128    521.95782  0.072615167  0.074368425            4 
  600000     1.137258   -3.9318388    526.08286  0.073067064  0.074353311            3 
  601000    1.1374635   -3.9614842    521.15703  0.072262483  0.074338801            1 
  602000     1.175776   -3.9430292    523.83609  0.072513302  0.074323425            3 
  603000    1.1501894   -3.9772145    522.08551  0.072151121  0.074309288            2 
  604000    1.1697637   -3.9378395    526.61819  0.072657035  0.074293207            1 
  605000    1.1583156   -3.9694821      525.777  0.072421074  0.074277318            1 
  606000    1.1314728   -3.9800355    529.86815  0.072864157  0.074263189            2 
  607000    1.1754815   -3.9454984    529.03675  0.072629977  0.074248983            2 
  608000     1.172363   -3.9412238    529.77794  0.072612108  0.074234455            2 
  609000    1.1392472   -3.9832185    528.40669  0.072305239  0.074219657            4 
  610000      1.15536     -3.99011    529.33665  0.072313751  0.074203715            4 
  611000    1.1640414   -3.9728618    531.33368  0.072467769  0.074186677            1 
  612000    1.1291846   -3.9305385    533.41341  0.072632544  0.074171362            2 
  613000    1.1430906   -3.9740014     533.4806  0.072523191  0.074156264            2 
  614000    1.1360753   -3.9553141    535.79692  0.072719452  0.074141634            4 
  615000    1.1446923   -3.9667254    532.21407  0.072115728  0.074126422            2 
  616000    1.1469778   -3.9555681    532.18398  0.071994586  0.074111529            3 
  617000    1.1811327   -3.9755746    535.49572  0.072325192  0.074096032            2 
  618000    1.1562872   -3.9742646     537.9186   0.07253487  0.074080777            3 
  619000    1.1417642   -3.9713214    534.51037  0.071958854   0.07406557            2 
  620000    1.1739535   -3.9635057    538.75561  0.072413388  0.074050544            2 
  621000    1.1485365   -4.0213636    534.70454  0.071753159  0.074033777            2 
  622000    1.1680324   -3.9659789    538.72674   0.07217668  0.074016583            2 
  623000    1.1714108   -3.9700763    540.08282  0.072242217  0.073999635            1 
  624000    1.1628759   -3.9558304    540.31183  0.072157029  0.073983278            1 
  625000    1.1617744   -3.9703831    538.39534  0.071786045  0.073966755            2 
  626000    1.1661687    -3.922334    542.44792  0.072210852  0.073950669            1 
  627000     1.175438   -3.9818374    542.70823   0.07213028   0.07393426            2 
  628000    1.1440944   -3.9600102    544.37292  0.072236322  0.073916705            2 
  629000    1.1591827   -3.9570766     542.4303  0.071864109  0.073899423            1 
  630000    1.1512777   -3.9745849    543.57578  0.071901558  0.073882041            2 
  631000    1.1422903   -3.9790929    544.20938  0.071871287  0.073864138            2 
  632000    1.1629263   -3.9584428     547.2377   0.07215687  0.073846879            2 
  633000    1.1510552   -3.9433502    546.57287  0.071955353  0.073830169            3 
  634000    1.1237667   -3.9826753    549.09229  0.072173014  0.073814501            4 
  635000    1.1571821   -3.9508591    547.11376  0.071799705  0.073797458            2 
  636000    1.1340615   -3.9911068    547.63053  0.071754524  0.073779872            1 
  637000     1.146795   -3.9482592     552.9452  0.072337154  0.073764557            1 
  638000    1.1646861   -3.9826504     550.9329  0.071960933  0.073749379            3 
  639000     1.128142   -3.9524378    553.36259  0.072165178  0.073734256            2 
  640000    1.1372126    -3.970111    552.37706  0.071924096  0.073719652            2 
  641000     1.165167   -3.9689419    554.86648  0.072135528  0.073705889            1 
  642000    1.1517578   -3.9274021    557.62406  0.072381108  0.073691885            4 
  643000    1.1691706   -3.9495046    556.43878  0.072114927  0.073677636            1 
  644000    1.1250632   -3.9395808    555.86261  0.071928391   0.07366537            4 
  645000    1.1491198   -3.9651133    559.49584  0.072286285  0.073650939            1 
  646000    1.1428278    -3.965867    559.87593  0.072223418  0.073637202            2 
  647000     1.160697   -3.9798914    562.18376  0.072409036  0.073624169            1 
  648000    1.1389003   -3.9722134    561.92306  0.072263768  0.073611189            1 
  649000    1.1645875   -3.9648766    561.95915  0.072157056   0.07359884            2 
  650000    1.1522129   -3.9571034    563.63144  0.072260441  0.073586403            2 
  651000    1.1705894   -3.9495362    564.93366  0.072316137   0.07357499            1 
  652000    1.1530454   -3.9763254    563.73459  0.072051967  0.073563672            3 
  653000    1.1487461   -3.9908144    567.38088  0.072406952  0.073552458            2 
  654000    1.1226833   -3.9691733    567.49009  0.072310154  0.073540957            2 
  655000    1.1400702   -4.0208559    566.34063  0.072053515  0.073529676            1 
  656000    1.1528719   -3.9861774    568.18615  0.072178118  0.073518481            2 
  657000    1.1465197    -3.961646    572.31282  0.072591682  0.073506778            2 
  658000    1.1500752   -3.9669257    570.17579  0.072210713  0.073495635            3 
  659000    1.1560704   -3.9741378    571.34371  0.072248825  0.073485084            2 
  660000    1.1426382   -3.9958448    571.60625  0.072172507  0.073474439            3 
  661000    1.1480933    -3.951035    574.14701  0.072383637  0.073463324            2 
  662000     1.126702   -3.9767244    573.16036  0.072150095  0.073451826            1 
  663000    1.1373479   -4.0067849    576.36718  0.072444341  0.073439969            2 
  664000    1.1400861   -3.9492364    578.72445   0.07263108  0.073429621            1 
  665000    1.1683425   -3.9709504    576.60309  0.072256026  0.073419886            2 
  666000    1.1358299   -3.9802002    578.72084  0.072412518  0.073409443            1 
  667000    1.1374037   -3.9860075    580.09431  0.072475551  0.073400003            2 
  668000    1.1320198   -4.0162132    576.65666  0.071938206  0.073389066            3 
  669000    1.1535696   -3.9761304    579.71929  0.072212169  0.073379548            2 
  670000    1.1389155   -3.9931555    582.67642  0.072472192  0.073369813            3 
  671000    1.1629175    -3.989505    581.11729  0.072170553  0.073359991            3 
  672000    1.1290393   -3.9779914    584.16342    0.0724409  0.073350046            3 
  673000    1.1376899   -3.9831586    582.43393   0.07211911  0.073340007            2 
  674000    1.1558265   -3.9592804    585.25339  0.072360706  0.073330288            4 
  675000    1.1402218   -3.9651687     586.1019  0.072358259  0.073320212            2 
  676000    1.1458358   -3.9842145    586.34411  0.072281079  0.073309994            1 
  677000    1.1098004   -3.9858753    588.24577  0.072408392  0.073299605            1 
  678000    1.1357184   -3.9861927    586.84383   0.07212928  0.073289138            3 
  679000    1.1162332   -4.0003501    589.59294   0.07236045  0.073279555            3 
  680000    1.1586471    -3.989972    587.52709  0.072000869  0.073268168            1 
  681000    1.1358368   -3.9469492    590.60352    0.0722716  0.073256328            2 
  682000    1.1371779    -3.966006    588.51569  0.071910519  0.073245064            1 
  683000    1.1456066   -3.9922929    588.50635  0.071804093  0.073233517            1 
  684000    1.1180621   -3.9514963    593.68007  0.072329444  0.073222479            2 
  685000    1.1490435   -3.9800742    592.18764  0.072042292  0.073211068            1 
  686000    1.1495304   -3.9663331     591.8924  0.071901408  0.073199544            4 
  687000    1.1708528   -3.9572048    593.70931  0.072017141  0.073187524            2 
  688000    1.1487528   -3.9575112    592.90792  0.071815397  0.073174282            4 
  689000    1.1274373   -3.9691091    592.43339  0.071653772  0.073161642            1 
  690000    1.1373695   -4.0007604    591.69588  0.071460855  0.073147431            2 
  691000     1.145872   -3.9686972    593.55964  0.071582204  0.073132809            1 
  692000    1.1435507   -3.9594847    596.70538  0.071857585  0.073117623            2 
  693000    1.1508124   -3.9572584    596.51567  0.071731081  0.073103624            3 
  694000     1.140532   -4.0211832    594.02149  0.071328229  0.073088099            1 
  695000    1.1344923   -3.9809109    593.57589  0.071172169  0.073072721            3 
  696000    1.1317387   -3.9791938    595.75605  0.071330944  0.073056607            4 
  697000     1.149972   -3.9864889    596.99351  0.071376556  0.073041776            1 
  698000    1.1489109   -3.9533601    598.56235  0.071461599  0.073026883            3 
  699000      1.10254   -3.9953646    597.34459  0.071214186  0.073010906            2 
  700000    1.1230641   -4.0000093    599.53567  0.071373294  0.072994476            1 
  701000    1.1337051   -3.9828869    600.99645  0.071445131  0.072979128            2 
  702000     1.132214   -4.0038707    600.83152   0.07132378  0.072964353            2 
  703000    1.1290555   -3.9821849    602.93965  0.071472221  0.072949904            4 
  704000    1.1319738   -3.9493568    602.86509  0.071361872   0.07293458            1 
  705000    1.1487681   -4.0052778    601.65728  0.071117882  0.072919049            1 
  706000    1.1251456   -3.9955323    600.68141  0.070901961  0.072902052            2 
  707000    1.1324496   -4.0019669    603.08856  0.071085403  0.072884104            4 
  708000     1.145842   -4.0176079    601.74875  0.070827302  0.072866988            2 
  709000    1.1466875   -3.9800937    604.42932  0.071042468  0.072849938            1 
  710000    1.1337432   -4.0029439     601.4948  0.070597982  0.072833043            1 
  711000    1.1274839    -4.007992    603.75292  0.070763352   0.07281561            1 
  712000    1.1236017   -4.0021406    604.39506  0.070739122  0.072796934            2 
  713000    1.1504391   -3.9872363     607.1363  0.070960296  0.072779904            2 
  714000    1.1595457   -4.0038493    607.11309  0.070858203  0.072763594            2 
  715000    1.1220567   -3.9893481    611.90846  0.071318002  0.072746923            1 
  716000    1.1512861   -3.9916061    611.36346  0.071154965  0.072730417            3 
  717000    1.1262049   -4.0084325     613.5821  0.071313586  0.072714091            4 
  718000    1.1443294   -3.9947793    613.26674  0.071177663  0.072697751            2 
  719000    1.1363566   -3.9834943    613.31699  0.071084492  0.072682222            3 
  720000    1.1392937    -3.997352    612.68959  0.070913147  0.072665761            2 
  721000    1.1420854   -3.9877985    615.27021  0.071113061  0.072649315            3 
  722000    1.1201374   -3.9837141     613.8415  0.070849666  0.072632753            4 
  723000    1.1169471   -3.9704665    616.02971  0.071003886  0.072616391            3 
  724000    1.1162835   -4.0056428    618.01464  0.071134282  0.072599834            3 
  725000     1.132705   -3.9810166    616.45474  0.070856867  0.072583725            3 
  726000    1.1431376   -3.9957589     620.9237  0.071272234   0.07256763            1 
  727000    1.1317387   -3.9932037    620.95655  0.071177963  0.072551836            3 
  728000    1.1286104     -4.01733    619.34346  0.070895543  0.072535794            3 
  729000     1.157479   -3.9736575    622.00625  0.071102681  0.072519865            1 
  730000    1.1285874   -3.9889341    619.87406  0.070761879  0.072503372            7 
  731000    1.1568858   -3.9839215     623.7879  0.071111251  0.072487513            5 
  732000    1.1255596   -4.0240587    620.81839  0.070676046  0.072471806            2 
  733000    1.1201274   -4.0202682     621.5521   0.07066304  0.072455978            3 
  734000    1.1308551   -3.9740018    626.57893  0.071137481  0.072440236            3 
  735000    1.1517412   -3.9952316    625.14362  0.070877961  0.072425017            1 
  736000    1.1134965   -4.0003823    624.62622  0.070723077  0.072409304            3 
  737000    1.1344614    -3.976057    627.45246  0.070946682   0.07239381            1 
  738000    1.1391698   -3.9686111    630.35798  0.071178634  0.072377869            2 
  739000    1.1461668   -4.0045241    627.73939  0.070787031  0.072362463            2 
  740000    1.1516247    -3.984485    629.12398  0.070847295  0.072346456            2 
  741000     1.128559   -3.9623328    630.56794  0.070914074  0.072331325            2 
  742000    1.1411902   -4.0295413    629.68214  0.070719019  0.072315571            5 
  743000    1.1362463   -3.9740425    632.60909  0.070952118   0.07229941            1 
  744000     1.131434   -3.9948749    633.14528   0.07091681  0.072283386            2 
  745000    1.1365851   -3.9928541    634.08171  0.070926366  0.072268071            2 
  746000    1.1530629    -3.998136     634.1485  0.070838751  0.072252235            3 
  747000     1.136583   -3.9824953    633.82745  0.070708105  0.072236696            3 
  748000    1.1222245   -3.9615039    637.13791  0.070982388  0.072221219            3 
  749000     1.150377   -3.9931553    632.29735  0.070349059  0.072204651            1 
  750000    1.1458282    -4.007341    633.68453  0.070409392  0.072187082            2 
  751000    1.1173915   -3.9885631    634.42392  0.070397683  0.072170495            1 
  752000    1.1252691   -3.9807587    636.75436  0.070562318  0.072153716            2 
  753000    1.1370702   -4.0151475    638.17187  0.070625483  0.072137027            2 
  754000    1.1344401   -3.9753435     639.1919  0.070644551  0.072121647            2 
  755000    1.1304423   -4.0122658     639.6116  0.070597306  0.072105999            2 
  756000     1.142875   -4.0222559    636.23754  0.070132004  0.072090322            2 
  757000    1.1232609   -3.9770224    643.61743  0.070851764  0.072074424            2 
  758000    1.1277006   -4.0252812    642.41739  0.070626363  0.072059691            2 
  759000    1.1139021   -3.9691617    644.36292  0.070746917  0.072044099            3 
  760000    1.1475794   -4.0083419    643.15894  0.070521813  0.072028796            2 
  761000     1.126873   -3.9877647    646.01231  0.070741602  0.072014062            1 
  762000    1.1284419    -4.022851    644.87854  0.070524775  0.071999158            5 
  763000    1.1161077   -4.0080156    646.50975  0.070610501  0.071984175            2 
  764000    1.1080143   -4.0029614    646.67826  0.070536459  0.071969355            3 
  765000    1.1483862   -4.0441675    647.10596  0.070490846  0.071954988            2 
  766000    1.1617842   -3.9970004    651.38136  0.070863943  0.071941262            8 
  767000    1.1165116   -3.9951482     650.0736  0.070629465  0.071927392            2 
  768000    1.1080835   -3.9943517    651.93054  0.070738991  0.071913504            3 
  769000     1.125536   -3.9959427    653.49324  0.070816345  0.071899002            2 
  770000     1.119766   -4.0010425    653.24208  0.070697195  0.071884981            3 
  771000    1.1217268     -4.01848    652.12964  0.070485261  0.071869405            3 
  772000    1.1120931   -4.0349613    650.04551  0.070168989  0.071852537            3 
  773000    1.1136023   -3.9999384    650.32255   0.07010808  0.071836832            2 
  774000    1.1364621   -4.0047853    656.29478  0.070660506  0.071821426            2 
  775000    1.1279344    -4.007425     655.5724  0.070491656  0.071806246            2 
  776000    1.1166071   -4.0272087    657.23142  0.070578976  0.071791783            1 
  777000    1.1217886    -4.016685     657.4439  0.070510928  0.071776699            2 
  778000    1.1352038   -4.0241373    656.52932  0.070322335  0.071761472            4 
  779000    1.1219682   -3.9818776    655.86907  0.070161432  0.071745953            6 
  780000    1.1370128   -4.0167017    658.19571  0.070320055  0.071730365            1 
  781000    1.1214725   -3.9777164     659.5266  0.070372023  0.071715196            3 
  782000    1.1094382   -3.9635349    661.03959  0.070443264   0.07169893            1 
  783000    1.1326698   -4.0401443    656.81252  0.069903418  0.071683207            2 
  784000    1.1153812   -3.9926298    661.55782  0.070318646  0.071667794            2 
  785000    1.1306208   -4.0018429    662.48147   0.07032712  0.071651868            2 
  786000     1.107197   -3.9977321    663.71722  0.070368662  0.071636269            2 
  787000    1.1404637   -3.9693188    662.46947  0.070147127  0.071620025            4 
  788000    1.1395457   -3.9957066    665.26855  0.070354119  0.071603735            2 
  789000     1.133742   -4.0024585    664.77012  0.070212307  0.071588081            2 
  790000    1.1411397   -3.9966796     662.2993  0.069862795  0.071571791            4 
  791000    1.1343352   -3.9977455    668.73921   0.07045293  0.071555813            4 
  792000    1.1503187   -4.0219242    664.71388  0.069940434  0.071540359            1 
  793000    1.1434121   -4.0055859    669.23689  0.070327542  0.071524847            2 
  794000    1.1477564   -3.9752037    671.88035  0.070516409  0.071509325            1 
  795000     1.124514   -4.0099863    669.87125  0.070217112  0.071494546            2 
  796000    1.1162731   -3.9871889    666.74135   0.06980123  0.071478848            1 
  797000     1.112532   -4.0046108    671.06664  0.070165897  0.071462914            2 
  798000    1.1516754     -4.01329    669.97405  0.069963873  0.071446531            1 
  799000    1.1369359   -4.0088984    671.75402  0.070061954  0.071430439            2 
  800000    1.1448745   -3.9708111    673.11412  0.070116054  0.071415967            1 
  801000    1.1295697   -3.9700048    673.57068  0.070076018  0.071401553            2 
  802000    1.1288877   -4.0045404    672.74888  0.069903251  0.071386304            2 
  803000    1.1492138    -4.000169    674.50336  0.069998273  0.071370023            2 
  804000    1.1146591   -4.0079252    675.88831  0.070054758  0.071354295            1 
  805000    1.1214777   -3.9949153    678.95472  0.070285168  0.071339119            3 
  806000    1.1257157   -4.0073993    675.19831  0.069809585  0.071324125            3 
  807000    1.1185427   -3.9777082    679.64663  0.070182428  0.071308964            3 
  808000    1.1096618   -3.9990884     680.2583  0.070158653  0.071294305            5 
[...]
 4800000   0.49094082   -5.2211198     1789.331  0.031064775  0.029541374           31 
 4801000   0.48629439   -5.2202112    1784.2295  0.030969755  0.029533384           54 
 4802000   0.49051541   -5.2271841    1785.4153  0.030983884  0.029525382           53 
 4803000   0.47849172   -5.2288738    1786.6991  0.030999707  0.029517375           80 
 4804000   0.47840904   -5.2304469    1786.2177  0.030984904  0.029509365           27 
 4805000   0.48367351   -5.2337447    1785.5241  0.030966425  0.029501347           58 
 4806000   0.47603338   -5.2433611     1785.318  0.030956409  0.029493327           67 
 4807000   0.48980058   -5.2271409    1782.3347  0.030898251  0.029485292           61 
 4808000   0.48001636   -5.2324747    1780.6983  0.030863461  0.029477253           57 
 4809000   0.47650536   -5.2401977    1781.7641  0.030875513  0.029469224          113 
 4810000   0.48191821   -5.2389409    1781.9627  0.030872535   0.02946122           81 
 4811000   0.49228147   -5.2254647    1784.3156  0.030906873  0.029453219           53 
 4812000   0.48600579   -5.2228517    1782.6208  0.030871101  0.029445236           25 
 4813000   0.48478517   -5.2394303    1784.4552  0.030896447  0.029437218           30 
 4814000   0.48283284   -5.2258723    1783.3229  0.030870427  0.029429201           84 
 4815000   0.47575043   -5.2275818    1785.4312  0.030900506  0.029421207           53 
 4816000   0.48832314   -5.2173839    1783.3683  0.030858394  0.029413195           66 
 4817000   0.47152072   -5.2473612     1787.937  0.030931026  0.029405194           80 
 4818000   0.48992883   -5.2244247    1783.1127  0.030841163  0.029397198           35 
 4819000   0.48896933   -5.2230396    1787.0312  0.030902524  0.029389216           30 
 4820000    0.4748368   -5.2227939    1783.9369  0.030842616  0.029381241           98 
 4821000   0.47251911   -5.2471634    1786.6464  0.030883054  0.029373269           50 
 4822000   0.48858406   -5.2206803    1785.2344  0.030852246    0.0293653           49 
 4823000   0.48488586   -5.2136221    1786.4295  0.030866499  0.029357344           42 
 4824000   0.47401852   -5.2303283    1788.1715  0.030890194  0.029349407           73 
 4825000   0.48148254    -5.226386    1785.8748  0.030844124  0.029341454           42 
 4826000   0.48692127   -5.2121786    1789.0486  0.030892537  0.029333504          127 
 4827000   0.48188926   -5.2155993    1786.2511  0.030837841  0.029325542          103 
 4828000   0.47924537   -5.2120522     1785.323  0.030815435   0.02931758          125 
 4829000   0.48382164   -5.2360166    1785.3355  0.030809268  0.029309638           75 
 4830000   0.47589573   -5.2261739    1785.9289  0.030813127  0.029301691           56 
 4831000    0.4753752   -5.2222866     1786.539  0.030817273   0.02929375           76 
 4832000   0.48457952   -5.2401543    1784.9733  0.030783894  0.029285823           41 
 4833000   0.48878142   -5.2149058    1789.2253   0.03085084  0.029277894           31 
 4834000   0.47114341   -5.2187678    1789.4329  0.030848036  0.029269974           28 
 4835000   0.48515253   -5.2241877    1784.5733  0.030757899  0.029262056           53 
 4836000   0.48161492   -5.2320543    1785.6979  0.030770918   0.02925414           28 
 4837000   0.47798901   -5.2141745    1787.0746  0.030788274  0.029246256           71 
 4838000   0.47865609    -5.215299    1786.7199  0.030775801  0.029238331           56 
 4839000   0.48302673   -5.2309596    1783.9353  0.030721487  0.029230404           31 
 4840000    0.4817733    -5.254976    1781.2321  0.030668597  0.029222442           28 
 4841000   0.47002423   -5.2441779    1785.5762  0.030737041   0.02921451           39 
 4842000   0.47229897   -5.2433398    1787.5712  0.030765029  0.029206588           15 
 4843000   0.47491533    -5.242721    1786.4803  0.030739904  0.029198656           27 
 4844000   0.47606792   -5.2305668    1785.8633  0.030722944  0.029190725           35 
 4845000   0.46956133   -5.2564898    1783.9831  0.030684264  0.029182791           31 
 4846000   0.46754719    -5.243684    1781.2988  0.030631771  0.029174864           20 
 4847000   0.47598289   -5.2472027    1783.5248  0.030663723  0.029166943           56 
 4848000   0.46027142   -5.2358267    1786.9187  0.030715736  0.029159038           18 
 4849000    0.4805433   -5.2336349    1784.8541  0.030673921  0.029151136           50 
 4850000   0.47509049   -5.2253652     1784.618   0.03066354  0.029143221           28 
 4851000   0.48881014   -5.2357287    1784.4845  0.030654925  0.029135302           56 
 4852000   0.48980084   -5.2473983    1785.2308  0.030661424  0.029127387           78 
 4853000   0.48080438   -5.2342296    1782.3051  0.030604869  0.029119472           62 
 4854000   0.46573086   -5.2425595    1786.8498  0.030676587  0.029111541          156 
 4855000   0.47717333    -5.237745    1782.3867  0.030593662  0.029103632           85 
 4856000   0.47991421   -5.2459917    1786.6808  0.030661051   0.02909573           80 
 4857000   0.47213994   -5.2557608    1782.6085   0.03058487  0.029087814          120 
 4858000   0.47679358   -5.2423073    1784.7733  0.030615708  0.029079907           57 
 4859000   0.46794538   -5.2429083    1787.0229  0.030647988  0.029071989           49 
 4860000   0.48016972   -5.2415597    1783.7158  0.030584975  0.029064071           65 
 4861000   0.47000405   -5.2302527     1788.303  0.030657323  0.029056166           29 
 4862000   0.46633582   -5.2493985    1784.7069  0.030589382  0.029048277          109 
 4863000    0.4782134   -5.2447604    1786.6325  0.030616089  0.029040402           98 
 4864000    0.4682463   -5.2386867    1783.2765  0.030552297  0.029032492           71 
 4865000   0.47479555   -5.2476609    1785.9712  0.030592176  0.029024587          181 
 4866000    0.4769188   -5.2592554    1782.2632  0.030522387  0.029016684           74 
 4867000   0.46719874    -5.250327    1786.4981  0.030588626  0.029008775          107 
 4868000   0.48356709   -5.2597486    1780.8111  0.030484988  0.029000873          106 
 4869000   0.47702334   -5.2572816    1783.9541   0.03053252  0.028992953          130 
 4870000   0.46941275   -5.2479025    1788.1618  0.030598251  0.028985055          145 
 4871000   0.46973227   -5.2598635    1788.2792  0.030593977  0.028977149          143 
 4872000   0.48715699   -5.2564606    1781.2241  0.030467024  0.028969247          175 
 4873000   0.47827901   -5.2524385    1780.7549  0.030452749  0.028961354          173 
 4874000   0.46775973   -5.2487052    1785.8055  0.030532853  0.028953456          153 
 4875000   0.47168094   -5.2557587    1786.8784   0.03054493  0.028945562          175 
 4876000   0.47139414   -5.2516805    1782.2141   0.03045895  0.028937679          104 
 4877000   0.46763403   -5.2561699    1781.6487  0.030443043  0.028929785          147 
 4878000   0.46117142   -5.2545046    1783.1832  0.030463017  0.028921902          119 
 4879000   0.47923327   -5.2466518    1782.8065   0.03045034  0.028914019          112 
 4880000    0.4682076   -5.2595729    1783.0874  0.030448897  0.028906141          134 
 4881000   0.46235508   -5.2381114    1781.7312  0.030419504  0.028898271           60 
 4882000   0.47896483    -5.267713    1781.6296  0.030411539  0.028890405           91 
 4883000   0.46410699   -5.2667038    1782.4451  0.030419228  0.028882508          103 
 4884000   0.47052537   -5.2558702    1780.4341  0.030378687  0.028874607           93 
 4885000   0.47156445   -5.2453727    1783.6645  0.030427576  0.028866721           76 
 4886000   0.47023236   -5.2443681    1782.6779  0.030404521  0.028858841           88 
 4887000   0.47550965   -5.2530168    1784.0348  0.030421437  0.028850974          128 
 4888000   0.46610324   -5.2646271    1783.4774  0.030405712  0.028843112          150 
 4889000   0.48417617   -5.2598781    1781.3019  0.030362411  0.028835228          107 
 4890000   0.47054007   -5.2426278    1783.8076  0.030398903  0.028827357          146 
 4891000   0.47096434   -5.2585468     1783.423  0.030386135  0.028819496          204 
 4892000   0.46570129   -5.2763827    1780.2462  0.030325807   0.02881162          182 
 4893000   0.44938094   -5.2529474    1785.1061   0.03040238  0.028803741          232 
 4894000   0.45750356   -5.2545635     1781.826  0.030340316  0.028795869          160 
 4895000   0.47289331   -5.2680564    1782.0498  0.030337927  0.028787994          153 
 4896000   0.47287677   -5.2786695    1780.2568  0.030301212  0.028780125          119 
 4897000   0.46535556   -5.2653436    1779.8187  0.030287569  0.028772267          127 
 4898000   0.47444162   -5.2533373    1786.1332  0.030388818  0.028764432          133 
 4899000   0.46445449    -5.250506     1786.155  0.030382987  0.028756592          120 
 4900000   0.46326125    -5.263849     1782.507  0.030314744  0.028748731          144 
 4901000   0.47056838   -5.2476244    1783.1372  0.030319276  0.028740886          196 
 4902000   0.46830225   -5.2527884      1778.86  0.030240378  0.028733041          171 
 4903000   0.47607647   -5.2666872    1780.6958  0.030265412  0.028725194          195 
 4904000   0.46591723   -5.2603703    1782.9406  0.030297387  0.028717348          228 
 4905000   0.47355948   -5.2628322    1780.6435  0.030252182  0.028709504          228 
 4906000   0.46964879   -5.2640095    1779.6182  0.030228601  0.028701652          303 
 4907000    0.4588874   -5.2694335    1781.4907  0.030254241  0.028693802          194 
 4908000   0.46920561   -5.2494537    1783.9675   0.03029013  0.028685959          225 
 4909000   0.46013542   -5.2598615    1783.0546  0.030268463  0.028678123          228 
 4910000   0.46267101   -5.2907979    1780.6775  0.030221954  0.028670281          426 
 4911000   0.47057393   -5.2843434    1777.9101   0.03016884  0.028662419          350 
 4912000   0.46925022   -5.2682845    1783.5982  0.030259198  0.028654562          243 
 4913000   0.46900462   -5.2645523    1782.4476  0.030233524  0.028646689          370 
 4914000   0.46597171   -5.2520583    1782.2536  0.030224081  0.028638839          314 
 4915000    0.4604329   -5.2701966    1783.1354  0.030232882  0.028631007          351 
 4916000   0.46939543   -5.2717906    1778.2506  0.030143928  0.028623174          472 
 4917000   0.47169946   -5.2791962    1781.7472  0.030197058  0.028615328          430 
 4918000   0.46415002   -5.2766512    1781.6276  0.030188892  0.028607478          274 
 4919000   0.47416742   -5.2875156    1775.4071  0.030077372  0.028599621          347 
 4920000   0.45420208   -5.2750009    1778.3588  0.030121254  0.028591775          301 
 4921000   0.46815077   -5.2808224    1781.0897  0.030161378  0.028583946          282 
 4922000   0.47363725   -5.2719001     1780.989  0.030153544  0.028576116          354 
 4923000   0.46495575    -5.290977    1780.4759  0.030138735  0.028568275          360 
 4924000   0.46173568   -5.2834916    1779.6408  0.030118481  0.028560413          365 
 4925000   0.46484908    -5.284532     1779.957  0.030117716  0.028552569          374 
 4926000   0.46675096     -5.27398    1781.0792  0.030130586  0.028544737          303 
 4927000   0.46830529   -5.2873343    1781.3242  0.030128615  0.028536908          323 
 4928000   0.45736578   -5.2667423    1779.3255  0.030088702  0.028529093          333 
 4929000   0.46905213   -5.2830064    1780.6017  0.030104174  0.028521283          297 
 4930000   0.45875381    -5.276812    1777.6037  0.030047392  0.028513466          287 
 4931000   0.45883579   -5.2835155    1778.1989  0.030051357   0.02850565          309 
 4932000   0.46240835   -5.2778492    1782.4586  0.030117238  0.028497829          307 
 4933000   0.45652641   -5.2711228    1780.6652  0.030080837  0.028490024          277 
 4934000   0.46266937   -5.2840815    1777.1697  0.030015703  0.028482207          278 
 4935000   0.46063835   -5.2865978    1782.3299  0.030096756  0.028474402          287 
 4936000   0.46534417    -5.296579    1779.7707  0.030047452  0.028466574          307 
 4937000   0.46113562   -5.2923403    1779.4867  0.030036572  0.028458749          384 
 4938000   0.47053503   -5.2801857    1782.0332  0.030073464   0.02845094          272 
 4939000   0.46547058   -5.2722428    1778.4009  0.030006089  0.028443136          242 
 4940000   0.45560746   -5.2846925    1779.7766  0.030023223  0.028435336          291 
 4941000   0.46508454   -5.2638868    1780.4136  0.030027889  0.028427548          313 
 4942000   0.47122583   -5.2739046     1780.568  0.030024416  0.028419767          329 
 4943000   0.45523709   -5.2946545     1780.038  0.030009407  0.028411966          305 
 4944000   0.46292883   -5.2664406    1777.8503  0.029966462  0.028404154          282 
 4945000   0.46621389   -5.2766139    1779.1054  0.029981553  0.028396357          278 
 4946000   0.45276453   -5.2818079    1775.9973  0.029923124  0.028388563          205 
 4947000   0.46173512   -5.2886641    1778.5307  0.029959751  0.028380764          245 
 4948000   0.47124967   -5.2897416    1776.2285  0.029914923  0.028372958          300 
 4949000   0.46589041   -5.2790643    1779.3752  0.029961865  0.028365156          295 
 4950000   0.45829221    -5.294194    1778.6555  0.029943695  0.028357363          331 
 4951000   0.46282821   -5.2913947    1775.8026  0.029889629   0.02834956          265 
 4952000   0.45886649   -5.2875538    1779.1038  0.029939146   0.02834176          282 
 4953000   0.45836519   -5.2934675    1776.9848   0.02989745  0.028333977          281 
 4954000   0.46433671   -5.2884665    1774.2022  0.029844607    0.0283262          322 
 4955000   0.45828769   -5.2931202     1776.579  0.029878557  0.028318411          293 
 4956000   0.45493021   -5.2938188    1779.7656  0.029926109  0.028310623          255 
 4957000   0.45883112   -5.2894253    1776.0726  0.029857989  0.028302831          297 
 4958000   0.45974814   -5.3042976    1779.6628  0.029912311  0.028295036          243 
 4959000   0.45208198   -5.2937269    1777.6581  0.029872591  0.028287244          170 
 4960000   0.46617203   -5.2982534    1777.8264  0.029869396  0.028279465          214 
 4961000   0.45360539   -5.2853973    1776.3819   0.02983911  0.028271698          201 
 4962000   0.46151718   -5.2900727    1779.0043  0.029877137  0.028263926          225 
 4963000   0.46243927   -5.3057122    1775.5899  0.029813787  0.028256141          243 
 4964000   0.46766692   -5.2865812    1777.5223  0.029840221  0.028248369          197 
 4965000   0.46044358   -5.2912309    1778.3624  0.029848311    0.0282406          269 
 4966000   0.47399847   -5.2921441    1778.7171  0.029848253  0.028232826          318 
 4967000   0.46576686   -5.3034769    1781.4879   0.02988873  0.028225052          317 
 4968000   0.47573287   -5.3200678    1778.7243  0.029836358  0.028217279          377 
 4969000    0.4467193   -5.2905477    1773.3396  0.029740049  0.028209506          307 
 4970000   0.45697068    -5.285285    1777.4705  0.029803328  0.028201727          280 
 4971000    0.4680938    -5.297889    1778.6254  0.029816694  0.028193951          340 
 4972000   0.45901933    -5.301565    1777.3238  0.029788881  0.028186191          373 
 4973000   0.44526355   -5.3127566    1778.5941  0.029804177  0.028178413          460 
 4974000   0.45596436   -5.3137971    1777.4376  0.029778809  0.028170635          392 
 4975000    0.4547723   -5.3099817    1777.9709  0.029781758  0.028162871          376 
 4976000   0.45558005   -5.3006281    1776.8503  0.029757006   0.02815511          430 
 4977000   0.45830149   -5.2965393    1774.4476  0.029710796   0.02814733          443 
 4978000   0.45242936   -5.2881425    1778.9618  0.029780397  0.028139562          431 
 4979000   0.45184882    -5.295334    1775.9382  0.029723811  0.028131797          446 
 4980000   0.45914877    -5.288539    1776.9247  0.029734348  0.028124037          489 
 4981000   0.44925873   -5.2926888    1780.9707  0.029796069  0.028116286          582 
 4982000   0.46670521   -5.3139256     1775.456  0.029697846  0.028108544          394 
 4983000   0.45548786   -5.2933284    1776.8692  0.029715519   0.02810079          405 
 4984000    0.4594643    -5.303513    1777.4809  0.029719786  0.028093036          494 
 4985000   0.45289327   -5.3152436    1775.5183  0.029681015  0.028085269          344 
 4986000   0.44735188   -5.2920672     1777.924   0.02971527  0.028077517          377 
 4987000   0.45685822   -5.3081383     1774.977  0.029660065  0.028069754          402 
 4988000   0.45381684   -5.2903709    1777.1745  0.029690833  0.028061992          474 
 4989000   0.45780506   -5.3041283     1775.089  0.029650046  0.028054227          469 
 4990000   0.44221684   -5.2986309    1776.2224  0.029663032  0.028046467          370 
 4991000   0.44430375   -5.3128976     1774.361   0.02962601  0.028038712          523 
 4992000   0.45425767   -5.3087021    1773.3786  0.029603675  0.028030945          402 
 4993000   0.45784527   -5.3085025    1774.3023  0.029613163  0.028023189          464 
 4994000    0.4389045   -5.3064824    1773.5293  0.029594335  0.028015437          463 
 4995000    0.4529204   -5.2966422    1773.6032  0.029589644  0.028007684          479 
 4996000    0.4581517   -5.2985146    1775.1135  0.029608913  0.027999924          578 
 4997000   0.44882557   -5.3197676    1776.9537  0.029633675  0.027992189          427 
 4998000   0.45444961   -5.3083259    1775.5338  0.029604072  0.027984461          565 
 4999000   0.45219231   -5.3041703    1775.8205   0.02960293  0.027976715          499 
 5000000    0.4481991   -5.3177055    1773.2681  0.029554469  0.027968969          529 
 5001000   0.44983011    -5.322343    1779.6127  0.029654281  0.027961239          498 
 5002000   0.45202789   -5.3181841    1770.5626  0.029497578  0.027953507          548 
 5003000   0.45229771   -5.3106343    1773.7805  0.029545281  0.027945766          605 
 5004000   0.45558308   -5.3270891    1773.3667  0.029532486  0.027938024          496 
 5005000   0.45078721   -5.3042231     1774.805  0.029550532  0.027930289          591 
 5006000   0.45630973   -5.3136236    1773.9974  0.029531185  0.027922544          684 
 5007000   0.45494276   -5.3213941    1774.2286  0.029529136  0.027914809          618 
 5008000   0.44387539   -5.3061577    1774.0997  0.029521094  0.027907064          628 
 5009000   0.45139795   -5.3146933    1776.0817  0.029548175   0.02789932          599 
 5010000   0.45080846   -5.3293477    1773.9026  0.029506031  0.027891571          735 
 5011000    0.4527779   -5.3189123    1770.7826  0.029448257  0.027883834          549 
 5012000   0.44366979   -5.3291448    1773.9142  0.029494451  0.027876089          786 
Loop time of 12517.5 on 48 procs for 5000000 steps with 4000 atoms

Performance: 69023.259 tau/day, 399.440 timesteps/s
99.4% CPU use with 48 MPI tasks x no OpenMP threads

MPI task timing breakdown:
Section |  min time  |  avg time  |  max time  |%varavg| %total
---------------------------------------------------------------
Pair    | 864.49     | 928.26     | 982.72     |  86.5 |  7.42
Neigh   | 85.274     | 88.001     | 91.95      |  16.4 |  0.70
Comm    | 815.56     | 866.56     | 932.34     |  96.6 |  6.92
Output  | 14.527     | 14.531     | 14.61      |   0.3 |  0.12
Modify  | 10480      | 10503      | 10527      |  10.0 | 83.91
Other   |            | 116.9      |            |       |  0.93

Nlocal:        83.3333 ave          92 max          77 min
Histogram: 2 1 12 3 13 6 9 0 1 1
Nghost:        2309.73 ave        2328 max        2288 min
Histogram: 1 4 2 6 3 9 12 4 3 4
Neighs:        15637.1 ave       17121 max       13936 min
Histogram: 1 2 2 5 13 7 8 5 3 2
FullNghs:      31273.7 ave       34858 max       28491 min
Histogram: 1 3 11 4 12 7 8 0 1 1

Total # of neighbors = 1501139
Ave neighs/atom = 375.28475
Neighbor list builds = 269617
Dangerous builds = 0

#clear
#
#next RN
#
#jump SELF
Total wall time: 3:28:41
