
units lj                  # Use reduced LJ style units
atom_style atomic         # Uncharged point particles
atom_modify map hash      # Needed for indexing of clusters etc
                          # Used to be able to find where atoms are in relation to each other.

# Define a lattice with which to populate the simulation cell. With units
# set to 'lj' the second argument to the lattice command is the reduced
# density rho* and the spacings are multiples of that required to acheive
# that density. Also define a simulation cell called 'box' in lattice units
# and fill it with atoms. Here we're creating a box which is ten lattice
# constants in each direction.
lattice fcc 1.0 spacing 1 1 1                 # All equal sizes - gives the right reduced density.
Lattice spacing in x,y,z = 1.5874011 1.5874011 1.5874011

region box block 0 10 0 10 0 10 units lattice # Defines a region, "box", in lattice units
create_box 1 box                              # Creates a simulation box as specified above,
Created orthogonal box = (0.0000000 0.0000000 0.0000000) to (15.874011 15.874011 15.874011)
  3 by 4 by 4 MPI processor grid
                                              # with one type of atom
create_atoms 1 box                            # Creates particles on lattice points
Created 4000 atoms
  using lattice units in orthogonal box = (0.0000000 0.0000000 0.0000000) to (15.874011 15.874011 15.874011)
  create_atoms CPU = 0.002 seconds


# Set the mass of the first (and only) atom type.
mass 1 1.0

# Lennard-Jones interactions between particles, 3.5 sigma cut-off. Apply
# long range tail corrections to energy and pressure and set all coefficients
# to unity since we work in reduced units here. Note that this doesn't shift
# the potential such that it goes to zero at the cutoff. That would require
# pair_modify('shift', 'yes').
pair_style lj/cut  3.5      # non-GPU version
pair_modify tail  yes
pair_coeff 1  1  1.0  1.0   # Intearaction between 1 and 1 set with epsilon = 1 and sigma = 1

write_data data.*
System init for write_data ...
Neighbor list info ...
  update every 1 steps, delay 10 steps, check yes
  max neighbors/atom: 2000, page size: 100000
  master list distance cutoff = 3.8
  ghost atom cutoff = 3.8
  binsize = 1.9, bins = 9 9 9
  1 neighbor lists, perpetual/occasional/extra = 1 0 0
  (1) pair lj/cut, perpetual
      attributes: half, newton on
      pair build: half/bin/atomonly/newton
      stencil: half/bin/3d
      bin: standard

#############################
#   M E L T   S Y S T E M   #
#############################

velocity all create 2.4 5833274 mom yes dist gaussian # Assign velocities
                                                    # Temperature 2.4, random number seed, zero linear momentum
						                                                        # Gaussian distribution

timestep 0.002   # simulation timestep
thermo 1000       # output thermodynamic data every 1000 steps

# Define a fix  in this case with index 1 applied to all
# particles in the simulation. This fix is for simulations
# in the anisotropic NPT ensemble. Note that we use the MTK
# correction.
fix 1 all npt temp 2.4 2.4 0.1 iso 5.68 5.68 0.5 mtk yes tchain 5 pchain 5 # Use NPT ensemble
                                                                         # Set temperature and pressure and damping
                                                                         # Numbers of thermostats in chain and in barostat
run 1000         # run for 10000 steps
Per MPI rank memory allocation (min/avg/max) = 3.642 | 3.644 | 3.648 Mbytes
Step Temp E_pair E_mol TotEng Press Volume 
       0          2.4   -8.3859253            0   -4.7868253   -2.2405722         4000 
    1000    2.3797751   -4.4966384            0  -0.92786813    5.4591985    5168.8144 
Loop time of 0.226355 on 48 procs for 1000 steps with 4000 atoms

Performance: 763404.257 tau/day, 4417.849 timesteps/s
99.4% CPU use with 48 MPI tasks x no OpenMP threads

MPI task timing breakdown:
Section |  min time  |  avg time  |  max time  |%varavg| %total
---------------------------------------------------------------
Pair    | 0.089605   | 0.10058    | 0.11998    |   1.8 | 44.44
Neigh   | 0.017266   | 0.018939   | 0.022262   |   0.7 |  8.37
Comm    | 0.056729   | 0.080723   | 0.098915   |   2.6 | 35.66
Output  | 2.5199e-05 | 2.5982e-05 | 3.4389e-05 |   0.0 |  0.01
Modify  | 0.01871    | 0.024536   | 0.031803   |   2.3 | 10.84
Other   |            | 0.001546   |            |       |  0.68

Nlocal:        83.3333 ave          95 max          76 min
Histogram: 5 3 8 10 11 3 4 3 0 1
Nghost:        1390.04 ave        1421 max        1371 min
Histogram: 5 8 6 7 8 4 4 3 1 2
Neighs:        7371.42 ave        8414 max        6707 min
Histogram: 8 7 3 4 13 5 4 1 0 3

Total # of neighbors = 353828
Ave neighs/atom = 88.457000
Neighbor list builds = 87
Dangerous builds = 16

# Equilibrate just above the melting temperature to avoid step fn in T

fix 1 all npt temp 1.25 1.25 0.1 iso 5.68 5.68 0.5 mtk yes tchain 5 pchain 5
run 1000
Per MPI rank memory allocation (min/avg/max) = 3.642 | 3.644 | 3.648 Mbytes
Step Temp E_pair E_mol TotEng Press Volume 
    1000    2.3797751   -4.4966384            0  -0.92786813    5.4591985    5168.8144 
    2000    1.2516439   -5.8169213            0   -3.9399248    5.7560827    4346.0008 
Loop time of 0.21104 on 48 procs for 1000 steps with 4000 atoms

Performance: 818801.965 tau/day, 4738.437 timesteps/s
99.6% CPU use with 48 MPI tasks x no OpenMP threads

MPI task timing breakdown:
Section |  min time  |  avg time  |  max time  |%varavg| %total
---------------------------------------------------------------
Pair    | 0.090782   | 0.099036   | 0.10434    |   0.8 | 46.93
Neigh   | 0.015426   | 0.016002   | 0.016942   |   0.2 |  7.58
Comm    | 0.066296   | 0.072301   | 0.079209   |   1.0 | 34.26
Output  | 2.3983e-05 | 2.4758e-05 | 3.1541e-05 |   0.0 |  0.01
Modify  | 0.019267   | 0.021705   | 0.024044   |   0.9 | 10.28
Other   |            | 0.001971   |            |       |  0.93

Nlocal:        83.3333 ave          89 max          74 min
Histogram: 1 1 1 3 8 4 13 5 8 4
Nghost:        1549.94 ave        1572 max        1533 min
Histogram: 3 3 10 7 6 10 5 1 1 2
Neighs:        8760.96 ave        9501 max        7906 min
Histogram: 1 3 6 6 7 6 6 5 3 5

Total # of neighbors = 420526
Ave neighs/atom = 105.13150
Neighbor list builds = 74
Dangerous builds = 4


# Small amount of linear quench

fix 1 all npt temp 1.25 ${temp} 0.1 iso 5.68 5.68 0.5 mtk yes tchain 5 pchain 5
fix 1 all npt temp 1.25 1.95 0.1 iso 5.68 5.68 0.5 mtk yes tchain 5 pchain 5
run 2000
Per MPI rank memory allocation (min/avg/max) = 3.643 | 3.645 | 3.648 Mbytes
Step Temp E_pair E_mol TotEng Press Volume 
    2000    1.2516439   -5.8169213            0   -3.9399248    5.7560827    4346.0008 
    3000        1.539   -5.3589368            0   -3.0510139    5.9051448    4557.6528 
    4000    1.9246812   -4.8763529            0   -1.9900528    5.8057251    4851.2612 
Loop time of 0.433667 on 48 procs for 2000 steps with 4000 atoms

Performance: 796924.051 tau/day, 4611.829 timesteps/s
99.6% CPU use with 48 MPI tasks x no OpenMP threads

MPI task timing breakdown:
Section |  min time  |  avg time  |  max time  |%varavg| %total
---------------------------------------------------------------
Pair    | 0.18695    | 0.19862    | 0.2219     |   1.4 | 45.80
Neigh   | 0.031783   | 0.033094   | 0.036548   |   0.5 |  7.63
Comm    | 0.12933    | 0.15203    | 0.16482    |   1.8 | 35.06
Output  | 4.8471e-05 | 5.1455e-05 | 6.5627e-05 |   0.0 |  0.01
Modify  | 0.037844   | 0.045959   | 0.057887   |   2.1 | 10.60
Other   |            | 0.003915   |            |       |  0.90

Nlocal:        83.3333 ave          93 max          76 min
Histogram: 3 4 7 7 10 6 5 4 1 1
Nghost:        1446.04 ave        1466 max        1420 min
Histogram: 1 1 3 6 7 8 11 3 4 4
Neighs:        7840.58 ave        9088 max        7239 min
Histogram: 7 5 13 6 10 4 0 1 1 1

Total # of neighbors = 376348
Ave neighs/atom = 94.087000
Neighbor list builds = 150
Dangerous builds = 0

#############################
# F R E E Z E  S Y S T E M  #
#############################

# Define solid atoms. This closely follows ten Wolde  Ruiz-Montero and Frenkel  Faraday Discuss  1996  104  93-110
# Compute components of the per-atom q6 vector
compute q6 all orientorder/atom degrees 1 6 components 6 nnn NULL cutoff 1.3 # compute the Q6 parameter.
                                                                             # Use all neighbours within 1.3 unit cell.

# get number of connections
compute coord_number all coord/atom orientorder q6 0.5

# An atom is solid if it has 8 or more connections (of a possible 14)
variable is_solid atom c_coord_number>=8
group solid dynamic all var is_solid    # Must be dynamic to update
dynamic group solid defined

# do clustering
compute cluster solid cluster/atom 1.3 # Create a cluster where all atoms within are solid and max 1.3 units from another member

# define chunks one chunk per cluster
compute clus_chunks solid chunk/atom c_cluster nchunk every compress yes  # Says which atoms are in which chunk

# count the size of each chunk
compute size_chunks solid property/chunk clus_chunks count


# Find the maximum entry in the vector of chunk sizes
variable max_n equal max(c_size_chunks)


# Thermo style which includes this variable
thermo_style custom step temp pe vol v_max_n

thermo ${N}  # Print the thermo information every 100 steps
thermo 1000  

# Reset the npt fix at a lower temperature (below freezing)
fix 1  all npt temp  ${temp} ${temp}  0.1  iso  5.68  5.68  0.5  mtk yes tchain  5  pchain  5
fix 1  all npt temp  1.95 ${temp}  0.1  iso  5.68  5.68  0.5  mtk yes tchain  5  pchain  5
fix 1  all npt temp  1.95 1.95  0.1  iso  5.68  5.68  0.5  mtk yes tchain  5  pchain  5

dump dmp2 all dcd ${N} traj_${rand}.dcd
dump dmp2 all dcd 1000 traj_${rand}.dcd
dump dmp2 all dcd 1000 traj_462431.dcd


# fix rnuntil all halt ${N} v_max_n >= 3980 error soft message no   # Stop when solidified


run 1000000 # 5000000  # Run for this many steps
Neighbor list info ...
  update every 1 steps, delay 10 steps, check yes
  max neighbors/atom: 2000, page size: 100000
  master list distance cutoff = 3.8
  ghost atom cutoff = 3.8
  binsize = 1.9, bins = 9 9 9
  4 neighbor lists, perpetual/occasional/extra = 1 3 0
  (1) pair lj/cut, perpetual
      attributes: half, newton on
      pair build: half/bin/atomonly/newton
      stencil: half/bin/3d
      bin: standard
  (2) compute orientorder/atom, occasional
      attributes: full, newton on
      pair build: full/bin/atomonly
      stencil: full/bin/3d
      bin: standard
  (3) compute coord/atom, occasional
      attributes: full, newton on
      pair build: full/bin/atomonly
      stencil: full/bin/3d
      bin: standard
  (4) compute cluster/atom, occasional
      attributes: full, newton on
      pair build: full/bin/atomonly
      stencil: full/bin/3d
      bin: standard
Per MPI rank memory allocation (min/avg/max) = 9.327 | 9.332 | 9.337 Mbytes
Step Temp PotEng Volume v_max_n 
    4000    1.9246812   -4.8763529    4851.2612            1 
    5000    1.9393004   -4.9012673    4862.4021            2 
    6000    1.9643215   -4.8092602    4905.4688       -1e+20 
    7000     1.916976   -4.8644742    4862.7643       -1e+20 
    8000    1.9913524    -4.858736    4898.5488            1 
    9000    1.9446586   -4.8485619    4884.4112            1 
   10000    1.9913717    -4.824248    4882.9459            1 
   11000    1.9687749   -4.8465135    4865.7201            1 
   12000    2.0024331   -4.8117074    4929.7788            1 
   13000    1.9105672   -4.8725071    4884.7837            1 
   14000    1.9430759   -4.8389136     4897.713            1 
   15000    1.9379733   -4.8424491    4882.7034            1 
   16000    1.9626256   -4.8586943    4871.4819            1 
   17000    1.9320271   -4.7955162    4904.9528            1 
   18000      1.96831   -4.8290428    4897.8964            1 
   19000    1.9767625   -4.8531943    4881.2977            1 
   20000     1.966998   -4.8636396    4898.3154            2 
   21000    1.9271498   -4.8440683    4920.6652            1 
   22000    1.9115591    -4.834336    4855.3642            2 
   23000    1.9461765   -4.8378703    4919.1241            1 
   24000    1.9150839   -4.8672812    4869.6773       -1e+20 
   25000    1.9341215   -4.9210555    4860.3593            1 
   26000    1.9723886   -4.8839456    4845.7168            2 
   27000    1.9369302   -4.8622794    4871.0093       -1e+20 
   28000    1.9347899   -4.8275207    4904.7668            1 
   29000    1.9479422   -4.8714596    4887.2468            1 
   30000     1.955373   -4.8691631    4879.4975            1 
   31000    1.9425175   -4.8797365    4847.5797            1 
   32000    2.0144222   -4.8725939    4876.0393            1 
   33000    1.9126418   -4.8499407    4866.7426            2 
   34000    1.9339839   -4.8785465    4879.6669            1 
   35000     1.981092    -4.840664    4859.8185            1 
   36000    1.9577479   -4.9113111    4854.6315            1 
   37000    1.9397713   -4.8621383    4879.2287            1 
   38000    1.9716023   -4.8886908    4871.3878            1 
   39000    1.9968267   -4.8622152    4875.2397            1 
   40000    1.9346743   -4.9041277    4852.3384            2 
   41000    1.9329412   -4.8865667    4849.0556            1 
   42000    1.9802164   -4.8266619    4872.4069            4 
   43000    1.9847722   -4.8630524    4900.5651            1 
   44000    1.9808668   -4.8622708    4877.2276            1 
   45000    1.9580317   -4.8470018    4865.9767            1 
   46000    1.9611281   -4.8425162    4871.9717            1 
   47000    1.9419834   -4.8726675    4859.1363            1 
   48000    1.9856036   -4.8494986    4894.8851            1 
   49000    1.8923877   -4.8657611    4891.9674            1 
   50000    1.9423722   -4.8565999    4867.8564            1 
   51000    1.8929783   -4.8990566    4873.1967            1 
   52000    1.9464019   -4.8697109    4859.4789       -1e+20 
   53000    1.9517044    -4.832829    4914.8544            3 
   54000    1.9535605   -4.8793286    4883.0032            1 
   55000    1.9447129   -4.8590981    4899.3936            2 
   56000    1.9616277    -4.863348    4854.0781            1 
   57000    1.9507798   -4.8467161    4892.0566            1 
   58000    1.9426958   -4.8909611    4869.7279            2 
   59000    2.0058004   -4.8685188     4861.468            1 
   60000    1.9570515   -4.8858785    4861.3974            1 
   61000     1.969883   -4.8145972     4904.979            1 
   62000    1.9473544   -4.8503275    4884.8985       -1e+20 
   63000    1.9411071   -4.8689728    4878.2988            2 
   64000    1.9607908   -4.8209045    4880.3008            1 
   65000    1.9571793   -4.8397508    4872.4845            2 
   66000    1.9817261   -4.8602557    4859.4937            1 
   67000    1.9500819   -4.8190085    4881.1201       -1e+20 
   68000    1.9584744   -4.9079514    4883.5871            1 
   69000     1.929523   -4.8426384    4900.3692            1 
   70000     1.928617   -4.8588037     4878.573            1 
   71000    1.9882587   -4.7802809    4870.6336            2 
   72000    1.9358334   -4.8179889    4899.1538            1 
   73000    1.9463195   -4.9217628    4875.4763       -1e+20 
   74000     1.962163   -4.8465066    4861.3313            1 
   75000    1.8873368   -4.8102634    4891.9138            1 
   76000    1.9691126   -4.8628413    4872.9244            1 
   77000    1.9456284   -4.8618753    4887.1628            1 
   78000    1.9196999   -4.8399496    4869.0581            1 
   79000    1.9556614   -4.8622134    4878.0941            2 
   80000    1.9399415    -4.864215    4864.1464            1 
   81000    1.8925738   -4.8364631    4866.3175            1 
   82000    1.9075703   -4.8295007    4907.5742            2 
   83000    1.9386437    -4.878912    4864.7038            1 
   84000    1.9833437   -4.8752759    4862.3687            1 
   85000    1.9629162   -4.8752148    4866.4262            1 
   86000    1.9517041   -4.8384014    4913.1018            2 
   87000    1.9610121   -4.8549755    4846.8423            1 
   88000    1.9564007   -4.8752103    4863.4289            1 
   89000    1.9907527   -4.8450899    4902.5328            1 
   90000    1.9760457   -4.8253377    4901.6652            1 
   91000    1.9276244   -4.8641412    4861.4649            1 
   92000    1.9478021   -4.8302853    4865.9774            1 
   93000    1.8903037   -4.9308305    4871.2607       -1e+20 
   94000    1.9616368   -4.8538231    4884.7994            2 
   95000    1.9548061   -4.8235507    4912.7358            1 
   96000    1.9572465   -4.8307551    4888.8599            1 
   97000    1.9455484    -4.806143     4863.334            2 
   98000    1.9874137   -4.8536157    4891.3768            1 
   99000    1.9652056   -4.7600315    4918.6607            1 
  100000    1.9468424   -4.9055722     4866.567            1 
  101000    1.9479168   -4.8985861    4855.0267            1 
  102000    1.9424739   -4.8758285    4881.9076            2 
  103000    1.9416735   -4.8168059    4901.1909            2 
  104000    1.9330365   -4.8502558    4882.9817            1 
  105000    1.9413503   -4.9225515    4853.8487            1 
  106000    1.9272346   -4.8554962    4884.5731            1 
  107000    1.9370671   -4.8675046    4870.7218            1 
  108000    1.9653658   -4.8644029    4888.1017       -1e+20 
  109000    1.9772316   -4.8681897    4845.6933            2 
  110000    1.9469577   -4.8715291     4881.143            1 
  111000    1.8953494   -4.8712253    4851.4086            1 
  112000    1.9529344   -4.9014942    4857.8714            1 
  113000    1.9416403   -4.8784747    4861.1178            2 
  114000    2.0260612   -4.8519879     4865.839            1 
  115000    1.9783457   -4.8321257    4892.8935            2 
  116000    1.9446759    -4.827984    4878.8601            1 
  117000    1.9785761   -4.8417594    4883.5363            2 
  118000    1.9271087   -4.8425183    4873.1161            1 
  119000    1.9575591   -4.8703072    4867.4781            1 
  120000    1.9702184   -4.8751432    4904.9726            1 
  121000    1.9464465   -4.8571363    4879.5583            2 
  122000    1.9529186   -4.8241483    4886.1884            1 
  123000    1.9695491   -4.8941102    4847.8877            1 
  124000    1.9270117   -4.8866271    4878.7346            1 
  125000    1.9099396   -4.8533078    4867.9368            1 
  126000       1.9497   -4.8492189    4863.3117            1 
  127000    1.9442757    -4.824476    4876.3234            1 
  128000     2.010373   -4.8951378    4866.4813            1 
  129000    1.9350686   -4.8768023      4883.96            1 
  130000     1.975223    -4.871459    4878.6408            1 
  131000    1.9412073   -4.8262641    4883.8646       -1e+20 
  132000    1.9526394   -4.8519556    4853.8655            1 
  133000    1.9817379   -4.7903348     4886.715       -1e+20 
  134000    1.9379374   -4.8792808    4891.6811            2 
  135000     1.945393   -4.8824989    4868.9127            1 
  136000    1.9277605   -4.8808141    4862.0044            1 
  137000    1.9383647   -4.8380257    4883.6516            1 
  138000    1.9273003   -4.8547732    4872.8331            1 
  139000    1.9315051   -4.8884946    4915.2297            1 
  140000    1.9354753   -4.8552073     4888.702            1 
  141000    1.9516529   -4.8592122    4881.0202            1 
  142000    1.9670814   -4.8916082    4884.8536            2 
  143000    1.9589514   -4.8405199     4867.692            1 
  144000    1.9122958   -4.8851258    4859.1451       -1e+20 
  145000     1.963339   -4.8500422    4859.9689       -1e+20 
  146000    1.9047823   -4.8923281    4862.7464            1 
  147000    1.9950167   -4.8350837     4907.226            1 
  148000    1.9401876   -4.8950823    4862.0702            1 
  149000    1.9519247   -4.8139142    4922.8923            1 
  150000    1.9494754   -4.8183283    4883.2069            1 
  151000     1.887042   -4.8304291    4894.6752            1 
  152000    1.9801698   -4.8211907    4896.8977            1 
  153000    1.9186757   -4.8693162    4881.6772            1 
  154000    1.9119948   -4.8508113    4898.6372            1 
  155000    2.0122585   -4.8713245    4873.3965            1 
  156000    1.9434741    -4.876624    4911.7121            1 
  157000    1.9430233   -4.8428874    4887.4735            1 
  158000    1.9382656   -4.8812242    4861.3754            1 
  159000    1.9373993   -4.8607118    4884.1685            1 
  160000    1.9475792   -4.8589051    4854.8014            1 
  161000    1.9498896   -4.8296052    4927.2665            1 
  162000     1.969287   -4.8246956    4914.4279            1 
  163000     1.957773   -4.8731295    4865.1309       -1e+20 
  164000    1.9787508   -4.8698242    4894.5374            1 
  165000    1.9509118   -4.8796765    4862.7285            3 
  166000    1.9347707   -4.8592074    4898.3416            1 
  167000    1.9749258   -4.8607463    4884.8374            2 
  168000    1.9432565   -4.8263229    4878.2721            1 
  169000    1.9536541   -4.8920725    4879.4649            1 
  170000     1.929875   -4.8387155    4910.0172            1 
  171000    1.9733777   -4.8997824    4862.1986            2 
  172000     1.942763   -4.8920744    4874.8937            2 
  173000    1.9239104    -4.864553    4862.7478            1 
  174000    1.9685559   -4.8455428    4890.0192            3 
  175000    1.9683851    -4.823259    4900.4758            1 
  176000    1.9694234   -4.8867478    4870.8405            1 
  177000    1.9575466   -4.8691416    4872.2754            1 
  178000    1.9536207   -4.9055407     4840.445            1 
  179000    1.9256433   -4.8462159    4899.0417            2 
  180000    1.9512779   -4.8210116    4897.4782            1 
  181000    1.9334127   -4.8843665    4875.2639            1 
  182000     1.921765   -4.8538971    4851.0954            3 
  183000    1.9777675   -4.8876324    4884.4425            2 
  184000    1.9347044   -4.8543512    4902.0076       -1e+20 
  185000     1.910153    -4.880384    4878.1936       -1e+20 
  186000    1.9978159   -4.8537945    4900.8872       -1e+20 
  187000    1.9581364   -4.8251192    4894.2339            1 
  188000    1.9650943   -4.9161103    4861.8436       -1e+20 
  189000    1.9754169   -4.8847655    4865.1831            1 
  190000    1.9392479   -4.8547278    4906.9035            1 
  191000    1.9371884   -4.8480045    4879.3695            1 
  192000    1.9802305   -4.8223903    4863.9533            2 
  193000    1.9413121   -4.8283009    4878.0758            1 
  194000    1.9431812   -4.8858737    4847.6389            1 
  195000    1.9593487   -4.8364416    4866.1454            1 
  196000    1.9495959   -4.8053692    4914.0123            1 
  197000    1.9515886   -4.8462876      4872.84            2 
  198000    1.9440171   -4.8796789    4887.3342            1 
  199000     1.932795   -4.8445696    4882.7008            1 
  200000    1.9414449   -4.8828272    4877.8515            1 
  201000    1.9137921   -4.8804618    4886.6421       -1e+20 
  202000     1.953894     -4.86639    4886.8778            1 
  203000    1.9662796   -4.8599342    4897.2585            1 
  204000    1.9396996    -4.853809    4880.5382            1 
  205000    1.9616195   -4.8402988    4889.1412       -1e+20 
  206000    1.9559143   -4.8530742    4900.4443            1 
  207000    1.9529674   -4.8753761    4870.6434            2 
  208000    1.9146347   -4.8835129    4856.7071            2 
  209000     1.998164   -4.8255649    4851.1014            1 
  210000    1.9337002   -4.9209268    4856.2233            1 
  211000    1.9138894   -4.8448257    4908.6039            1 
  212000    1.9277283   -4.8623234     4919.688            1 
  213000    1.9419481   -4.8461652    4882.3954            1 
  214000    1.9588836   -4.8890759    4919.7449            1 
  215000    1.9989154   -4.9000113    4882.2893       -1e+20 
  216000     1.943881   -4.8974043     4887.212            1 
  217000    1.9707096   -4.7992824    4896.4253            1 
  218000    1.9204837   -4.9021262     4824.814            1 
  219000    2.0136303   -4.8599142    4872.0593       -1e+20 
  220000    1.9637004   -4.8253868    4881.0624            1 
  221000    1.9801882     -4.83023    4866.5814            2 
  222000    1.9313401   -4.8334038    4890.2642            1 
  223000    2.0027302    -4.902149    4840.0199            1 
  224000    1.9447481   -4.8060226     4908.688            1 
  225000    1.9493667   -4.8366089    4905.1868            1 
  226000    1.9358266    -4.793261    4895.7259            1 
  227000      1.88522   -4.9181684    4837.4706            2 
  228000     1.885495   -4.8749668    4889.7348            1 
  229000    1.9727087   -4.8647506    4897.5446            1 
  230000    1.9264919   -4.8543682     4895.726            1 
  231000    1.9826714   -4.8570806    4893.8919            1 
  232000    1.9507066   -4.8795915    4877.0292       -1e+20 
  233000    1.9221259   -4.8614778    4918.6639            1 
  234000    1.9331123   -4.8627224    4896.3202            2 
  235000    1.9545186    -4.886878    4882.0635            1 
  236000    1.9464283   -4.8472089    4890.7597            1 
  237000    1.9672783   -4.8550611    4915.3903            1 
  238000    1.9229256   -4.8783586    4902.5476            1 
  239000    1.9990128    -4.806699    4879.5496            1 
  240000    1.9490675   -4.8439807    4894.1759            1 
  241000    1.9577248   -4.8121626     4902.897            1 
  242000     1.881113   -4.8152333    4851.9393            1 
  243000    1.9573419    -4.811839    4863.3094            2 
  244000     1.981501   -4.8441856     4911.885            1 
  245000    1.9480552   -4.8264848    4856.4058            1 
  246000    1.9908184   -4.8741886    4841.3258       -1e+20 
  247000    1.9089262   -4.8744661    4883.8734       -1e+20 
  248000    1.9387155    -4.886556     4858.597            1 
  249000    1.9718212   -4.8963689    4878.0625            1 
  250000    1.9788747   -4.8648208     4867.032            1 
  251000     1.972554   -4.8933684    4881.3967       -1e+20 
  252000    1.9570344   -4.8637265    4889.1874            1 
  253000    1.9371935   -4.8301732    4879.5329            1 
  254000    1.9521653   -4.8837411    4878.5461            1 
  255000    1.9436067    -4.858163     4886.025            1 
  256000    1.9420312   -4.9187374    4864.8016            1 
  257000    1.9629053   -4.8785212    4902.7295            1 
  258000    1.9525871   -4.8110745     4873.069            1 
  259000    1.9035635   -4.8304732    4881.5273            2 
  260000    1.9037472   -4.8827962    4870.3792            1 
  261000    1.9802143   -4.8378641    4874.0305            2 
  262000    1.9232357   -4.8350541    4891.9014            2 
  263000    1.9512087   -4.8788553    4897.7165            1 
  264000    1.9625905   -4.8712609    4862.3388            1 
  265000    1.9686324   -4.9049367    4863.8317            1 
  266000    1.9662302   -4.9019799    4878.9691            2 
  267000    1.9401694   -4.8651255    4847.2339            1 
  268000    1.9314259   -4.8550999    4867.1493            3 
  269000    1.9953326   -4.8351222    4901.3309       -1e+20 
  270000    1.9845493   -4.8480417    4883.8992            1 
  271000    1.9104362   -4.8924257    4878.2836            1 
  272000    1.9755761   -4.8467291    4912.7527       -1e+20 
  273000    1.9443725   -4.8603072    4872.9979            2 
  274000     1.987326    -4.850214    4880.9536            1 
  275000    1.9195728   -4.9409611    4864.2892            1 
  276000    1.9954197   -4.8740211    4847.9651            1 
  277000    1.9640874   -4.8600247     4925.428            2 
  278000    1.9458927    -4.842469    4892.3939            1 
  279000    1.8849194   -4.8394378    4884.7776            1 
  280000    1.9486119   -4.8629791    4884.5458            1 
  281000    1.9844407   -4.9218385    4866.0952            1 
  282000    1.9305112    -4.844916    4869.5744       -1e+20 
  283000    2.0063381   -4.8419617    4886.9378            1 
  284000    1.9125735   -4.9260986    4861.6729            1 
  285000    1.9633952   -4.8776282     4853.075            1 
  286000    1.9606014   -4.8022255    4897.3202            1 
  287000    1.9375244   -4.8726347    4896.0549       -1e+20 
  288000    1.9745623   -4.7751714    4871.1425            2 
  289000    1.9136422   -4.8208944    4916.9248            1 
  290000    1.9255471   -4.8442949    4882.8722            1 
  291000    1.9489193   -4.8306377    4880.9501            1 
  292000    1.9435153     -4.87078    4861.0765            1 
  293000    1.9167919   -4.8812981    4859.9133            3 
  294000    1.9277005   -4.8045532     4935.279            1 
  295000    1.9868968   -4.8030445    4911.1649            1 
  296000    1.9684663    -4.873496    4853.2094            1 
  297000    1.9231824   -4.8709441    4873.2564            1 
  298000    1.9663314   -4.8228245    4881.1213            1 
  299000     1.935703   -4.8673757    4912.2757            1 
  300000    1.9591266   -4.8366596    4856.4089       -1e+20 
  301000      1.92181   -4.9022796    4898.2901            1 
  302000    1.9443142   -4.8748927     4866.603            2 
  303000    1.9712928   -4.8325362    4899.4249            1 
  304000    1.9215882   -4.8288972    4853.8523       -1e+20 
  305000    1.9317284   -4.9058297    4851.9081            1 
  306000    1.9733217   -4.8214731    4871.7005       -1e+20 
  307000    1.9317012   -4.8856329    4888.8097            1 
  308000      1.94285   -4.8563835    4884.7899            1 
  309000    1.9890133   -4.8332805    4911.2077            2 
  310000    1.9676885   -4.8504757    4876.1587            2 
  311000    1.9333522   -4.8849196    4836.6223            1 
  312000    1.9575333   -4.8715913    4887.5646            1 
  313000    1.9572744   -4.8431024    4865.5424            2 
  314000    1.9224304   -4.8316425     4911.525            1 
  315000    1.9254268   -4.8497988    4864.4206            1 
  316000    1.9822727   -4.8645688    4864.0578            1 
  317000    1.9499251   -4.8605539    4912.4242       -1e+20 
  318000    1.9476175   -4.8160476    4888.3179            2 
  319000     1.929502   -4.8789972    4849.5762            1 
  320000    1.9950912   -4.8581249    4894.2783            1 
  321000    1.9591266    -4.916782    4897.3273            2 
  322000    1.9570963   -4.8474336    4887.1554            1 
  323000    1.9327306   -4.8222773    4887.4209            1 
  324000     1.960244   -4.8884079    4856.4694            1 
  325000    1.9299112   -4.8818772    4833.5795       -1e+20 
  326000    1.9551287   -4.8565864    4884.7834            1 
  327000    1.9408902   -4.9052923    4857.2669            1 
  328000    1.9526527   -4.8619382    4865.7789            1 
  329000    1.9350078   -4.8215508    4897.8893            1 
  330000     1.977172   -4.8474698    4880.3143            1 
  331000    1.9220672   -4.8918121    4865.4267            1 
  332000    1.9761001    -4.823931    4880.8221            1 
  333000    1.9260754   -4.8668975    4915.1055            1 
  334000    1.9365575   -4.8711114    4877.5219            1 
  335000    1.9066051   -4.8654705     4848.852            1 
  336000    1.9566805   -4.8552388    4896.4224            1 
  337000    1.9460957   -4.8665804    4856.1474            1 
  338000    1.9503241    -4.851129    4864.6264            1 
  339000     1.953386   -4.8719229    4870.8673            1 
  340000    1.9859208   -4.8872139    4866.1447            1 
  341000    1.9207297   -4.8605572     4881.178            1 
  342000    1.9260917   -4.8635944    4884.9021            2 
  343000    1.9717902   -4.8264582     4912.475            1 
  344000    1.9396522   -4.8497553    4892.7676            1 
  345000    1.9529536   -4.9183386    4887.9356            1 
  346000    1.9123913   -4.8062782    4880.7231            1 
  347000     1.987046   -4.8732206    4856.6372            3 
  348000    1.9303639   -4.8467831    4901.5807            1 
  349000    1.9457771   -4.8399106    4874.5892            1 
  350000    1.9341833   -4.8415336     4890.104            2 
  351000    1.9766975   -4.8736927     4877.919            1 
  352000    1.9536166   -4.8465417    4901.6098            1 
  353000    1.9916068   -4.8147265     4887.937            1 
  354000    1.9741244   -4.8544798    4887.4856            1 
  355000    1.9343982   -4.8404375    4878.0553            1 
  356000     1.993204   -4.8236144    4880.8125            2 
  357000    1.9443677   -4.8864217    4892.4187            1 
  358000    1.9558443   -4.8991452    4876.1924            1 
  359000    1.9614271   -4.8219372    4898.2677            1 
  360000    1.9641887   -4.8867832    4874.3491            1 
  361000    1.9330546   -4.9303051    4841.8835            1 
  362000    1.9283191   -4.8562544    4884.0026            1 
  363000    1.9714408   -4.8732759    4867.7653       -1e+20 
  364000    1.9582981   -4.8828023    4847.2867            1 
  365000    1.9121206   -4.8810143    4886.8774            2 
  366000    1.9061966   -4.9014847    4863.9991            1 
  367000    1.9197879   -4.8677688    4854.9382            1 
  368000    1.9584046    -4.843648     4917.315            1 
  369000    1.9382219   -4.8441814    4889.0069            1 
  370000    1.9850775   -4.8182767    4911.1701            1 
  371000    1.9581206   -4.8520421    4887.9856            1 
  372000    1.9281752   -4.8577118    4915.9511            3 
  373000    1.9113251   -4.8383416     4862.959            1 
  374000    1.9062032   -4.8466387    4871.0472            1 
  375000    1.9025058   -4.8915471    4868.5717            1 
  376000    1.9479217    -4.793759    4896.5995            1 
  377000    1.9568227   -4.8354701    4874.7942            1 
  378000    1.9546126   -4.8999077    4852.5948            1 
  379000     1.952357   -4.8181761    4843.2056            1 
  380000    1.9372601   -4.8634472    4884.2973            1 
  381000    1.9394985    -4.871256    4881.0743            1 
  382000    1.9288005   -4.8891096    4821.6406            1 
  383000    1.9385024   -4.8786387    4876.8809            1 
  384000    1.9913638   -4.8906525    4860.1689            1 
  385000    2.0062543   -4.8422269    4895.5835            2 
  386000    1.9519104   -4.8707665    4879.7917            1 
  387000    1.9446874    -4.900721    4893.5901            1 
  388000    1.9680211   -4.8667041    4885.9538            1 
  389000    1.9484079    -4.879993    4919.9993            1 
  390000    1.9208482   -4.8079391    4833.9938            1 
  391000     1.976756   -4.8750567     4878.201       -1e+20 
  392000    1.9500775    -4.828565    4903.2626            1 
  393000    1.9113012   -4.8310567    4875.1761            1 
  394000    1.9349463   -4.8653169    4865.0282            1 
  395000    1.9329105   -4.8910843    4885.4004            1 
  396000    1.9233167   -4.8987377    4866.0355       -1e+20 
  397000    1.9683435    -4.828016    4894.4411       -1e+20 
  398000    1.9439934   -4.8620782    4871.6893            1 
  399000    1.9722932   -4.8413405    4894.5371       -1e+20 
  400000    1.9261865   -4.9224285    4879.1713            1 
  401000    1.9355904   -4.8667616     4877.013            1 
  402000    1.9597605    -4.889728    4869.9295            1 
  403000    1.9422358   -4.8483805     4883.784            1 
  404000     1.948944   -4.8276671    4868.8913            1 
  405000    1.9370413   -4.8287371    4872.9021            1 
  406000    1.9426515   -4.8137878    4889.8597            1 
  407000     1.958368   -4.8878795    4861.9202            1 
  408000    1.9650501   -4.8556221    4898.4036            1 
  409000    1.9822792   -4.8303858    4887.8377            1 
  410000    1.9295922   -4.8482839    4935.3862            2 
  411000    1.9436259   -4.8601006    4860.9596            1 
  412000    1.9351855   -4.8246036    4894.3348            1 
  413000    1.9586117   -4.8327462    4882.5618            1 
  414000    1.9643578    -4.812181    4927.3313            2 
  415000    1.9888415   -4.8893952    4874.9819            1 
  416000    2.0017311   -4.8393018    4901.9845            1 
  417000    1.9349792   -4.8748587    4886.5258       -1e+20 
  418000    2.0061582   -4.8419964    4877.1503            1 
  419000    1.9366225   -4.8607423    4874.0599            1 
  420000    1.9358747   -4.8593352    4877.0105            1 
  421000     1.909482    -4.854258    4860.7801            1 
  422000    1.9438586   -4.8301557    4866.1375       -1e+20 
  423000    1.9120118   -4.8961831    4876.9473       -1e+20 
  424000    1.9508736   -4.8348468    4907.3882            1 
  425000    1.9528822   -4.8899303    4869.7292            1 
  426000    1.9540645   -4.9080153    4833.9229            3 
  427000    1.9629237   -4.8664562    4897.7071            1 
  428000    1.9177048   -4.8924069    4844.9391            1 
  429000    1.9479404   -4.8553077    4927.4848            1 
  430000    1.9677634   -4.8687712    4878.3143            1 
  431000    1.9649806   -4.8398807    4902.7974            1 
  432000    1.9318708   -4.8788039    4859.6723            2 
  433000    1.9639171   -4.8550612    4903.5007            1 
  434000    1.9704396   -4.8573534    4893.3257            1 
  435000    1.9555082   -4.8471094    4884.9772            1 
  436000    1.9175747   -4.8242827    4875.7242            2 
  437000    1.9275577   -4.8623063    4854.5849            1 
  438000    1.9328081   -4.8397693    4881.1398            1 
  439000    1.9243342   -4.8814819    4908.6146            1 
  440000    1.9429026   -4.8811848    4899.2399            1 
  441000     1.937092    -4.865872    4852.7601            2 
  442000    1.9436969   -4.8497599    4886.9435            1 
  443000     1.980774   -4.8914239    4853.7467            1 
  444000    1.9846341   -4.8935082    4892.7743            2 
  445000    1.9615444   -4.8555097    4913.4747            1 
  446000    1.9740049   -4.8566938    4884.5822            1 
  447000    1.9679969   -4.8554845    4900.1832            1 
  448000    1.9350519   -4.8286247    4876.0445            1 
  449000    1.9079388   -4.8520661    4888.4906            1 
  450000    1.9445895   -4.8674433    4876.2373            2 
  451000    1.9711168   -4.8614826    4860.4807            1 
  452000    1.9589226   -4.8639602    4890.7865       -1e+20 
  453000    1.9365373   -4.8827648    4868.4146            1 
  454000    1.9733484   -4.8462005    4852.4973            1 
  455000    1.9510081   -4.8433346     4910.415            2 
  456000    1.9658688   -4.8262253    4864.3679       -1e+20 
  457000    1.9613398   -4.8796478    4884.2399            2 
  458000    1.8853385   -4.8460328    4881.9816            1 
  459000    1.9436815   -4.8699272    4875.6215            1 
  460000    1.9311963   -4.8632791    4870.5134       -1e+20 
  461000    1.9405031   -4.8147507    4920.2445            1 
  462000    1.9591084   -4.8158841    4863.4623            2 
  463000    1.9614027   -4.8296523     4878.928       -1e+20 
  464000    1.9547915   -4.8239729    4901.1271            1 
  465000    1.9454853   -4.8950504    4879.8772            1 
  466000    1.9491123    -4.860165    4873.1927            1 
  467000    1.9419481    -4.862235    4894.8998            2 
  468000     1.980802   -4.8409228     4905.914            1 
  469000    1.9055233   -4.8852912    4883.2136            1 
  470000    1.9340568   -4.8656104    4852.2552            3 
  471000    1.9459198   -4.8744661    4889.4001       -1e+20 
  472000    1.9301774   -4.8301324    4856.9344            1 
  473000    1.9183432   -4.8218623    4881.6975            1 
  474000    1.9537997   -4.8707392    4903.4623            1 
  475000    1.9818734   -4.8832546    4854.2349            1 
  476000    1.9238805   -4.8702732    4871.9325            2 
  477000    1.9527655   -4.8253295     4881.085            1 
  478000    1.9872873   -4.8681486    4849.1984            2 
  479000    1.9598552   -4.8572251     4905.413       -1e+20 
  480000    1.9562592   -4.8585771     4841.744            1 
  481000    1.9622078   -4.8749775    4903.4906            1 
  482000    1.9681368   -4.8786066    4883.8604            1 
  483000    1.9690431   -4.8599732    4859.2031            1 
  484000    1.8961507   -4.8569495    4885.1953            1 
  485000    1.9441841   -4.8749706    4840.4714            1 
  486000    1.9304604   -4.8455275    4878.9299            1 
  487000    1.9610326   -4.8794288     4898.932            1 
  488000     1.944595   -4.8990008     4853.114            1 
  489000    1.9544033   -4.8188046    4887.2616       -1e+20 
  490000    1.9253248   -4.8529677    4881.1378            2 
  491000    1.9679125   -4.8565638    4877.3922            1 
  492000    2.0097014   -4.7916035    4917.1166            2 
  493000    1.9715518   -4.8758945    4894.7915            1 
  494000    1.9328531   -4.8784025    4899.6933            1 
  495000    2.0064863   -4.8485231    4871.4787       -1e+20 
  496000    1.9466778   -4.8729972    4879.8105            1 
  497000    2.0141445   -4.8781268    4870.6873            1 
  498000    1.9234172    -4.778202    4910.1874            1 
  499000    1.9277727   -4.8957553    4874.3422            1 
  500000    1.9402885    -4.873863    4889.7161       -1e+20 
  501000    1.9790649   -4.8289211    4908.1268            1 
  502000    1.9266919   -4.9108815    4886.5987            2 
  503000    1.9673372   -4.8403367    4900.7027            1 
  504000    1.9475534   -4.8809009     4876.524            2 
  505000    1.9559775   -4.8573112    4867.4103            1 
  506000     1.932735   -4.8796245    4863.4795            1 
  507000    1.9500954    -4.849021    4882.3197       -1e+20 
  508000    1.9319622   -4.8486367     4876.159            1 
  509000    1.9378366   -4.8064443    4878.0721            1 
  510000    1.9419659   -4.8200251    4865.3224            1 
  511000     2.016141   -4.8705844    4885.7811            1 
  512000    1.9457195   -4.8775354    4890.5416            1 
  513000    1.9389634   -4.8597183     4867.127            1 
  514000    1.9512411   -4.8729991    4837.8348            1 
  515000    1.9465886   -4.8892226    4887.4452            2 
  516000    1.9609028   -4.8415171    4872.3607            1 
  517000    1.9548862   -4.8360049    4904.2821       -1e+20 
  518000    1.9234297   -4.8741208    4905.4892       -1e+20 
  519000    1.9647002   -4.8078055    4898.5523            2 
  520000    1.9383937   -4.7874902    4905.3818            1 
  521000    1.9286766   -4.8004539    4895.2303            2 
  522000    1.9452958   -4.8881601    4884.1191            1 
  523000    1.9127154   -4.8741275    4889.9384            1 
  524000    1.8875703    -4.883713      4870.74            1 
  525000    1.9681365   -4.8878972    4857.8021       -1e+20 
  526000    1.9427703   -4.8866534     4874.548            1 
  527000    1.9670852   -4.8051298    4877.5535            3 
  528000    2.0038391   -4.8218609    4866.5609            1 
  529000     1.951401   -4.8095956    4892.2719            1 
  530000    1.9592362   -4.8291308    4896.9376            1 
  531000    1.9249971   -4.8521879    4900.2617            1 
  532000    1.9718309   -4.8537776    4922.8106            1 
  533000    1.9312753   -4.8373857    4887.6909            1 
  534000    1.9470175   -4.8699984    4837.5222            1 
  535000    1.9652611   -4.8442768    4886.5514            1 
  536000    1.9329608   -4.8663651    4869.1091            1 
  537000    2.0085377   -4.8602599     4895.915            1 
  538000    2.0047086   -4.8329731    4884.7998            1 
  539000    1.9454938   -4.9047497    4864.3441            1 
  540000    1.9296703   -4.8949591     4867.208            1 
  541000    1.9512128   -4.8557622    4866.1506            1 
  542000    1.9726993   -4.8642396    4879.8153            3 
  543000    1.9487936    -4.855866    4876.1618            1 
  544000    1.9315377   -4.9056843    4858.0969            1 
  545000    1.9352395   -4.8396701    4893.0547       -1e+20 
  546000    1.9867046   -4.8831772    4860.2723            1 
  547000    1.9625176   -4.8656544    4908.2618            3 
  548000    1.9722565   -4.8463734    4881.9412            1 
  549000    1.9343222   -4.8742424     4860.529            1 
  550000    1.9225385   -4.7968111    4881.7419            1 
  551000    1.9989874   -4.8261719    4937.6335            1 
  552000    1.9103051   -4.8481998     4886.187            1 
  553000    1.9529867   -4.8754789    4892.0313            1 
  554000    1.9816017   -4.8727659    4900.0736            1 
  555000    1.9803579   -4.9144787    4890.7858            1 
  556000    1.9256177   -4.8632521    4896.3894            2 
  557000    1.9586417   -4.8908373    4887.7866            2 
  558000    1.9398355   -4.8631547    4872.5597            1 
  559000    1.9734039   -4.8838257    4893.2646            1 
  560000    1.9046552   -4.8839277    4870.3209            1 
  561000    1.9592808   -4.9077511    4879.3403            1 
  562000    1.9572333   -4.8953691    4890.0305            2 
  563000    1.9185823   -4.8699002    4876.1555            1 
  564000     1.953309   -4.8570249    4899.7869            1 
  565000    1.9295787   -4.8208303    4887.0096            3 
  566000    1.9684456   -4.9131083    4862.8303            1 
  567000    2.0219513   -4.8991907    4871.8315            1 
  568000    1.9734995   -4.8745122    4894.6842            1 
  569000    1.9800396   -4.8239491    4862.0218            2 
  570000      1.94397   -4.8346956    4916.6309            2 
  571000    1.9823397   -4.8291694     4870.117            1 
  572000    1.9622404   -4.8494759    4873.1502       -1e+20 
  573000    1.9464564   -4.8264523    4887.2842            2 
  574000    1.9674633   -4.8275759    4891.0536            1 
  575000    1.9544401   -4.8722851    4881.3525            1 
  576000    1.9300009   -4.8673538    4888.9649       -1e+20 
  577000    1.9352148   -4.8613348    4896.8517            1 
  578000    1.9467475   -4.8846458    4886.2848            1 
  579000    1.9350934   -4.8568373    4855.4978            1 
  580000    1.9680893   -4.8335735    4894.0209            1 
  581000     1.953947   -4.8780313    4891.5924            1 
  582000     1.973037    -4.880993     4876.746            1 
  583000    1.9764196   -4.8694186    4876.1976            1 
  584000    1.9637757   -4.8497444    4865.4271            1 
  585000    1.9991263   -4.8339185    4896.5251            1 
  586000    1.9243967   -4.8498863    4908.0576            2 
  587000    1.9790715   -4.8788192    4855.7224            1 
  588000    1.9793284   -4.8543292    4891.5609            1 
  589000    1.9808937   -4.8845756    4879.3409            1 
  590000    1.9587518   -4.8775663    4899.7801       -1e+20 
  591000    1.9570574   -4.8582713    4881.1258            1 
  592000    1.9590966   -4.8643112    4893.7305            1 
  593000    1.9920126   -4.8546578     4900.963            1 
  594000    1.9565626   -4.8325854    4882.1972            1 
  595000    1.9771335   -4.8945248    4886.7436            4 
  596000    1.9434348    -4.812354    4876.3989            1 
  597000    1.9962936   -4.8514498    4897.5372            1 
  598000    1.9522969   -4.8738977    4873.3498            1 
  599000      1.92955   -4.8521656    4908.0947            2 
  600000    1.9496509   -4.9064182    4878.1405            1 
  601000    1.9281573   -4.8922324    4877.4811            1 
  602000    1.9215282   -4.8547528    4883.7288            2 
  603000    1.9302537   -4.9033965    4863.8434            1 
  604000    1.9924088   -4.8686829     4873.864            2 
  605000    1.8988078   -4.9103919    4865.6494            1 
  606000    1.9981708   -4.8001852    4872.7995            1 
  607000    1.9396269   -4.8793169     4884.934            1 
  608000    1.9325526   -4.8205511    4897.0387            2 
  609000    1.9792141   -4.9028807    4875.6563       -1e+20 
  610000    1.9290921   -4.8661756    4879.3934            1 
  611000     1.918081   -4.8553442    4899.5134            1 
  612000     1.994699   -4.8851876     4880.111            1 
  613000    1.9351837   -4.8445359    4875.3513            1 
  614000    1.9592152    -4.905309    4905.2617            1 
  615000    1.9677549   -4.9092518      4894.13       -1e+20 
  616000    1.9615192   -4.8863681    4891.8282            1 
  617000    1.9095176   -4.7583755     4916.937            1 
  618000    1.9299004   -4.8816057    4848.1982            1 
  619000    1.9227866   -4.9020303    4874.0645            1 
  620000    1.9455266   -4.8558078    4881.7719            1 
  621000    1.9476317   -4.8423691    4864.3176            2 
  622000    1.9730549   -4.8800522    4878.5237            1 
  623000     1.900122   -4.8754705    4880.5787            1 
  624000    1.9534226   -4.8149647    4911.7857            1 
  625000    1.9825818   -4.8573945    4902.8753            1 
  626000    1.9713968   -4.8548093    4878.0514       -1e+20 
  627000    1.9504043   -4.8673659    4882.2178            3 
  628000     1.917413   -4.8532429    4850.8075       -1e+20 
  629000    1.9280933   -4.8465787    4897.7695            1 
  630000    1.9200355   -4.7927797    4894.8764            1 
  631000    1.9622999   -4.8762498    4896.7701            1 
  632000    1.9367614   -4.7917906    4921.5725            1 
  633000    1.9386436   -4.8540026    4874.0477            2 
  634000    1.8817503   -4.8825845    4838.5941            2 
  635000    1.9410333   -4.8126919    4898.2256            2 
  636000    1.9738617   -4.8762656    4846.3075            1 
  637000    1.9553106   -4.8334159    4859.5528            1 
  638000    1.9545983   -4.8912302      4860.55            1 
  639000    1.9322993   -4.8463322    4907.2427            1 
  640000    1.9939008   -4.8739359    4831.0767            1 
  641000    1.9813028   -4.9241198    4867.0632            2 
  642000    1.9445796   -4.8383395    4903.8482            1 
  643000    1.9823892   -4.8706048    4861.3159            1 
  644000    1.9565271   -4.8285784    4907.4075            1 
  645000     1.955665   -4.8603779    4867.1706            1 
  646000    1.9298313   -4.8263001    4908.9633            1 
  647000    1.9554453   -4.8376744    4888.9482            1 
  648000    1.9651827   -4.8511202    4881.7586            1 
  649000    1.9090199   -4.9034847    4871.4453            1 
  650000    1.9470137     -4.86543    4868.8314            1 
  651000    1.8977452   -4.8482377    4884.7551            1 
  652000    1.9094254    -4.836815    4876.6923       -1e+20 
  653000    1.9080037   -4.8280657    4873.3586            1 
  654000     1.943284   -4.8673603    4892.5304            1 
  655000     1.948043    -4.908103    4873.1165            1 
  656000    1.9800973    -4.876272    4876.1153       -1e+20 
  657000    1.9534046   -4.8647613    4887.5633            3 
  658000    1.9685382    -4.798929     4895.397            1 
  659000    1.8951936   -4.8382365    4889.5536            3 
  660000    1.9615034   -4.8247691    4874.2911            1 
  661000    1.8973155   -4.8367951    4883.3707            1 
  662000    1.9317611   -4.8806309    4889.6783       -1e+20 
  663000    1.9611297   -4.8354229    4916.6904            2 
  664000    1.9570446   -4.8537305    4886.2474            1 
  665000    1.9041213   -4.8163056    4898.0488            1 
  666000    1.8748572   -4.8599531    4869.5058            1 
  667000    1.9228798   -4.8279123    4899.7425            1 
  668000    1.9229916   -4.8682198    4863.1444            1 
  669000    1.9919929   -4.8947036    4874.5731            1 
  670000    1.9030935   -4.8779224     4850.071            1 
  671000    1.9901979   -4.8808068    4838.8554       -1e+20 
  672000    1.9304339   -4.8643167    4861.5617            1 
  673000    1.9658947   -4.8335093    4907.7686            1 
  674000    1.9625228   -4.9075035    4884.9423            1 
  675000    1.9565271   -4.8471804    4881.2575            1 
  676000    1.9505447   -4.8528314    4867.0765       -1e+20 
  677000     1.940245   -4.8499419    4914.4219            1 
  678000    1.9419512    -4.840603    4865.8738       -1e+20 
  679000    1.9847343   -4.8031176    4916.4124            1 
  680000    1.9873453   -4.8370259    4903.2937            1 
  681000    1.9323224   -4.8515385    4897.4042            2 
  682000    1.9382929   -4.8482235    4882.4269            1 
  683000    2.0003415   -4.8681291     4869.167            1 
  684000    1.9128068   -4.8785554    4876.0537            1 
  685000    1.9467708   -4.8833578    4886.1304            1 
  686000    1.9561124    -4.861229    4866.2001            1 
  687000    1.9593232   -4.8785124    4852.5305            1 
  688000    1.9663688   -4.8724599    4888.6958            1 
  689000      1.94625    -4.809388    4867.2587            1 
  690000    1.9301061   -4.8121678    4876.4298            1 
  691000    1.9302722   -4.8684479    4873.3683            1 
  692000    1.9494991   -4.7960302    4895.9254            2 
  693000    1.9602663   -4.8871694    4864.6695            2 
  694000    1.9927196   -4.8745206    4860.4223            1 
  695000    1.9587061   -4.8873526    4842.5546            1 
  696000    1.9221648   -4.8753856    4904.4534       -1e+20 
  697000    1.9502339   -4.8860296    4881.5643            1 
  698000    2.0274767   -4.8984405    4875.0639            1 
  699000    1.9681802   -4.7896338    4913.8578            2 
  700000    1.9557737   -4.8781265    4866.4688            1 
  701000    1.9518839   -4.7887987    4904.5526            2 
  702000    1.9564911   -4.9066856    4887.8052            1 
  703000    1.9693528    -4.859715    4873.1137            1 
  704000    1.9495602   -4.8249585    4902.7135       -1e+20 
  705000     1.968166   -4.8956352    4844.3433            1 
  706000    1.9386446   -4.8666505    4930.4992       -1e+20 
  707000    1.9889042   -4.8168906    4911.2784            2 
  708000    1.9754669   -4.8737563    4895.0476            1 
  709000     1.958802   -4.8600477    4885.9037            1 
  710000    1.9547215   -4.8402938    4912.2567            1 
  711000    1.9721199   -4.8650624    4884.4001            1 
  712000    1.9584505   -4.8905733     4816.829            1 
  713000    1.9401987   -4.8894382    4875.3228            2 
  714000     1.981551   -4.8168256    4865.8594            1 
  715000    1.9261312   -4.8425861    4901.8979            3 
  716000    1.9679486    -4.935883    4872.8803            1 
  717000    1.9289277   -4.8844352    4845.2322            1 
  718000    1.9920937   -4.8910984    4841.6743       -1e+20 
  719000    1.9777085   -4.8366735    4870.2437            1 
  720000    1.9456356   -4.8650242    4874.9008            1 
  721000    1.9477081   -4.8459817    4894.2518            1 
  722000    1.9753709   -4.9066409    4837.7375            1 
  723000    1.9713151   -4.8167758    4920.6048            1 
  724000    1.9759417    -4.814651    4859.4627            1 
  725000    1.9409619   -4.8708276    4874.1639            1 
  726000    1.9576228   -4.8910307     4892.379       -1e+20 
  727000    1.9670543   -4.8853405    4845.8346            3 
  728000    1.9298634   -4.8389346    4880.0342            1 
  729000    1.9700346   -4.8983659    4856.7266            1 
  730000    1.9374803   -4.9123111    4876.7352       -1e+20 
  731000    1.9572338   -4.8870094     4855.146            1 
  732000    1.9115248   -4.8709831     4827.359            1 
  733000      1.92856   -4.8450352    4885.8156            1 
  734000    1.9932638   -4.8618455    4878.2294            1 
  735000    1.9498274   -4.8738304    4891.9452            1 
  736000    1.8887093   -4.8444395     4883.197            1 
  737000    2.0027585   -4.8194534    4888.4894            1 
  738000     1.958906   -4.8721458    4881.6988            2 
  739000    1.9241649   -4.8732731    4877.8831       -1e+20 
  740000    2.0105069   -4.8771055    4881.7338            1 
  741000    1.9843925   -4.9073292    4854.4696            1 
  742000    1.9460251    -4.902726    4873.0163            1 
  743000    1.9328049   -4.8002782    4892.3356            1 
  744000    1.9522426   -4.8484411    4850.0173            1 
  745000    1.9445215   -4.9012537    4878.6016            1 
  746000    1.9102453   -4.8546771    4870.3341            1 
  747000    1.9360153   -4.8428684    4888.4821            2 
  748000     1.931761    -4.828126    4914.3817            1 
  749000    1.9305668   -4.8748981    4882.9883            1 
  750000    1.9548617   -4.8657309    4874.2859            1 
  751000    1.9462016   -4.8289629    4881.5647       -1e+20 
  752000    1.9534409    -4.907468    4868.4083            1 
  753000    1.9142133   -4.8590369    4903.1864            2 
  754000    1.9429246   -4.8866225    4886.1272            1 
  755000    1.9298499   -4.8359563    4883.6287            1 
  756000    1.9742626   -4.8474669    4904.5916            1 
  757000    1.9527088   -4.8776678    4868.6545            2 
  758000    1.9813412   -4.8701803    4901.1001            1 
  759000    1.9395405   -4.8204139    4878.1022            1 
  760000    1.9293516   -4.8553815    4886.6685            1 
  761000    1.9456005   -4.8675594    4863.2726       -1e+20 
  762000    1.9392081   -4.8335715    4890.5899            2 
  763000    1.9653431   -4.8119353    4873.5897            1 
  764000    1.9191299    -4.834268    4899.3567            1 
  765000    1.9345461   -4.8667264    4868.4716            2 
  766000    1.9579194   -4.8954406    4846.9584            2 
  767000    1.9290264   -4.8440914    4899.9802            2 
  768000    2.0110963   -4.8952879     4862.831            1 
  769000    1.9558174    -4.883802    4879.6173            1 
  770000    1.9505138   -4.8630669    4902.7833            1 
  771000    1.9683579   -4.8866249    4851.8714       -1e+20 
  772000    1.8980854   -4.8910565     4854.354       -1e+20 
  773000    1.9481199   -4.8600389    4906.0409       -1e+20 
  774000    2.0179521   -4.8489247    4880.2241            1 
  775000    1.9620673   -4.8283532    4883.3081            1 
  776000    1.9934499   -4.8942118    4868.4065            2 
  777000    1.9583154   -4.8977744    4826.5167            1 
  778000     1.891482   -4.8538744    4876.5439            1 
  779000     1.958505   -4.8568658    4891.2384            1 
  780000    1.9491542   -4.9018524    4902.8365            1 
  781000     1.965597   -4.8498646    4836.4189            1 
  782000     1.944557    -4.880736    4869.9876       -1e+20 
  783000    1.9597029   -4.8658236    4877.5276            2 
  784000    1.9661516   -4.8667618    4851.3638            4 
  785000    1.9975713   -4.8901968         4859            1 
  786000     1.955282   -4.8258329    4935.3518            1 
  787000    1.9159494   -4.9089588    4862.4897            1 
  788000    1.9577077   -4.8832771    4868.8059       -1e+20 
  789000    1.9315649   -4.8384697    4905.1688            1 
  790000    1.9211559   -4.8515333    4859.2486            1 
  791000    1.9296742   -4.8425758    4863.2432            1 
  792000    1.9440618   -4.8656664    4883.4853            1 
  793000    1.9887804   -4.8899371    4848.8582            1 
  794000    1.9241831   -4.8398059    4874.3839            1 
  795000    1.9370418   -4.8416793    4880.8152            1 
  796000    1.9230713    -4.840637    4885.3936            1 
  797000    1.8997404   -4.8791384    4890.5115            1 
  798000    1.9375607   -4.8636221    4895.6096            1 
  799000     1.981324   -4.8499649    4910.9331            1 
  800000    1.9731813   -4.9205748    4869.0418       -1e+20 
  801000    1.9341234   -4.8860363    4879.4618            2 
  802000    1.9560408   -4.8369236    4828.0074       -1e+20 
  803000    1.9329352   -4.8848062    4877.3417            1 
  804000    1.9989698   -4.8654214    4860.8906            2 
  805000    1.9996115   -4.8461337    4904.6904            2 
  806000    1.9970033   -4.8768175    4904.1173            1 
  807000    1.9282389   -4.8626341    4872.5193            1 
  808000    1.9582755   -4.8112171    4916.4323            2 
  809000      1.93634   -4.8325166    4880.4677            3 
  810000    1.9684715   -4.8446897    4868.5788            1 
  811000     1.958706   -4.8684295    4907.9014            2 
  812000    1.9372512     -4.83632    4922.5925            2 
  813000    1.9918577   -4.8987818    4886.1883            1 
  814000    1.9426261   -4.8618081    4895.7093       -1e+20 
  815000     1.948745   -4.8664339     4870.862            2 
  816000    1.9338443   -4.8768566    4896.2526            1 
  817000    1.9725833   -4.8417434    4872.4647       -1e+20 
  818000    1.9251667   -4.9148006    4897.7245            1 
  819000    1.9568277   -4.8072209    4902.3612            1 
  820000    1.9558966   -4.8802783    4877.7981       -1e+20 
  821000    2.0071799   -4.8219343    4901.5542            2 
  822000     1.957911    -4.877677    4877.6482            1 
  823000    1.9494746   -4.8563396    4880.1967            1 
  824000    1.9616259    -4.860905    4885.1327            1 
  825000     1.949012   -4.8674328    4865.0921            2 
  826000    1.9062713   -4.8247937     4876.683            1 
  827000    1.9577813   -4.8618657    4882.4944            1 
  828000    1.9788648   -4.8682196    4903.4096            1 
  829000    1.9398566   -4.8242563    4892.4303            1 
  830000    1.9499676   -4.8339242    4900.2296            1 
  831000    1.9121225    -4.856298    4848.0378       -1e+20 
  832000    2.0179219   -4.8726459    4864.1923            1 
  833000    1.9864817   -4.8059442    4896.0636            1 
  834000    1.9292446   -4.8737244    4873.5159       -1e+20 
  835000    1.9227653   -4.8221224    4874.3077            2 
  836000    1.9891425   -4.8977415    4899.7581            1 
  837000    1.9635326   -4.8657019    4890.6546            1 
  838000    1.9244258   -4.8005429    4908.3262            2 
  839000    1.9709661   -4.9108184     4857.457            1 
  840000     1.972629   -4.9252576    4852.3914            1 
  841000     1.936943   -4.8462054    4908.8704            1 
  842000    1.9620759   -4.9068532    4853.7326            1 
  843000    1.9583848   -4.8759237     4875.991            1 
  844000    1.9544482   -4.8755112    4862.4513            1 
  845000    1.9479434   -4.8440399    4876.3171            1 
  846000    1.9404762   -4.8511356    4882.6161            1 
  847000    1.9364796   -4.8496178     4887.728            2 
  848000     1.922558   -4.8394904    4866.4503            1 
  849000    1.9665469   -4.7935509    4929.4785            1 
  850000    1.9645789   -4.9076739    4870.7491            1 
  851000    1.9586628   -4.8370071    4882.6274            1 
  852000    1.9798359   -4.8851326    4858.4607            1 
  853000    1.9416085   -4.8336012    4883.3379            1 
  854000    1.9350972   -4.9138998    4894.4898            1 
  855000    1.9148186   -4.8652289    4877.7438            3 
  856000    1.9614542   -4.9159736    4898.2595            1 
  857000    1.9254055   -4.8762777    4881.8656       -1e+20 
  858000    1.9631516   -4.8847674    4863.8725            1 
  859000    1.9341181   -4.8949597    4877.5776            1 
  860000    1.9165632   -4.8876799    4857.5227            1 
  861000    1.9535246   -4.8488745    4898.9403            1 
  862000    1.9024665   -4.8085738    4884.1611            1 
  863000     1.943984   -4.8136839    4894.3651            1 
  864000    2.0342619    -4.850599    4891.1404            1 
  865000    1.9770612   -4.8606119    4893.4951            2 
  866000    1.9107123   -4.9186328    4860.3331            1 
  867000    1.9448565   -4.7978989    4894.4123            1 
  868000    1.9643105   -4.8764182    4872.9826       -1e+20 
  869000    1.9335832   -4.8815781     4891.784            1 
  870000     1.929622    -4.889742    4900.3649            2 
  871000    1.9733377   -4.8427294    4872.1418            1 
  872000    1.9448728   -4.8956344    4874.7369            1 
  873000    1.9602176     -4.84943     4883.686            1 
  874000    1.9800566   -4.8324763    4921.1832            1 
  875000     1.964248   -4.8571701    4879.1809            1 
  876000    1.9184466   -4.8565696    4882.7853            1 
  877000    1.9113282   -4.9209458    4862.9273            1 
  878000    1.9274428     -4.86171    4888.3329            1 
  879000     1.937847   -4.8773772     4885.068            1 
  880000    1.9672712   -4.8422678    4909.0055            1 
  881000    1.9728218   -4.8283225     4901.946            1 
  882000    1.9451028   -4.8472366    4906.0069            1 
  883000    1.9275882   -4.8464793     4869.767            1 
  884000    1.9555671   -4.8817376    4887.4987            2 
  885000    1.9880599   -4.8461545    4885.7442            1 
  886000    1.9381577   -4.8999028    4872.0029       -1e+20 
  887000    1.9565517   -4.8703081     4869.498            1 
  888000     1.954909   -4.8566832    4895.4286       -1e+20 
  889000     1.938684   -4.8742532    4880.3419       -1e+20 
  890000    1.9691435   -4.8382946    4887.9355       -1e+20 
  891000    1.9445953   -4.7800262     4907.943            1 
  892000     1.940269   -4.8817276    4853.6667            1 
  893000    1.9692762   -4.8302215    4895.5342            1 
  894000    1.9403529   -4.8323585    4893.7209            2 
  895000    1.9446129    -4.854312    4935.4185       -1e+20 
  896000    1.9720222   -4.8523649    4911.8023            1 
  897000    1.9465465   -4.8653563    4870.1277            1 
  898000    1.9300322   -4.8576955     4877.176            1 
  899000    1.9509951   -4.8605544    4870.3976            1 
  900000    1.9857506   -4.8546923    4848.8401            1 
  901000    1.9628209   -4.8478457    4870.0782            2 
  902000    1.9305981   -4.8242803    4892.7823            1 
  903000    1.9036384   -4.8937069    4861.3234       -1e+20 
  904000    1.9291717   -4.8499829    4879.2952            1 
  905000    1.9431768   -4.8753561     4897.929            4 
  906000    1.9459438   -4.8372708    4881.9516            2 
  907000     1.925545   -4.8048089    4895.2777            1 
  908000    1.9881093   -4.8790075    4889.0577            3 
  909000    1.9316332   -4.8417858    4895.5357       -1e+20 
  910000    1.9621595   -4.8426039    4866.8513            1 
  911000    1.9776618   -4.8155444    4872.5197            1 
  912000    1.9503801   -4.8263632    4918.1991            1 
  913000    2.0037327   -4.8832008    4872.8465            1 
  914000    1.9339864   -4.8867903    4890.6609            1 
  915000    1.9467551   -4.8830906    4846.0844            1 
  916000     1.916241   -4.8888832    4897.4571            1 
  917000    1.9494875   -4.8454311     4885.876            1 
  918000    1.9525778   -4.8598262    4883.9699            2 
  919000    1.9406843   -4.8347256    4881.5495            1 
  920000    1.9823846    -4.818719    4894.9129            1 
  921000    1.9786488   -4.8458949    4901.5127            3 
  922000    1.9454218   -4.8143679    4894.9236            1 
  923000    1.9606029   -4.8232822    4906.8077            1 
  924000    1.9562042    -4.845941    4880.2909            1 
  925000    1.9619038     -4.88994     4859.012            1 
  926000    1.9710887   -4.8612963    4853.6477            1 
  927000     1.959198   -4.8665553    4851.2422       -1e+20 
  928000    1.9264806   -4.9071002    4866.9635            1 
  929000    1.8998706   -4.8444472    4896.0401            1 
  930000    1.9502626   -4.8445686    4902.1643            1 
  931000    1.9534969   -4.8405353    4888.9041            1 
  932000    1.9928852   -4.8575886    4872.5757       -1e+20 
  933000    1.9458001   -4.8747454    4878.4416            1 
  934000    1.9328507   -4.9001236    4867.6616            1 
  935000     1.938173   -4.8318656    4863.0537            3 
  936000    1.9797097   -4.8899486    4884.5799            1 
  937000    1.9721629   -4.8783873    4856.7745            1 
  938000    1.9511526   -4.8867668    4890.9861       -1e+20 
  939000    1.9526077   -4.8294176    4873.6325            1 
  940000    1.9437506   -4.8251155    4882.4268            1 
  941000     1.971309   -4.8431663    4912.2017            1 
  942000    1.9764232   -4.9015681    4887.7608            1 
  943000    1.9715258   -4.8612729    4869.6115       -1e+20 
  944000    1.9646027   -4.8623176    4886.0447            2 
  945000    1.9789499   -4.8536929    4874.6349            1 
  946000    1.9385467   -4.8959786    4888.8885            1 
  947000    1.9710677   -4.8499375    4899.2715            1 
  948000    1.9628372   -4.8374024    4907.0659            1 
  949000    1.9227776   -4.8653146      4876.34            2 
  950000    1.9708989   -4.7847833    4909.4372            2 
  951000    1.9436668   -4.8811711    4886.1444            2 
  952000    1.9690587   -4.8206283    4874.0125            1 
  953000     1.924598   -4.8693209    4879.5422       -1e+20 
  954000     1.956371   -4.8605861    4891.5834            1 
  955000    1.9153159   -4.8869437    4889.0635            3 
  956000    1.9898602   -4.8735456     4891.129            2 
  957000    1.9462308   -4.8121839    4850.8378       -1e+20 
  958000    1.9382079   -4.8723143     4893.716            1 
  959000    1.9762736   -4.8630952    4890.4249            2 
  960000    1.9143377   -4.8200613    4915.7963            1 
  961000    1.9479337   -4.8713283    4863.8953            1 
  962000    1.9525657   -4.8804011     4868.101            1 
  963000    1.9916205   -4.8513781    4883.3885       -1e+20 
  964000    1.9947736   -4.8686773    4906.1308       -1e+20 
  965000     1.904385   -4.8009595    4877.8502            1 
  966000    1.9900604   -4.8679914    4869.8638       -1e+20 
  967000     1.974704   -4.8421878    4903.9754            1 
  968000    1.9487174   -4.8591697    4923.1815            2 
  969000    1.9021025   -4.7915294    4893.8098            1 
  970000    1.9634742   -4.8406943    4904.5225            3 
  971000     1.921332   -4.8353191    4926.8293            1 
  972000    1.9373036   -4.8170998     4870.887            1 
  973000    2.0000217   -4.8560257    4891.6828            1 
  974000    1.9645129   -4.8713466    4897.0926            2 
  975000    1.9698314   -4.8728481    4860.4743            1 
  976000    1.9745579   -4.8309183    4890.6203       -1e+20 
  977000    1.9673376   -4.7994379     4902.783       -1e+20 
  978000    1.9615139   -4.8555072    4892.8187            1 
  979000    1.8852445   -4.8936756    4863.7523            2 
  980000    1.9650742   -4.8573593    4886.9113            1 
  981000    1.9725351   -4.8452011    4892.1602            1 
  982000      1.93032   -4.9069617    4898.8701            1 
  983000    1.9301471   -4.8857153    4887.0482            1 
  984000    1.9749381   -4.8627995    4884.4999            2 
  985000    1.9598208   -4.7978501    4898.2081            1 
  986000    1.9376137   -4.8967234    4866.4357            1 
  987000    1.9285139   -4.8551695    4848.4311            2 
  988000    1.9605904   -4.9095424    4834.2412            2 
  989000    1.9550277   -4.8750642    4856.1468            1 
  990000    1.9382318   -4.7960885    4885.6405            1 
  991000    1.9705677   -4.8708592    4879.6925            2 
  992000    1.9843689   -4.8565672    4899.3488            1 
  993000    1.9660061    -4.800323    4880.1961            1 
  994000    1.9091023    -4.845576    4921.9645            1 
  995000    1.9489508   -4.8394996    4869.4616            1 
  996000      1.95068   -4.8998454    4886.9391            1 
  997000    1.9242294   -4.8417946    4891.9603            1 
  998000    1.9392996    -4.846854    4867.8343            1 
  999000    1.9413288   -4.8728189    4924.1299            1 
 1000000    1.9629495   -4.8485086    4874.4377            1 
 1001000    1.9590996   -4.9018774    4877.3089            1 
 1002000     1.930604   -4.7952019    4887.8397            1 
 1003000    1.9470497    -4.828369    4894.4302            2 
 1004000    1.9431844   -4.8401424    4919.8211            1 
Loop time of 1986.17 on 48 procs for 1000000 steps with 4000 atoms

Performance: 87001.434 tau/day, 503.481 timesteps/s
99.4% CPU use with 48 MPI tasks x no OpenMP threads

MPI task timing breakdown:
Section |  min time  |  avg time  |  max time  |%varavg| %total
---------------------------------------------------------------
Pair    | 103.66     | 110.68     | 117.54     |  33.4 |  5.57
Neigh   | 20.033     | 20.375     | 20.951     |   4.4 |  1.03
Comm    | 109.12     | 116.53     | 123.66     |  33.7 |  5.87
Output  | 1.1901     | 1.1909     | 1.2094     |   0.2 |  0.06
Modify  | 1716.4     | 1726.1     | 1733.1     |   7.6 | 86.91
Other   |            | 11.31      |            |       |  0.57

Nlocal:        83.3333 ave          91 max          76 min
Histogram: 1 2 6 11 4 5 8 7 2 2
Nghost:        1429.19 ave        1455 max        1404 min
Histogram: 3 1 7 9 4 8 6 5 3 2
Neighs:        7730.65 ave        8670 max        6866 min
Histogram: 1 3 5 9 9 8 5 4 3 1
FullNghs:      15461.6 ave       17019 max       13890 min
Histogram: 1 4 3 8 7 7 7 6 4 1

Total # of neighbors = 742157
Ave neighs/atom = 185.53925
Neighbor list builds = 82493
Dangerous builds = 2172

#clear
#
#next RN
#
#jump SELF
Total wall time: 0:33:07
