
units lj                  # Use reduced LJ style units
atom_style atomic         # Uncharged point particles
atom_modify map hash      # Needed for indexing of clusters etc
                          # Used to be able to find where atoms are in relation to each other.

# Define a lattice with which to populate the simulation cell. With units
# set to 'lj' the second argument to the lattice command is the reduced
# density rho* and the spacings are multiples of that required to acheive
# that density. Also define a simulation cell called 'box' in lattice units
# and fill it with atoms. Here we're creating a box which is ten lattice
# constants in each direction.
lattice fcc 1.0 spacing 1 1 1                 # All equal sizes - gives the right reduced density.
Lattice spacing in x,y,z = 1.5874011 1.5874011 1.5874011

region box block 0 10 0 10 0 10 units lattice # Defines a region, "box", in lattice units
create_box 1 box                              # Creates a simulation box as specified above,
Created orthogonal box = (0.0000000 0.0000000 0.0000000) to (15.874011 15.874011 15.874011)
  2 by 3 by 3 MPI processor grid
                                              # with one type of atom
create_atoms 1 box                            # Creates particles on lattice points
Created 4000 atoms
  using lattice units in orthogonal box = (0.0000000 0.0000000 0.0000000) to (15.874011 15.874011 15.874011)
  create_atoms CPU = 0.001 seconds


# Set the mass of the first (and only) atom type.
mass 1 1.0

# Lennard-Jones interactions between particles, 3.5 sigma cut-off. Apply
# long range tail corrections to energy and pressure and set all coefficients
# to unity since we work in reduced units here. Note that this doesn't shift
# the potential such that it goes to zero at the cutoff. That would require
# pair_modify('shift', 'yes').
pair_style lj/cut  3.5      # non-GPU version
pair_modify tail  yes
pair_coeff 1  1  1.0  1.0   # Intearaction between 1 and 1 set with epsilon = 1 and sigma = 1

write_data data.*
System init for write_data ...
Neighbor list info ...
  update every 1 steps, delay 10 steps, check yes
  max neighbors/atom: 2000, page size: 100000
  master list distance cutoff = 3.8
  ghost atom cutoff = 3.8
  binsize = 1.9, bins = 9 9 9
  1 neighbor lists, perpetual/occasional/extra = 1 0 0
  (1) pair lj/cut, perpetual
      attributes: half, newton on
      pair build: half/bin/atomonly/newton
      stencil: half/bin/3d
      bin: standard

#############################
#   M E L T   S Y S T E M   #
#############################

velocity all create 2.4 6229865 mom yes dist gaussian # Assign velocities
                                                    # Temperature 2.4, random number seed, zero linear momentum
						                                                        # Gaussian distribution

timestep 0.002   # simulation timestep
thermo 100       # output thermodynamic data every 100 steps

# Define a fix  in this case with index 1 applied to all
# particles in the simulation. This fix is for simulations
# in the anisotropic NPT ensemble. Note that we use the MTK
# correction.
fix 1 all npt temp 2.4 2.4 0.1 iso 5.68 5.68 0.5 mtk yes tchain 5 pchain 5 # Use NPT ensemble
                                                                         # Set temperature and pressure and damping
                                                                         # Numbers of thermostats in chain and in barostat
run 1000         # run for 10000 steps
Per MPI rank memory allocation (min/avg/max) = 3.680 | 3.683 | 3.691 Mbytes
Step Temp E_pair E_mol TotEng Press Volume 
       0          2.4   -8.3859253            0   -4.7868253   -2.2405722         4000 
     100    1.2536957    -6.512639            0   -4.6325656     5.478955    4089.9923 
     200    1.4643499   -6.2844612            0   -4.0884856    6.2225923    4132.6721 
     300    1.5613501   -5.9933187            0    -3.651879    5.8912714    4272.8847 
     400    1.6731008   -5.7064704            0   -3.1974466    5.7980079    4409.8935 
     500    1.7993987   -5.4325725            0   -2.7341491    5.8329956     4543.536 
     600    1.8982906   -5.1495669            0   -2.3028429    5.9004247    4690.6414 
     700    1.9845076   -4.8772598            0   -1.9012426    5.8338611    4846.8673 
     800    2.1343222   -4.6883289            0   -1.4876459    5.9300075    4961.2015 
     900    2.2685415   -4.5564143            0   -1.1544528    5.7429537    5072.3143 
    1000    2.3671174   -4.4804745            0  -0.93068614    5.6609343    5154.7975 
Loop time of 0.558986 on 18 procs for 1000 steps with 4000 atoms

Performance: 309131.186 tau/day, 1788.954 timesteps/s
99.7% CPU use with 18 MPI tasks x no OpenMP threads

MPI task timing breakdown:
Section |  min time  |  avg time  |  max time  |%varavg| %total
---------------------------------------------------------------
Pair    | 0.32502    | 0.34234    | 0.36234    |   1.9 | 61.24
Neigh   | 0.0621     | 0.064594   | 0.069108   |   0.7 | 11.56
Comm    | 0.10253    | 0.12211    | 0.13811    |   3.1 | 21.85
Output  | 0.00022393 | 0.00023201 | 0.00029215 |   0.0 |  0.04
Modify  | 0.023569   | 0.026793   | 0.030215   |   1.3 |  4.79
Other   |            | 0.002915   |            |       |  0.52

Nlocal:        222.222 ave         231 max         210 min
Histogram: 3 0 0 2 1 3 2 2 2 3
Nghost:        2031.00 ave        2048 max        2016 min
Histogram: 5 0 1 2 1 2 2 0 3 2
Neighs:        19717.1 ave       21073 max       18338 min
Histogram: 2 1 0 3 2 3 4 0 2 1

Total # of neighbors = 354908
Ave neighs/atom = 88.727000
Neighbor list builds = 86
Dangerous builds = 21

# Equilibrate just above the melting temperature to avoid step fn in T

fix 1 all npt temp 1.25 1.25 0.1 iso 5.68 5.68 0.5 mtk yes tchain 5 pchain 5
run 1000
Per MPI rank memory allocation (min/avg/max) = 3.680 | 3.684 | 3.691 Mbytes
Step Temp E_pair E_mol TotEng Press Volume 
    1000    2.3671174   -4.4804745            0  -0.93068614    5.6609343    5154.7975 
    1100    1.9173858   -4.6307779            0   -1.7554183    5.8554728    4996.3129 
    1200    1.7477579   -4.9829542            0   -2.3619728    5.5796831    4810.9499 
    1300    1.5893104   -5.2408705            0   -2.8575008    5.3451318    4689.7353 
    1400    1.4556711   -5.4006503            0   -3.2176895    5.5642329    4570.8156 
    1500     1.383129   -5.5543358            0   -3.4801609    5.7098519    4482.8499 
    1600    1.3162446   -5.6665882            0    -3.692715    5.5319197    4440.3115 
    1700      1.25084   -5.7143969            0    -3.838606    5.6852524    4398.4145 
    1800    1.2626026   -5.7931589            0   -3.8997285    5.8005288    4354.9947 
    1900    1.2551594   -5.8434232            0   -3.9611548    5.6726084    4344.7346 
    2000    1.2750099   -5.8609224            0   -3.9488856     5.652703    4341.0224 
Loop time of 0.538712 on 18 procs for 1000 steps with 4000 atoms

Performance: 320765.182 tau/day, 1856.280 timesteps/s
99.8% CPU use with 18 MPI tasks x no OpenMP threads

MPI task timing breakdown:
Section |  min time  |  avg time  |  max time  |%varavg| %total
---------------------------------------------------------------
Pair    | 0.32608    | 0.34262    | 0.35298    |   1.3 | 63.60
Neigh   | 0.055017   | 0.056942   | 0.058178   |   0.4 | 10.57
Comm    | 0.10102    | 0.11022    | 0.1247     |   2.1 | 20.46
Output  | 0.0002193  | 0.0002281  | 0.00030107 |   0.0 |  0.04
Modify  | 0.023254   | 0.025403   | 0.029278   |   1.3 |  4.72
Other   |            | 0.003291   |            |       |  0.61

Nlocal:        222.222 ave         236 max         215 min
Histogram: 4 1 4 4 1 1 2 0 0 1
Nghost:        2242.33 ave        2259 max        2218 min
Histogram: 1 1 0 3 1 1 4 3 1 3
Neighs:        23367.4 ave       25065 max       22106 min
Histogram: 2 2 3 2 3 3 0 0 2 1

Total # of neighbors = 420613
Ave neighs/atom = 105.15325
Neighbor list builds = 75
Dangerous builds = 5


# Small amount of linear quench

fix 1 all npt temp 1.25 ${temp} 0.1 iso 5.68 5.68 0.5 mtk yes tchain 5 pchain 5
fix 1 all npt temp 1.25 1 0.1 iso 5.68 5.68 0.5 mtk yes tchain 5 pchain 5
run 2000
Per MPI rank memory allocation (min/avg/max) = 3.680 | 3.684 | 3.691 Mbytes
Step Temp E_pair E_mol TotEng Press Volume 
    2000    1.2750099   -5.8609224            0   -3.9488856     5.652703    4341.0224 
    2100    1.2102495   -5.8307758            0   -4.0158554    5.8232626    4333.4988 
    2200    1.2366069   -5.8838189            0   -4.0293723    5.8303201    4311.3207 
    2300    1.1976853   -5.8802017            0   -4.0841229     5.817397    4311.2574 
    2400    1.1862067   -5.8981402            0    -4.119275      5.61364    4321.4994 
    2500    1.1818547   -5.9060801            0   -4.1337412    5.6918851    4309.8666 
    2600    1.1879383   -5.9694906            0   -4.1880286    5.6871447    4284.8271 
    2700    1.1561477   -5.9785831            0    -4.244795    5.8140617    4270.7783 
    2800    1.1677625   -5.9827714            0   -4.2315655    5.7332204    4274.4641 
    2900    1.1499245   -5.9784428            0   -4.2539872    5.7570718    4274.8843 
    3000    1.1253116   -5.9891414            0    -4.301596    5.8475481    4260.4838 
    3100    1.1252024   -6.0348083            0   -4.3474266    5.8967407    4237.6844 
    3200    1.1163298   -6.0814842            0   -4.4074081    5.7156298    4230.1501 
    3300    1.0636765   -6.0599494            0   -4.4648335    5.6223974    4243.2991 
    3400    1.0980141   -6.1013541            0   -4.4547447    5.5504981    4234.6256 
    3500      1.06337   -6.0943522            0   -4.4996959    5.6486645    4229.9343 
    3600    1.0615561    -6.148563            0    -4.556627    5.5072706    4216.0468 
    3700    1.0571713   -6.1606851            0   -4.5753246    5.6738127    4198.1148 
    3800    1.0394808   -6.1766534            0   -4.6178221    5.7324906    4187.6099 
    3900    1.0172923   -6.1926522            0   -4.6670953      5.74877    4179.6813 
    4000    1.0009906    -6.222306            0   -4.7211955    5.6046775    4177.2925 
Loop time of 1.10338 on 18 procs for 2000 steps with 4000 atoms

Performance: 313217.982 tau/day, 1812.604 timesteps/s
99.8% CPU use with 18 MPI tasks x no OpenMP threads

MPI task timing breakdown:
Section |  min time  |  avg time  |  max time  |%varavg| %total
---------------------------------------------------------------
Pair    | 0.70671    | 0.73356    | 0.75635    |   1.9 | 66.48
Neigh   | 0.095166   | 0.098125   | 0.099847   |   0.5 |  8.89
Comm    | 0.1913     | 0.21395    | 0.23865    |   3.0 | 19.39
Output  | 0.00043249 | 0.0004496  | 0.00056865 |   0.0 |  0.04
Modify  | 0.044584   | 0.049945   | 0.059346   |   2.1 |  4.53
Other   |            | 0.007359   |            |       |  0.67

Nlocal:        222.222 ave         230 max         214 min
Histogram: 1 1 0 4 2 3 5 0 1 1
Nghost:        2303.78 ave        2318 max        2291 min
Histogram: 1 1 5 1 3 2 0 1 3 1
Neighs:        24328.4 ave       25591 max       23016 min
Histogram: 1 2 2 1 4 1 1 2 2 2

Total # of neighbors = 437912
Ave neighs/atom = 109.47800
Neighbor list builds = 125
Dangerous builds = 0

#############################
# F R E E Z E  S Y S T E M  #
#############################

# Define solid atoms. This closely follows ten Wolde  Ruiz-Montero and Frenkel  Faraday Discuss  1996  104  93-110
# Compute components of the per-atom q6 vector
compute q6 all orientorder/atom degrees 1 6 components 6 nnn NULL cutoff 1.3 # compute the Q6 parameter.
                                                                             # Use all neighbours within 1.3 unit cell.

# get number of connections
compute coord_number all coord/atom orientorder q6 0.5

# An atom is solid if it has 8 or more connections (of a possible 14)
variable is_solid atom c_coord_number>=8
group solid dynamic all var is_solid    # Must be dynamic to update
dynamic group solid defined

# do clustering
compute cluster solid cluster/atom 1.3 # Create a cluster where all atoms within are solid and max 1.3 units from another member

# define chunks one chunk per cluster
compute clus_chunks solid chunk/atom c_cluster nchunk every compress yes  # Says which atoms are in which chunk

# count the size of each chunk
compute size_chunks solid property/chunk clus_chunks count


# Find the maximum entry in the vector of chunk sizes
variable max_n equal max(c_size_chunks)


# Thermo style which includes this variable
thermo_style custom step temp pe vol v_max_n

thermo ${N}  # Print the thermo information every 100 steps
thermo 100  

# Reset the npt fix at a lower temperature (below freezing)
fix 1  all npt temp  ${temp} ${temp}  0.1  iso  5.68  5.68  0.5  mtk yes tchain  5  pchain  5
fix 1  all npt temp  1 ${temp}  0.1  iso  5.68  5.68  0.5  mtk yes tchain  5  pchain  5
fix 1  all npt temp  1 1  0.1  iso  5.68  5.68  0.5  mtk yes tchain  5  pchain  5

dump dmp2 all dcd ${N} traj_${rand}.dcd
dump dmp2 all dcd 100 traj_${rand}.dcd
dump dmp2 all dcd 100 traj_462431.dcd


# fix rnuntil all halt ${N} v_max_n >= 3980 error soft message no   # Stop when solidified


run 100000 # 5000000  # Run for this many steps
Neighbor list info ...
  update every 1 steps, delay 10 steps, check yes
  max neighbors/atom: 2000, page size: 100000
  master list distance cutoff = 3.8
  ghost atom cutoff = 3.8
  binsize = 1.9, bins = 9 9 9
  4 neighbor lists, perpetual/occasional/extra = 1 3 0
  (1) pair lj/cut, perpetual
      attributes: half, newton on
      pair build: half/bin/atomonly/newton
      stencil: half/bin/3d
      bin: standard
  (2) compute orientorder/atom, occasional
      attributes: full, newton on
      pair build: full/bin/atomonly
      stencil: full/bin/3d
      bin: standard
  (3) compute coord/atom, occasional
      attributes: full, newton on
      pair build: full/bin/atomonly
      stencil: full/bin/3d
      bin: standard
  (4) compute cluster/atom, occasional
      attributes: full, newton on
      pair build: full/bin/atomonly
      stencil: full/bin/3d
      bin: standard
Per MPI rank memory allocation (min/avg/max) = 9.499 | 9.502 | 9.505 Mbytes
Step Temp PotEng Volume v_max_n 
    4000    1.0009906    -6.222306    4177.2925            4 
    4100   0.98130596   -6.2489191    4175.5985            9 
    4200   0.99402704    -6.257055    4158.7264            6 
    4300    1.0332674   -6.2574386    4163.4011            9 
    4400   0.98407134   -6.2310916    4163.6974            5 
    4500   0.98808404   -6.2638118     4164.653            8 
    4600   0.97825605   -6.2596878    4153.0362            4 
    4700    1.0094873   -6.2667502    4160.1176            6 
    4800   0.98980068   -6.2671824    4145.3357            5 
    4900   0.99420226   -6.2987243    4139.9042            8 
    5000    1.0038233   -6.2450243    4148.8279           11 
    5100   0.99597962   -6.2599791    4148.8077           15 
    5200   0.99429697   -6.2885974    4135.1215           17 
    5300     1.007941   -6.2809898    4144.6136           13 
    5400    1.0112306   -6.2793771    4151.9488            7 
    5500    0.9813657   -6.2696389    4150.0756            7 
    5600   0.99589958   -6.3154236    4144.8037            8 
    5700   0.99853866   -6.2604204    4160.3208            6 
    5800     1.001141   -6.3148962    4158.2693            9 
    5900    1.0055216    -6.297586    4155.0466            9 
    6000    1.0005474   -6.2618958    4161.8926            5 
    6100   0.98777222   -6.2843145    4170.9144            4 
    6200   0.99504042    -6.290559     4160.253            7 
    6300   0.99838055   -6.2734205    4158.8536            6 
    6400   0.99693026   -6.2844299    4148.3415            7 
    6500   0.99825397   -6.2671051     4164.039           10 
    6600    1.0180845   -6.2856699    4164.2039            9 
    6700    1.0171523   -6.2777721    4156.2497            9 
    6800   0.99883443   -6.2132204    4168.6808            4 
    6900   0.99906199    -6.261297    4158.9007            9 
    7000   0.98666247    -6.281477    4156.5742            3 
    7100    1.0032048   -6.2535235    4173.4998            5 
    7200    1.0116633   -6.2715118    4172.2837            5 
    7300   0.98857573   -6.2800623    4163.1322            4 
    7400    1.0007847   -6.2653118    4172.0588            6 
    7500   0.98113577   -6.2284476    4168.2347            4 
    7600   0.98871922   -6.2791514    4155.6832            7 
    7700    1.0065683   -6.2962436    4149.1914            6 
    7800   0.99151411   -6.2540812    4155.8207            2 
    7900    1.0099624   -6.2501606    4173.4583            3 
    8000   0.99005431   -6.2526846    4157.7546            6 
    8100   0.99063746   -6.2731939    4162.4528            5 
    8200     1.007854   -6.2603124    4166.6926            6 
    8300   0.98604214   -6.2744549    4157.1207            4 
    8400   0.99727984   -6.2569634     4163.209            6 
    8500    1.0199135   -6.2485237    4171.2889            5 
    8600   0.98958717   -6.2374588    4156.4348           13 
    8700    1.0121435   -6.2724122    4150.8631            8 
    8800    1.0014404   -6.2785365    4163.3557            8 
    8900   0.99759148   -6.2479339    4161.3745            6 
    9000   0.98388665   -6.2443213    4155.7196            4 
    9100    1.0330004   -6.3146135    4157.5812            7 
    9200   0.97937561   -6.2782775    4146.7446            5 
    9300    1.0011175   -6.2775769    4167.0788            6 
    9400   0.98979106   -6.2580523     4169.702            7 
    9500   0.99601383   -6.2952412    4164.9612            7 
    9600   0.99341691   -6.2829098    4150.9088            5 
    9700    1.0073334     -6.26964    4162.4939            7 
    9800    1.0170694   -6.2605648    4166.6306           11 
    9900   0.98308835   -6.2594549    4151.5646            5 
   10000    1.0111579   -6.2964447    4153.4589            9 
   10100    1.0192988   -6.2549647    4153.5844            3 
   10200   0.99861653   -6.2510932    4158.0263            6 
   10300   0.97812236   -6.2595836    4149.3351           17 
   10400   0.99879931   -6.2437812    4153.3941            9 
   10500   0.99291131   -6.2463819     4161.063            6 
   10600   0.99385333   -6.2387445     4153.828            5 
   10700    1.0329535   -6.2830336    4145.1491            5 
   10800    1.0157211   -6.2788018    4149.7142            9 
   10900    1.0097007   -6.2407061    4147.8161            9 
   11000   0.98767951   -6.2632551    4147.8838           10 
   11100     1.010366   -6.2749015    4150.7207            5 
   11200   0.99202953   -6.2897306    4149.5908           11 
   11300    1.0383427   -6.2979721    4152.2719           11 
   11400   0.99538444   -6.2712045    4155.7428            6 
   11500    0.9936482   -6.2655045    4152.0142            6 
   11600    1.0178466   -6.2604875    4154.4501            6 
   11700    1.0045313   -6.2854726    4141.7516            7 
   11800   0.99921898   -6.2915106    4140.4803            6 
   11900    1.0070305   -6.2660352    4149.3138            7 
   12000    1.0109349   -6.2661058    4153.6504            4 
   12100    1.0091072   -6.2762266    4132.9363            5 
   12200   0.99972774   -6.2536688    4134.3731           14 
   12300   0.99032006   -6.2325299    4153.2557            5 
   12400   0.99019614   -6.2831299    4149.4549            7 
   12500   0.99538127   -6.2791753     4149.195            9 
   12600    1.0258001   -6.2785689    4151.1007           11 
   12700    1.0062135   -6.2915357    4152.4792            6 
   12800   0.99922409   -6.2436275    4155.5282            6 
   12900   0.99471593   -6.2384276    4165.1563            4 
   13000   0.98899867   -6.2890057    4149.7539            5 
   13100   0.98929424   -6.2837691    4154.5192            4 
   13200    1.0015061   -6.2517328    4160.5558            2 
   13300    1.0011024   -6.2771806    4149.8786            4 
   13400    1.0105986   -6.2812857    4148.0454            7 
   13500    1.0199966   -6.2533262     4145.708            4 
   13600   0.98939509   -6.2550724    4134.8885            5 
   13700    1.0263643   -6.2700744    4137.8107            5 
   13800    0.9937883   -6.2546453     4145.173            5 
   13900    1.0219495   -6.2749304     4145.017            8 
   14000   0.99335508   -6.2656762    4144.4512            6 
   14100   0.99698639   -6.2787738    4139.3106           12 
   14200    1.0000551   -6.2720624    4140.0299           15 
   14300    1.0168668   -6.2627181     4134.413            7 
   14400   0.99402981   -6.2595741    4132.8037            3 
   14500    1.0289351   -6.2650847     4145.449           13 
   14600   0.99247178   -6.2561643    4144.8905            6 
   14700   0.99128031   -6.2634594    4148.2173            6 
   14800    1.0014327   -6.2837695    4140.2658            4 
   14900    1.0201358   -6.2666923    4154.6764            4 
   15000    1.0049379    -6.256753    4154.1926            6 
   15100   0.99891361   -6.2788968    4156.8045           11 
   15200    1.0012606   -6.2281339    4164.0585            7 
   15300   0.99098508   -6.2454141    4176.6691            4 
   15400    1.0132431   -6.2347749    4183.1677            5 
   15500   0.99615688   -6.2695819     4165.245            7 
   15600   0.99257957   -6.2903598    4159.3806            5 
   15700   0.98446937   -6.2909998    4155.8434            4 
   15800    1.0011057   -6.2605653    4157.7067            5 
   15900   0.99823862   -6.2645447    4170.1547            6 
   16000    1.0121104   -6.2410596    4173.0901            5 
   16100   0.98937418   -6.2504396    4160.1596            6 
   16200   0.99424746   -6.2491594    4164.4139            3 
   16300   0.99113747   -6.2405668    4163.3448            5 
   16400    1.0145364   -6.2863162    4155.3707            5 
   16500    1.0039496   -6.2837686    4162.4374            8 
   16600    1.0333663   -6.2769494    4155.3877            4 
   16700     1.004044   -6.2656652    4156.7813            4 
   16800    0.9769417   -6.2431178     4163.767            5 
   16900    1.0141123   -6.2731333    4156.8453            5 
   17000   0.99539289   -6.2223613    4155.8275           13 
   17100   0.99209264    -6.260004    4151.9366           11 
   17200   0.98496407   -6.2547296    4146.1636            8 
   17300    1.0136622   -6.2666394    4157.3796           20 
   17400   0.98459404     -6.27048    4153.2826            9 
   17500   0.97030571   -6.3010605    4150.4024            9 
   17600   0.99904422   -6.2919647     4166.519           10 
   17700   0.99383979   -6.2909221    4160.5303            8 
   17800   0.98900808    -6.266413    4150.8242            7 
   17900    1.0125439   -6.2607304    4154.4916           15 
   18000   0.99265228   -6.2921749    4148.9822            9 
   18100    1.0092262   -6.2804183    4150.2791            8 
   18200   0.99350231   -6.2948588    4148.1231           10 
   18300   0.99995366   -6.3025533    4141.0969            5 
   18400    1.0148967   -6.2881432    4153.5564            9 
   18500    0.9714329    -6.239257    4158.8008            8 
   18600    1.0135968   -6.2480882    4171.2229            7 
   18700   0.98315291   -6.2552283    4153.7036            5 
   18800   0.99769008    -6.271471    4149.4231            8 
   18900    1.0195435   -6.2625553    4149.6378            7 
   19000   0.99975038   -6.2480918    4147.8349           15 
   19100    1.0191046   -6.2818471    4150.1332            7 
   19200     1.008325   -6.2585557    4148.3913            9 
   19300    1.0117416   -6.2792855    4146.3537           12 
   19400    1.0009885   -6.2977348    4135.8028            7 
   19500   0.98435841   -6.2910092    4135.3457            7 
   19600   0.99360122   -6.2814955    4157.7332           10 
   19700     1.013651   -6.2685112    4147.2208           10 
   19800    1.0035966   -6.2506663    4148.8442            4 
   19900    1.0189596   -6.2706063    4158.4959            4 
   20000   0.99616326   -6.2782138      4140.32            8 
   20100   0.99593104   -6.2791459    4143.2083            6 
   20200    1.0165728    -6.262578    4159.0062            3 
   20300     1.001056   -6.2452279    4155.1454            4 
   20400   0.99378052    -6.261598    4149.7468            5 
   20500   0.98106147   -6.2652006    4148.8038            7 
   20600    1.0073205    -6.287942     4152.703            8 
   20700   0.98469461   -6.2676779     4158.996           16 
   20800    1.0028946   -6.2756106    4157.3299           14 
   20900    1.0130003   -6.2534613     4170.769            9 
   21000    1.0127089   -6.2514145    4167.8466            8 
   21100   0.99918496   -6.2739969    4164.2494            5 
   21200   0.98354517   -6.2765457    4150.1298            7 
   21300   0.99695654   -6.2921326    4150.0183            9 
   21400    1.0025042   -6.2628571    4159.2607            8 
   21500    1.0012971   -6.2430133    4155.9073           10 
   21600   0.99540314   -6.2489732    4144.2748           11 
   21700   0.98769617    -6.271564    4139.6967            9 
   21800    1.0143217    -6.292264    4151.6384            7 
   21900    1.0021026   -6.2769305    4154.5813           10 
   22000   0.99596394   -6.2653383    4150.2768            9 
   22100   0.97848455    -6.263241    4144.5997            8 
   22200   0.98030718   -6.2785045    4148.3253            8 
   22300   0.99572784   -6.2451195    4164.7909            5 
   22400    0.9943848   -6.2453249    4169.3906            6 
   22500   0.98072656   -6.2563927    4156.0991            7 
   22600    1.0101869   -6.2431228    4154.3229            5 
   22700    1.0058148   -6.2461525    4155.5737            4 
   22800    1.0094314   -6.2586459    4144.6035           11 
   22900    0.9964854   -6.2705634    4137.8002            5 
   23000   0.99110663   -6.2579015    4150.0149           10 
   23100    1.0225536    -6.278382    4151.4039            9 
   23200    1.0006522   -6.2609838     4139.083            3 
   23300    1.0101956   -6.2809465    4140.1755            5 
   23400    1.0162514   -6.2549772    4155.4176            8 
   23500    1.0017245     -6.28602    4145.7149           10 
   23600    1.0093194   -6.3031231    4153.6228            8 
   23700    0.9897635   -6.2366863    4165.1872            3 
   23800   0.98541139   -6.2237536    4167.7549            6 
   23900   0.98148985   -6.2656895    4156.0967            6 
   24000    1.0095974   -6.2921707    4156.9258           13 
   24100   0.96393057   -6.2722356    4153.6081            5 
   24200    1.0133312   -6.2942436    4157.3044            3 
   24300    1.0105607   -6.2835309    4155.3522            3 
   24400    1.0116689   -6.2674694    4149.7464            3 
   24500    1.0094811   -6.2590102    4159.4187            3 
   24600   0.99408147   -6.2904749     4147.777            5 
   24700   0.99687046   -6.2646635    4150.5719            5 
   24800   0.99792523    -6.246038    4154.4827            3 
   24900    1.0019805   -6.2670098     4147.406            6 
   25000    1.0065726   -6.2910254    4147.6843            5 
   25100     1.007179   -6.2436173    4169.4816            6 
   25200   0.99899855   -6.2567386     4164.538            7 
   25300    1.0084225   -6.2955397    4149.4745            8 
   25400   0.98484277   -6.2649416    4156.1842           13 
   25500    1.0087534   -6.2949487    4160.8857            8 
   25600    0.9803954   -6.2928586    4154.0169            6 
   25700   0.99577308   -6.2816317     4149.247           10 
   25800   0.99654896   -6.2562073    4148.7561            7 
   25900     1.014163   -6.2481144    4150.8913            7 
   26000   0.99589077   -6.2524412    4146.5349            9 
   26100    1.0230583   -6.2988706    4149.9018            7 
   26200    1.0110706   -6.2710513    4153.5926            7 
   26300   0.97234386   -6.2702244    4156.1255            3 
   26400    1.0084654   -6.2797357    4166.7528            8 
   26500   0.97391993    -6.279664    4160.3118           17 
   26600   0.98960292   -6.2692663    4162.7091            5 
   26700   0.99890107   -6.2580507    4164.9886            2 
   26800    1.0113465   -6.2556311    4160.0578            7 
   26900    1.0018029     -6.24704     4156.324            5 
   27000   0.99174932   -6.2746724    4153.1754            7 
   27100    0.9980649   -6.2976911    4151.6936            7 
   27200    1.0085966   -6.2710798    4157.7435            5 
   27300    1.0201281    -6.282712    4162.9049           10 
   27400   0.99704886   -6.2898971    4155.3974            3 
   27500   0.98846058   -6.2798003    4167.7385            3 
   27600    1.0048782   -6.2720462    4165.2562            5 
   27700   0.98111452   -6.2908557    4159.1862            5 
   27800   0.98979622   -6.2598947    4167.2835            5 
   27900    1.0256479   -6.2892774    4167.0094            6 
   28000   0.97800408   -6.2631943    4153.0718            6 
   28100    1.0051986   -6.2814466    4155.0977            7 
   28200    1.0025596   -6.2348263    4175.3915           10 
   28300   0.99783779   -6.2561675    4163.5699           20 
   28400   0.99705255   -6.2776126    4152.3392           11 
   28500    1.0147192   -6.2591813     4158.059            5 
   28600    1.0034944   -6.2723636     4159.437            6 
   28700    0.9931134   -6.2689736    4153.4389            3 
   28800   0.99619377    -6.246343    4171.3869            8 
   28900    1.0083323   -6.2668968    4167.0796            5 
   29000    1.0053246   -6.2882098    4150.6521            8 
   29100   0.98081211   -6.3113112    4136.3327           16 
   29200    1.0006144   -6.3195723    4139.6435           18 
   29300    1.0017226   -6.3006403    4138.0613           26 
   29400    1.0022089   -6.2543256    4159.7259           20 
   29500    1.0065527   -6.2806563    4159.9143           14 
   29600    0.9955483   -6.3011471    4140.5069           16 
   29700    1.0014425   -6.3095078    4150.4234            6 
   29800    0.9995696   -6.2667172    4168.5491            4 
   29900    1.0110693   -6.2810321    4169.4084            4 
   30000   0.99852297   -6.3035681    4161.4025            7 
   30100    1.0115967   -6.2960003    4163.4476            3 
   30200      1.00218   -6.2693328    4165.0053            5 
   30300   0.99849159   -6.2899892    4149.5525            4 
   30400    1.0080456   -6.3042348    4145.5135            4 
   30500    1.0001389   -6.2572593    4157.6701            8 
   30600    1.0130276   -6.2715813    4156.3386            6 
   30700    1.0048769   -6.2969335    4143.3051            6 
   30800   0.98816535   -6.2672606    4142.6856            4 
   30900    1.0035057   -6.2648128      4152.07            4 
   31000    1.0042949   -6.2499051    4145.6953            3 
   31100    1.0008767   -6.2840271    4127.1223            4 
   31200    1.0200076    -6.298629    4128.6883            4 
   31300    1.0095573   -6.2734479    4140.8595            8 
   31400    1.0047956   -6.2829448    4144.6838            6 
   31500   0.97569964   -6.2874763    4151.3529            8 
   31600   0.99343545   -6.2662684    4160.0507            6 
   31700      1.00152   -6.2629335    4153.3394            4 
   31800    1.0156954   -6.2622048    4148.6727            4 
   31900    1.0073962   -6.2911416    4143.1085           11 
   32000   0.98477211   -6.2935301    4133.4908            5 
   32100    1.0054444   -6.2901196    4144.0925            5 
   32200   0.99562659   -6.3003789    4146.8144            5 
   32300   0.99260606   -6.2835009    4145.3072            6 
   32400    1.0081683   -6.2619364    4151.7525            9 
   32500    1.0001164   -6.2983016    4137.5885            5 
   32600   0.98768465    -6.305107    4138.1703            5 
   32700    0.9965237    -6.294212    4154.0935            5 
   32800   0.99597823   -6.2887417    4160.7604            8 
   32900     1.001487   -6.2595754    4163.8989           11 
   33000   0.99279899   -6.2793313    4152.8374            9 
   33100    1.0005002    -6.299266    4147.0085            6 
   33200    1.0067649   -6.2821662    4144.4822            6 
   33300    1.0060903    -6.291179    4153.5774            8 
   33400    0.9950285   -6.3081691     4149.502            8 
   33500   0.99926599     -6.27307    4146.8052            8 
   33600    1.0379534   -6.2734584    4153.2271            7 
   33700   0.99476419   -6.2467188    4140.4368            8 
   33800    1.0158429   -6.2772415    4140.1764            5 
   33900   0.98642629   -6.2556623    4147.0832            7 
   34000     1.012133   -6.2588292    4148.6554            8 
   34100    1.0008431    -6.269245    4149.7419            9 
   34200    1.0063208   -6.2937956    4145.4787           12 
   34300    1.0077058   -6.2943595    4143.1197            5 
   34400    1.0024871    -6.249477     4159.604            5 
   34500   0.99856793   -6.2638622    4150.2353            7 
   34600   0.98454593   -6.2771654    4145.5526            6 
   34700    1.0200585   -6.2707345    4148.6165            6 
   34800   0.98651864   -6.2764345    4152.0938            6 
   34900   0.98758861   -6.2893382     4148.543           10 
   35000   0.98265644   -6.2800411    4137.6728           13 
   35100    1.0168939   -6.2818685    4144.5078            6 
   35200    1.0245629   -6.3200798    4145.3509            6 
   35300    0.9778057   -6.3034446     4139.282            7 
   35400    1.0080932   -6.2913201    4142.1639            5 
   35500    1.0359272   -6.2884806    4151.2541            6 
   35600   0.98593703   -6.2675755    4140.0116           14 
   35700    1.0077847   -6.2910941    4139.3166            9 
   35800    1.0249654   -6.2616243    4157.4043            7 
   35900    1.0102634   -6.2629718    4151.0125            7 
   36000    1.0066202   -6.2895338    4139.9834            9 
   36100    1.0041796    -6.273015     4134.011           11 
   36200   0.99378497    -6.295604    4139.9465            8 
   36300   0.99942905   -6.3010453    4147.9783            9 
   36400    0.9884583   -6.2568383    4161.5855           12 
   36500    1.0136458   -6.2401779    4157.9535           10 
   36600   0.98400205   -6.2519143    4152.1081           11 
   36700    1.0080715   -6.2876766    4152.3601            8 
   36800   0.98599688   -6.2616201    4153.7207            3 
   36900    1.0092884    -6.255602    4159.8168            4 
   37000   0.99864298   -6.2382523    4157.0854            6 
   37100   0.99336486    -6.262076    4146.1809            4 
   37200    1.0103205   -6.2338227     4152.487            7 
   37300     1.027663   -6.2420583    4166.5478            4 
   37400    1.0113862    -6.231131     4161.817            4 
   37500   0.98317094   -6.2340738    4160.5455           16 
   37600    1.0201939   -6.2752799    4168.1678           12 
   37700   0.99770087   -6.2667323    4159.1092           11 
   37800   0.97533389   -6.2495533    4161.0004            6 
   37900    1.0140839   -6.2515528    4153.8427            4 
   38000   0.99015732    -6.250996    4154.9754            5 
   38100    1.0318547    -6.261098     4163.992            6 
   38200    1.0095973   -6.2725211    4157.0213            4 
   38300    0.9932352    -6.291172     4154.211            9 
   38400   0.98312035   -6.2895324    4157.8501           12 
   38500    1.0078791   -6.2944302    4168.4082           10 
   38600   0.96997594   -6.2929692    4156.2781           10 
   38700   0.98320705   -6.2775784    4158.5919            3 
   38800   0.99563614   -6.2819476    4161.9094            4 
   38900   0.99854929   -6.2743958    4164.9072            4 
   39000    1.0049958   -6.2528318     4172.657            7 
   39100   0.98941944    -6.269641    4166.0067           12 
   39200   0.98199446    -6.302265    4158.5925           10 
   39300   0.99981726   -6.2725101    4150.1786            8 
   39400     1.007702   -6.2921615    4145.1437           10 
   39500   0.98180362   -6.2969635    4144.5292            8 
   39600   0.99629826   -6.2943764    4136.4213            7 
   39700    0.9918007   -6.2665118    4133.7425            9 
   39800    1.0222287   -6.2631961    4147.9486            5 
   39900   0.98392545   -6.2561853    4154.4594            4 
   40000    1.0467439   -6.2842057    4164.9667            8 
   40100   0.99084821   -6.2413082    4156.5686            6 
   40200    1.0019076   -6.2790656    4153.0815           21 
   40300   0.97167045   -6.2852201     4140.962            6 
   40400   0.99124729   -6.2895023    4149.4883            8 
   40500    1.0047884   -6.2617879    4146.5335            3 
   40600    1.0043278    -6.316642    4138.9029            5 
   40700   0.99978371   -6.2804923    4136.0342            9 
   40800   0.99747481   -6.2684296    4141.4445            9 
   40900    1.0218841   -6.2672477    4148.2798            6 
   41000    1.0104163   -6.2888254    4135.8397            5 
   41100    1.0102494   -6.2575307    4139.1923            4 
   41200    1.0233254   -6.2723507    4144.8875            9 
   41300   0.99069089    -6.271607     4141.569            9 
   41400   0.99560627   -6.3030682    4140.0991            8 
   41500    1.0134711   -6.2917235     4139.014            7 
   41600    1.0081699   -6.2700138    4148.1524            4 
   41700    1.0086632   -6.2504799    4145.5345           12 
   41800    1.0033746   -6.2631112    4164.0613           20 
   41900   0.97489674   -6.2580486    4152.5748           12 
   42000    1.0125745   -6.2714666    4159.9841           11 
   42100   0.97390081   -6.2731515     4150.041            6 
   42200      1.00716   -6.2950171    4144.0991            7 
   42300   0.99586351   -6.2778973    4153.8826            7 
   42400    1.0020193   -6.2432731    4154.5515            9 
   42500   0.98129553   -6.2766142    4157.2444            5 
   42600   0.97416194   -6.3011638    4147.6317            8 
   42700   0.99911781   -6.2829391    4158.7935            6 
   42800    1.0064864   -6.2665629    4162.9365            3 
   42900   0.97584928   -6.2525367    4155.6908            8 
   43000    1.0157558   -6.2611856    4157.2083            5 
   43100     1.003014   -6.2336095    4154.4354           10 
   43200    1.0019843   -6.2457239    4151.0063            5 
   43300    1.0159676   -6.2551999    4164.0791            9 
   43400    1.0011672   -6.2409902    4168.3375            4 
   43500    1.0108944   -6.2975271    4152.5543           12 
   43600   0.99915847   -6.2776123     4141.938           12 
   43700   0.97152771   -6.2785191    4153.4367            6 
   43800   0.99970373   -6.2600156    4156.4215            6 
   43900   0.97170888    -6.252879    4158.2182            7 
   44000     1.002741   -6.2803095    4146.7828            4 
   44100    1.0053133   -6.2441746    4150.9147            6 
   44200   0.98919764   -6.2506372     4156.041            6 
   44300    1.0031294   -6.2307704    4169.0054            6 
   44400   0.97769572   -6.2413455    4163.8793            7 
   44500    1.0012782   -6.2465773    4161.5415           10 
   44600    1.0097081   -6.2753977    4155.2714            4 
   44700    1.0112867   -6.2946572    4155.5166            5 
   44800   0.99765322   -6.2901861    4149.6601            8 
   44900    1.0061309   -6.2809982    4155.4819            8 
   45000   0.99144039     -6.24909     4170.378            9 
   45100   0.99664092   -6.2701208    4168.7077            6 
   45200    1.0028103   -6.3092187     4153.066            3 
   45300    1.0075617   -6.2809602    4153.0904            6 
   45400    0.9956832   -6.2611769    4164.1008            7 
   45500    1.0142968   -6.2687754    4162.4727            4 
   45600   0.99376206   -6.2885631    4153.4348            6 
   45700   0.98917631   -6.2893522    4163.3088            6 
   45800   0.99745591   -6.2897318    4156.5095            9 
   45900      1.00564   -6.3169015     4155.576            9 
   46000   0.99124748   -6.2895986    4158.6275            6 
   46100   0.99786596   -6.2681076    4163.5378            4 
   46200   0.98582551   -6.2791483    4150.6902            8 
   46300   0.99911508   -6.2691884    4149.1183           21 
   46400    0.9975762   -6.2563069    4154.4646           11 
   46500   0.99069016    -6.260865    4154.2693            8 
   46600    1.0178019   -6.2457588    4155.7766            8 
   46700   0.99214003   -6.2214743    4145.5037            8 
   46800    1.0023564   -6.2669317    4128.3673            9 
   46900    1.0133239   -6.3053545    4126.5461            6 
   47000    1.0145847   -6.2892619    4150.1429           10 
   47100   0.99166031   -6.2560745    4150.6779           10 
   47200   0.99259244   -6.2761506    4150.2327           15 
   47300     1.000556   -6.2831636    4148.2832           12 
   47400    1.0035594   -6.2649758    4153.9984            7 
   47500   0.98993435   -6.2627268    4155.9125            7 
   47600   0.99037046    -6.261561     4156.923            5 
   47700    1.0041076   -6.2618131    4158.2716            5 
   47800    1.0110962   -6.2674898    4156.1949            5 
   47900    1.0170178   -6.3222162    4138.1498            8 
   48000    1.0030902   -6.2891161    4141.4237            7 
   48100   0.98915321   -6.2618075    4147.8649            7 
   48200   0.97222577   -6.2901111    4156.7868            7 
   48300    1.0096104    -6.287739    4156.1266            5 
   48400   0.99092851   -6.2822819    4147.2164            9 
   48500   0.99076735   -6.3126215    4143.7631            9 
   48600    1.0091073   -6.2955336    4164.0887            5 
   48700   0.98960179   -6.2708092     4159.446            8 
   48800    1.0077281    -6.316042    4149.6466            8 
   48900   0.98038179   -6.2880228    4148.0495            4 
   49000   0.99375734   -6.2709642    4159.7342            9 
   49100    0.9697583   -6.2603811    4161.4225            9 
   49200   0.99543981   -6.2798566    4152.9538           10 
   49300   0.99834626   -6.3174978    4146.9823           12 
   49400   0.99670867   -6.2716163    4161.2095            5 
   49500   0.99762762   -6.2839114    4154.9077            6 
   49600    1.0112439    -6.304701    4154.6439            8 
   49700    1.0113875   -6.2535186    4159.2301            9 
   49800   0.98760941   -6.2364004    4152.2254            7 
   49900   0.99145475   -6.2501499    4152.3041            6 
   50000   0.99995347   -6.3057079    4146.7448            9 
   50100    1.0067315   -6.2980934    4144.7226            2 
   50200    1.0196829   -6.2588153    4160.2747            7 
   50300   0.99613984   -6.2525373     4157.237            6 
   50400   0.98568867   -6.2593704    4153.7756            4 
   50500    1.0083683   -6.2679574    4162.5573           15 
   50600    1.0036572   -6.2710965    4164.6768           10 
   50700   0.99242529   -6.2880248    4155.8429            7 
   50800    1.0173551   -6.2997993    4157.8297            7 
   50900    0.9709142   -6.2767482     4150.319            3 
   51000   0.99971795   -6.2740349    4143.8138           17 
   51100   0.96978221    -6.293574    4144.6002            7 
   51200    1.0070585   -6.3167058     4143.992            9 
   51300    1.0183444   -6.2992578    4144.4682            6 
   51400    1.0171269    -6.300466    4138.1926           12 
   51500    0.9895108   -6.2959886    4126.2032            8 
   51600    1.0079199   -6.2743694    4144.5268            6 
   51700    1.0000242   -6.2684152    4153.0503            7 
   51800   0.98079506   -6.2729518    4155.6932            4 
   51900   0.97272918   -6.2628903    4144.2368           13 
   52000    1.0176042   -6.2814103     4163.089            6 
   52100    1.0047131    -6.293286    4154.3661            7 
   52200    0.9846019   -6.3045924    4160.8154            8 
   52300   0.99835437    -6.275404    4166.4226            7 
   52400    1.0044499   -6.2851572    4164.7421           10 
   52500   0.96966174   -6.2547851    4168.3509           10 
   52600   0.99380187   -6.2703494    4170.8387           19 
   52700    1.0165074   -6.2950799    4158.4837            8 
   52800    0.9924834   -6.3121344      4138.88            6 
   52900   0.99729497    -6.292152    4143.2315            6 
   53000    1.0061267   -6.2756303    4152.2547            3 
   53100     1.004491   -6.2607663     4161.617            4 
   53200    1.0062691   -6.2353607    4175.0626            3 
   53300    0.9927945   -6.2512131    4163.8848           10 
   53400   0.96637888   -6.2777373    4151.1927            5 
   53500   0.99970668   -6.2846799    4150.1981            6 
   53600    1.0044262   -6.2593043    4157.7653            5 
   53700   0.99462075   -6.2284486    4162.4921            6 
   53800   0.98053457   -6.2539196    4151.2258            9 
   53900     1.013511   -6.2847133    4149.5683            6 
   54000     1.001405   -6.3278146     4139.459           10 
   54100   0.99723308   -6.3015777    4145.6084            9 
   54200   0.99185461   -6.2736141    4153.8666            6 
   54300    1.0110755   -6.2853133    4158.7595            7 
   54400    1.0061519   -6.2789232     4138.942           12 
   54500    1.0088596   -6.3179167    4138.0001            8 
   54600    1.0175237   -6.2729472    4146.4738            4 
   54700    1.0166978   -6.2721095    4146.1239            3 
   54800   0.98134689   -6.2746698    4143.5325           16 
   54900   0.99920272   -6.2649074    4153.8051            7 
   55000     1.017954   -6.2487546    4161.6449            7 
   55100    1.0032561   -6.2499855    4147.7856            6 
   55200    1.0084975    -6.263781    4156.5216            4 
   55300    1.0075676   -6.2829443    4153.1511           10 
   55400   0.99357674   -6.2755761    4147.2258           11 
   55500   0.99146329    -6.252201    4149.7799           11 
   55600    1.0046704   -6.2725529    4147.3905            7 
   55700    1.0009238   -6.3042734    4139.5795            8 
   55800   0.98654975   -6.3019576    4143.0967            5 
   55900   0.99712757   -6.2592329    4148.8295            4 
   56000    1.0096691   -6.2626328    4152.8513            9 
   56100    1.0196689     -6.27044    4150.4416            5 
   56200    1.0122681   -6.2889284    4135.1676            4 
   56300   0.98845782   -6.2765562    4140.2509            6 
   56400    1.0089111   -6.2766863    4145.0054            5 
   56500    1.0033292   -6.2927119    4151.1581            6 
   56600    1.0053039   -6.2973856       4149.4            5 
   56700   0.98910438   -6.3255889    4139.2682           13 
   56800   0.99648951   -6.2898935    4147.7505            6 
   56900    1.0073393   -6.2807725    4147.2166            8 
   57000    1.0014897    -6.278559    4155.0482           10 
   57100     1.014855   -6.2656435    4168.6388            7 
   57200   0.98970968   -6.2835964    4177.6846            7 
   57300   0.97383258   -6.2567467    4174.2476            7 
   57400   0.99424543   -6.2462628    4168.2017            6 
   57500   0.99892939   -6.2806314    4166.6729            6 
   57600     1.007172   -6.2906669    4159.7346            4 
   57700   0.97828423   -6.2852779    4155.0814            9 
   57800   0.99868438   -6.2729227    4161.7502           10 
   57900    1.0208549   -6.2551589    4154.3406            5 
   58000    1.0020002   -6.2733171     4145.837            5 
   58100   0.99785932   -6.2411446    4146.0954            5 
   58200   0.98662969    -6.247016    4147.7859            6 
   58300   0.99466019   -6.2709289     4152.264            5 
   58400    1.0234863    -6.262671     4154.637            5 
   58500    1.0004312   -6.2827341    4152.8244            5 
   58600   0.99278998   -6.2820142    4147.0901            4 
   58700    1.0081225   -6.2721625     4147.834           12 
   58800    0.9837037   -6.2833893    4147.0169            9 
   58900   0.99899327   -6.2893128    4162.1677            5 
   59000    1.0047883   -6.2714661    4171.9361            7 
   59100   0.99504005    -6.296476    4165.1103            8 
   59200    1.0158604   -6.2937947    4158.3411            7 
   59300   0.98833645   -6.3041418    4150.8999            7 
   59400    1.0060619    -6.299567    4151.3322            7 
   59500   0.98824282   -6.2692872     4150.901            7 
   59600    1.0034192   -6.2747456    4146.3088            6 
   59700    1.0089292   -6.2573967    4158.8081            5 
   59800    1.0086912   -6.3017875    4164.1285            5 
   59900   0.99015665   -6.2741831    4151.1767           19 
   60000   0.99887854   -6.3115678     4152.905            4 
   60100   0.98896201   -6.3327035    4149.1275           13 
   60200   0.98444295   -6.2760979    4166.9405            9 
   60300   0.98797684   -6.2664686    4159.0983            7 
   60400   0.99358765   -6.2743478    4152.1757            6 
   60500    1.0036114   -6.2458685    4164.7024            8 
   60600   0.99224905   -6.2540197     4156.086            6 
   60700    1.0049984   -6.2829109    4149.2591            8 
   60800    1.0106444   -6.2704446    4155.0045            4 
   60900    1.0138077   -6.2776821    4154.3723            5 
   61000   0.99611571    -6.287404     4149.248            9 
   61100    1.0021137    -6.288902    4153.0993            9 
   61200     1.000522   -6.2606501     4150.875           14 
   61300      1.01678    -6.253682    4153.2061           12 
   61400    0.9996225   -6.2911961    4148.0506           17 
   61500   0.98264691   -6.2657688    4147.8407            9 
   61600   0.99936154   -6.2526537    4166.7855            8 
   61700   0.98837127    -6.268501    4162.6085            4 
   61800    1.0008407   -6.2533769    4146.8132            6 
   61900   0.99347336    -6.259174     4150.452            7 
   62000    1.0146541    -6.246061    4163.0082            9 
   62100   0.99515108   -6.2469152    4153.6446            5 
   62200    1.0010436   -6.2665292    4152.0289            7 
   62300    1.0041541   -6.2932721    4157.1583            3 
   62400    1.0069943   -6.2762996    4156.1677            7 
   62500   0.99257737   -6.2604851    4155.3008           11 
   62600    1.0114955   -6.3272606    4147.5942            4 
   62700    0.9923045     -6.31741    4148.5746            7 
   62800    1.0043019   -6.2945343    4148.3154            3 
   62900   0.98947251   -6.3201264    4150.9403            5 
   63000   0.97743097    -6.273508    4149.7849            6 
   63100   0.99660221   -6.2785456    4163.1997            3 
   63200   0.99387957   -6.2649611    4164.3325            9 
   63300   0.97343121   -6.2726417    4148.4962            6 
   63400    1.0012675   -6.3154243    4142.0749            7 
   63500     1.006551   -6.2782553    4138.6185            4 
   63600    1.0084597   -6.2701794    4149.3566            5 
   63700   0.99775514   -6.2480667    4152.3694            4 
   63800    1.0213982   -6.2265347    4151.8171            5 
   63900    1.0035116   -6.2318136     4150.844            6 
   64000    1.0113358   -6.2773777     4139.915            7 
   64100    1.0025879   -6.2781383    4144.3249            6 
   64200    1.0225977   -6.2694201    4158.2292           10 
   64300   0.97808125   -6.2405922    4146.6911            6 
   64400   0.98373959   -6.3026293    4146.4219            4 
   64500     1.001733    -6.279397    4160.5606            5 
   64600    0.9861468   -6.2579913    4169.5716            4 
   64700   0.97967674   -6.2806968    4168.8985           14 
   64800   0.99669025    -6.289554    4166.9681            6 
   64900    1.0041381   -6.2632847    4169.0732            3 
   65000   0.99534736   -6.2947923    4151.3936            3 
   65100   0.98665366   -6.2602567    4153.7672            6 
   65200    1.0043787   -6.2535206    4146.1255            4 
   65300   0.99488041   -6.2706183    4137.0876            5 
   65400     1.026812   -6.2920065     4142.276            5 
   65500    1.0180619   -6.2465135    4152.1196           16 
   65600   0.98055268   -6.2328152    4153.1154           12 
   65700    0.9972976   -6.2582677     4150.002            6 
   65800    1.0073792    -6.253428    4157.3113            7 
   65900   0.98194342   -6.2656254    4157.8731            8 
   66000    1.0008002   -6.2757165    4154.3322            9 
   66100    1.0087096   -6.3052478    4155.1217            9 
   66200    1.0135361   -6.3182557    4144.8392            5 
   66300     1.006971   -6.2642996    4164.7214           11 
   66400    1.0058446   -6.3055532    4159.8879           12 
   66500   0.97919145   -6.2955242    4167.3012           13 
   66600   0.97921204   -6.2922613    4165.4897           10 
   66700    1.0010161   -6.2817648    4159.9758            8 
   66800    1.0069384   -6.2519801    4156.3403            6 
   66900   0.98739272   -6.2680179    4144.7666            7 
   67000    1.0206371   -6.2521088    4153.7085           14 
   67100   0.99580993    -6.260222    4152.3608           14 
   67200   0.99087473   -6.2819909    4148.3822           12 
   67300   0.98454052   -6.3138694    4133.3011           10 
   67400   0.99884535   -6.2816759    4137.6539           11 
   67500    1.0018431   -6.2705904    4142.7234            6 
   67600    1.0141098   -6.2765782    4150.1562            9 
   67700    1.0051374   -6.2823329     4162.221            7 
   67800   0.97970136   -6.2996247    4162.6739            6 
   67900    1.0086673   -6.2966316    4162.6546            6 
   68000   0.99233509   -6.3154354    4160.6006            7 
   68100    1.0147909   -6.2812322    4159.6973           13 
   68200    1.0003226   -6.2704332    4159.1374           12 
   68300    1.0011837   -6.2960075    4160.2832            4 
   68400   0.98767603   -6.3034197    4153.2106            5 
   68500   0.99585388    -6.278508    4149.1126            4 
   68600    1.0149466   -6.2895108    4155.5384            5 
   68700   0.99638928   -6.3129689    4150.6504           10 
   68800    1.0145495   -6.3170978    4149.5082           10 
   68900   0.97402429   -6.2924149    4146.1948            6 
   69000   0.99145745    -6.276653    4148.8996            3 
   69100    0.9926733    -6.248214     4148.426            3 
   69200    1.0283769   -6.2546319    4156.7629            5 
   69300   0.99621707   -6.2543665    4150.4409           10 
   69400    1.0093011   -6.2634688     4140.471            6 
   69500   0.97739516   -6.2801493    4132.6196            5 
   69600   0.99556783   -6.2948334    4139.8307            4 
   69700    1.0143139   -6.2817815     4161.242            3 
   69800    1.0089721   -6.2521937    4151.4848            5 
   69900   0.99965289   -6.2715407    4153.1118            5 
   70000    0.9984246   -6.2859949     4158.249            6 
   70100    1.0025865   -6.2913409    4147.8199            8 
   70200   0.97956661   -6.2804027    4136.5735           14 
   70300    0.9934955   -6.2499881    4154.4902           11 
   70400    1.0088256   -6.2922296     4150.848            5 
   70500   0.99624056   -6.3069357    4141.5622            5 
   70600     1.011837   -6.2877822    4138.9403            5 
   70700    1.0218214   -6.2880371    4149.5483            3 
   70800    1.0125577   -6.2730826    4149.4595            4 
   70900   0.97660488   -6.2604398    4145.2438            5 
   71000    1.0111513   -6.2565837    4152.3254            8 
   71100    1.0077592   -6.2074168    4165.2562            4 
   71200   0.99594874   -6.2436298    4146.5272            5 
   71300    1.0027068   -6.2812682    4153.2355           10 
   71400   0.99858251   -6.2449934    4163.3864            6 
   71500    1.0070289   -6.2762248    4157.3737            6 
   71600   0.99302345   -6.2693526    4150.1809           12 
   71700    1.0264589   -6.2835695    4158.2699            7 
   71800    0.9829505   -6.2547307    4158.1645            4 
   71900   0.98962088   -6.2767701    4161.5016           10 
   72000    1.0177997   -6.2670123    4170.3941           12 
   72100    1.0037052   -6.2764571    4155.1478           11 
   72200    0.9839801    -6.274835    4156.0445           10 
   72300    1.0067808    -6.268157    4151.0236            9 
   72400   0.98702748   -6.2648211    4145.0889           14 
   72500    1.0000977   -6.2557893    4131.0908           16 
   72600    1.0181733   -6.2798075     4139.441            4 
   72700   0.98345421   -6.2432434    4157.0352            7 
   72800    1.0002967   -6.2545447    4158.0938            6 
   72900   0.98320329   -6.2695129    4149.1232            8 
   73000    1.0219164   -6.2698325    4161.0045            5 
   73100    1.0200343   -6.2891948    4149.3041            5 
   73200   0.98268507   -6.2632266      4155.09            3 
   73300    1.0073357   -6.2587498    4151.6254            5 
   73400   0.97990828   -6.2735053    4136.2708           11 
   73500   0.99293329    -6.271811    4138.1911           16 
   73600    1.0142967    -6.268334    4148.0098            5 
   73700    1.0008628   -6.2918335    4152.7281           10 
   73800   0.98138854   -6.3106928    4152.6456            7 
   73900   0.99262319   -6.2851634    4148.9636            6 
   74000    1.0220528   -6.2909068    4161.7949            6 
   74100   0.99263613   -6.2716305    4151.5549            7 
   74200    1.0089044   -6.2718203    4147.0305            5 
   74300   0.99233349   -6.2458068     4165.749            3 
   74400   0.99387555   -6.2609284    4169.2961            5 
   74500   0.99839294   -6.2758604    4150.6801            4 
   74600    1.0020597   -6.2868169    4146.5907            9 
   74700    1.0013273    -6.281608    4157.6038            6 
   74800   0.98906347   -6.2977837    4145.0871            4 
   74900    1.0100154   -6.2769193    4162.4538            5 
   75000    1.0023535   -6.2825781     4161.431            5 
   75100   0.97008687   -6.2527203    4150.4878            6 
   75200   0.97648458    -6.282463     4150.825            4 
   75300   0.99197886   -6.2549681    4163.4151            4 
   75400     1.009857   -6.2613846    4148.4209            5 
   75500    1.0087769   -6.2828461    4148.3959            6 
   75600    1.0003688   -6.2374946    4148.8605            5 
   75700    1.0104267   -6.2551741    4154.3129           14 
   75800   0.99991341   -6.2697003    4152.0592            7 
   75900    1.0275375   -6.2588555    4160.9798            4 
   76000   0.98101319   -6.2213418     4158.936            6 
   76100    0.9948194   -6.2724048    4155.4343            4 
   76200     1.010298   -6.2897584    4145.4755            7 
   76300    1.0127048   -6.2965119    4143.0263            9 
   76400    1.0080521   -6.2841225    4143.9865           12 
   76500    1.0021055   -6.2911067    4141.1807            7 
   76600    1.0044833   -6.3075794    4142.8771            5 
   76700   0.99198339   -6.3003294    4143.2064            7 
   76800   0.98956052   -6.3178143    4148.2037            5 
   76900    1.0000417   -6.2992074    4155.0745            9 
   77000    1.0035581   -6.2810953    4149.4496            5 
   77100    1.0185425   -6.3166678    4142.4764            8 
   77200    1.0009417   -6.3402731    4123.9692            5 
   77300   0.99322647   -6.3309893    4126.0432            3 
   77400    1.0085592   -6.3150682    4140.9188            8 
   77500    1.0018821   -6.2725837    4146.9966            8 
   77600    1.0000949   -6.2707815     4156.622            4 
   77700     1.004383   -6.2869557    4154.0883            5 
   77800   0.98790877   -6.3070113    4144.2049           10 
   77900   0.99017624   -6.2827783    4159.2119           10 
   78000   0.99791802   -6.2794406    4161.3153            8 
   78100   0.98603617   -6.2608782    4164.7287            6 
   78200   0.99929023   -6.2678294     4173.659            7 
   78300   0.98434638   -6.2929627    4160.5536            7 
   78400   0.98088026   -6.2578515    4149.7964           11 
   78500   0.97950375   -6.2937996    4151.3597            5 
   78600    1.0084018   -6.2862369    4149.2261            7 
   78700    1.0061928   -6.2550846     4156.676            4 
   78800   0.98268344   -6.2544816    4156.6543            7 
   78900   0.99498774   -6.2580532    4159.1614            6 
   79000    1.0126327   -6.2709378    4162.8617            6 
   79100   0.98722313   -6.2836374     4149.924            7 
   79200    1.0029707   -6.2808193    4159.7623            5 
   79300   0.99565319   -6.2676973    4167.7647            6 
   79400    1.0187565    -6.292105    4167.7719            9 
   79500    0.9830987   -6.2663872    4161.8748            7 
   79600   0.97310107   -6.2903643    4160.7686            6 
   79700     1.000733   -6.2836431    4178.8974            9 
   79800   0.98486118   -6.2758122    4175.1616            6 
   79900   0.96867637   -6.2896552    4149.4627            9 
   80000    1.0020116   -6.3034903    4148.9532            5 
   80100    1.0175348   -6.2856389    4154.8218           16 
   80200   0.98849156   -6.2534911    4147.5578            8 
   80300    1.0107242   -6.2818856    4145.0372           10 
   80400   0.99990871   -6.2299491    4156.8356            7 
   80500    1.0102293   -6.2474257    4157.8343            4 
   80600   0.98681967   -6.2347213    4148.8611            3 
   80700    1.0337966   -6.2472226    4157.1519            5 
   80800    1.0094627   -6.2715343    4151.8373            6 
   80900   0.99828066   -6.2633323    4158.0993            5 
   81000    1.0040741   -6.2392384    4167.8126            4 
   81100   0.99026846   -6.2641516    4150.0652           11 
   81200   0.99569353   -6.2512512    4145.5667           10 
   81300     1.001101   -6.2196903     4157.691            9 
   81400    1.0015006   -6.2329392    4146.8085            8 
   81500   0.98867229   -6.2601343    4145.0441            8 
   81600    1.0134848   -6.2759386    4149.5418           11 
   81700   0.98665919   -6.2804938    4147.4579            8 
   81800   0.98030247   -6.3009078     4143.657           15 
   81900    1.0093369   -6.2837214    4151.2948            8 
   82000   0.98916045   -6.2604002    4142.9835            4 
   82100   0.99450549   -6.2314068    4136.7304            8 
   82200    1.0115731    -6.233387    4144.7492            7 
   82300    1.0028404   -6.2698701    4152.6238            5 
   82400    1.0084171   -6.2500212    4154.8849            5 
   82500    1.0198536   -6.2470918    4152.9786            4 
   82600     0.993682   -6.2609053    4144.4662            5 
   82700    1.0176903   -6.2501132    4148.2788            7 
   82800   0.98604633    -6.245774    4147.3126           10 
   82900   0.98603103   -6.2848287    4155.4914           10 
   83000    0.9947807   -6.2500278    4159.6652            5 
   83100   0.97785889   -6.2634143     4160.969            6 
   83200     1.009939   -6.2602417    4158.1381            5 
   83300    1.0151619   -6.2481167    4166.5228           10 
   83400   0.97138451   -6.2335329    4157.5504            5 
   83500    1.0172985   -6.2435633    4162.3126            7 
   83600    1.0278668   -6.2798712    4159.3318            5 
   83700   0.98986291   -6.2554199    4155.2415            3 
   83800    0.9740516   -6.2436181    4161.6158            8 
   83900    1.0088926   -6.2456608    4167.2184            9 
   84000    1.0012361   -6.2404656    4160.4155            7 
   84100    1.0132179    -6.256815     4154.239            9 
   84200     1.033681   -6.2802525    4154.7219            8 
   84300     1.003574   -6.2821697    4153.6788            5 
   84400   0.99110879   -6.2557746    4153.9628           10 
   84500    0.9937956   -6.2693776    4152.8028            6 
   84600   0.97661229   -6.2693524    4148.3894            8 
   84700   0.99604036   -6.2588501    4157.2478            7 
   84800   0.99272269   -6.2893512    4150.6619            7 
   84900    1.0101323   -6.3052436    4150.3111            3 
   85000    1.0143666   -6.2768902    4157.2692           11 
   85100    1.0263839   -6.2677085    4154.9853            6 
   85200    1.0033058   -6.2835107    4146.9549            5 
   85300    1.0045688   -6.2796227    4149.2912            8 
   85400   0.97475975   -6.2467873    4164.8517            5 
   85500   0.99517679   -6.3024926    4145.8039            8 
   85600    1.0199673     -6.28115    4148.5378            7 
   85700   0.99167237   -6.2813645    4146.7552            8 
   85800   0.99545761    -6.297737    4142.0287            7 
   85900   0.99894116   -6.2538882    4159.9222           11 
   86000    1.0127746   -6.2483283    4150.2575            5 
   86100    1.0117657   -6.2910656    4138.4133            7 
   86200   0.99795059   -6.3068967    4141.7409           14 
   86300   0.99434301   -6.2981943    4155.9226            7 
   86400    1.0033656   -6.2621905    4164.8503            8 
   86500   0.99026315   -6.2778495    4162.5665            5 
   86600   0.97506548   -6.3005375    4147.3141            6 
   86700    1.0075435   -6.3114249    4144.3723            8 
   86800   0.99263922   -6.2628556    4141.6352            9 
   86900    1.0229323   -6.2538963    4148.7466            8 
   87000    1.0179291   -6.2733207    4153.8027            7 
   87100   0.99784725   -6.2871568    4147.7941            5 
   87200   0.98690538   -6.2600993    4148.9216            2 
   87300   0.99764539   -6.2497913    4158.0602            4 
   87400   0.99262255   -6.2876355    4148.7459            5 
   87500    1.0154758   -6.2753908    4157.9582           12 
   87600    1.0062909   -6.2717915    4162.3038            9 
   87700   0.99179036   -6.2726697    4157.8072            6 
   87800   0.99690043   -6.2719556    4161.7186           13 
   87900    1.0002706   -6.3198018    4154.2886            7 
   88000   0.97135779   -6.2789942    4156.4899           12 
   88100   0.99325104   -6.2643663    4167.8151           18 
   88200   0.98926711   -6.2894902    4163.3321           15 
   88300   0.98868921   -6.2783744    4159.7564            9 
   88400    1.0075701   -6.2707157    4166.7647            6 
   88500     1.004137   -6.2896519    4158.5385            7 
   88600   0.99291679   -6.2642042    4140.3315            5 
   88700    1.0038607   -6.3067404    4135.7867            8 
   88800   0.99663002   -6.2470059    4153.6487            9 
   88900   0.98737525   -6.2463974    4159.3425           18 
   89000    1.0139619   -6.2619552    4170.2011            9 
   89100   0.98756053   -6.2429156    4160.1319            6 
   89200   0.99989771   -6.2725545     4163.958            7 
   89300   0.99683908   -6.2729661    4157.4423            9 
   89400   0.98771306   -6.2854514     4147.748            7 
   89500   0.99857576   -6.3074511    4157.5895            6 
   89600    0.9993454   -6.2786812    4173.6412            3 
   89700   0.98353226   -6.2968429    4164.6814            2 
   89800   0.99691486   -6.3004243    4151.2304            6 
   89900   0.98543815   -6.2727801     4152.298            6 
   90000    1.0002513   -6.2708632     4155.311            5 
   90100    1.0067505   -6.3126195    4137.4547           14 
   90200    1.0134753   -6.3272366    4141.8294            8 
   90300    1.0094808   -6.2804446    4152.4742            8 
   90400    1.0061915   -6.2807512    4145.9799           12 
   90500   0.99159838   -6.2798589    4133.2507            9 
   90600    1.0116566    -6.272755    4132.3899            7 
   90700     1.010342   -6.2587822    4143.3044            5 
   90800    1.0099993   -6.2906617    4139.2445            4 
   90900   0.98494291   -6.2802817    4139.5926            4 
   91000    1.0187502   -6.2850519     4158.595            5 
   91100    0.9977072   -6.2485454    4162.6316            5 
   91200    1.0061872    -6.234356    4166.1315            7 
   91300   0.98066772   -6.2515383    4155.5602            6 
   91400      1.01025   -6.2588495    4155.3774            6 
   91500   0.98802619   -6.2483199    4151.6361            3 
   91600   0.97612039   -6.2721725    4148.6881            5 
   91700    1.0128286   -6.2711158    4150.5857            5 
   91800    1.0119491   -6.2744557    4153.6859            3 
   91900    1.0046772   -6.2111364     4161.792            5 
   92000    1.0331099   -6.2864489    4155.8677            5 
   92100   0.99885009   -6.2702175    4154.2489            7 
   92200    1.0109657   -6.2842386    4158.8585            7 
   92300   0.97582004   -6.2396026    4176.9097            4 
   92400    1.0007832   -6.2541758    4181.9776            4 
   92500    1.0044231   -6.2857544    4172.7179            5 
   92600   0.98479368   -6.2769088    4156.2842            4 
   92700   0.98725573   -6.2920254    4156.6486            8 
   92800   0.99065529   -6.2590167    4175.3964           24 
   92900    1.0049307   -6.2521485    4163.8309           20 
   93000   0.99804235   -6.2536209    4157.3863           20 
   93100   0.99990416   -6.2720552    4151.9343           12 
   93200    1.0263756   -6.2661784    4147.5252           10 
   93300   0.98729231   -6.2643742    4145.2467            8 
   93400    1.0026356   -6.2996708    4137.6125           13 
   93500    1.0070965   -6.2783197    4136.0087           12 
   93600    1.0162881   -6.2564392    4137.1669            6 
   93700    1.0211035   -6.2345875    4139.9328            4 
   93800   0.99898309   -6.2346341    4151.1646            5 
   93900    1.0042979   -6.2903552    4145.2548            4 
   94000   0.99934222   -6.2754733    4145.9808            5 
   94100    1.0198807   -6.2571812    4151.6986            4 
   94200    1.0284124   -6.2572746    4144.9792            5 
   94300   0.99501167   -6.2786754    4137.6862            7 
   94400    1.0165931   -6.2777675    4139.8629            5 
   94500    1.0210914   -6.2641839    4153.0697            4 
   94600    1.0137854   -6.2593844    4150.5997            3 
   94700   0.99843978   -6.2658788    4145.8618            4 
   94800    1.0028215   -6.2177605    4158.2016            4 
   94900    1.0127132   -6.2698737    4150.3223            3 
   95000    1.0203351   -6.2977139    4138.5037            5 
   95100   0.98479386   -6.2777219    4150.2534            9 
   95200   0.98850393   -6.2488271    4165.4346            6 
   95300   0.98381254   -6.2376702    4170.9397            6 
   95400   0.99414969   -6.2620841    4156.4463            6 
   95500   0.98768308   -6.2603142    4150.0786            8 
   95600    1.0147628    -6.238819    4157.9102            6 
   95700    1.0009358   -6.2431211    4142.3624            5 
   95800   0.99196218   -6.2760775    4143.2467           11 
   95900    1.0103999    -6.265842    4155.3184           10 
   96000    1.0112444   -6.2473231    4155.7057            7 
   96100   0.99659383   -6.2435045    4159.9213            7 
   96200    1.0178423   -6.2404306    4163.8491            6 
   96300   0.98986776   -6.2412057    4158.5613            8 
   96400    0.9902833   -6.2596984    4168.0177            7 
   96500    1.0078677    -6.257228    4168.9457            5 
   96600   0.98776723   -6.2636428    4149.3053            5 
   96700    1.0092373   -6.2642016    4148.8169            3 
   96800    1.0192259   -6.2690486    4154.9536            5 
   96900   0.98175759   -6.2656379    4153.8153            7 
   97000    1.0017824    -6.254312    4164.9668            5 
   97100   0.98809401    -6.249943    4173.5696           10 
   97200   0.97124454   -6.2416431    4165.1748            6 
   97300    0.9899342   -6.2620928    4159.7427            4 
   97400    1.0106555   -6.2535435    4157.6351            7 
   97500    1.0098901    -6.305105    4146.9702            4 
   97600    0.9843452   -6.2881055    4150.3903            5 
   97700    1.0198645   -6.2978424    4163.7871            5 
   97800    1.0043536   -6.2652043    4162.0689            4 
   97900   0.99053776   -6.2723182    4162.8603            7 
   98000   0.99264517    -6.244026    4164.1216            5 
   98100    1.0026728   -6.2774186    4158.1347            6 
   98200    1.0203052   -6.2739839    4149.1593            6 
   98300    1.0135247   -6.3062307    4142.2262            7 
   98400     1.001241   -6.3154822    4140.0243           14 
   98500    1.0056892   -6.2938384     4155.897            8 
   98600     1.015425   -6.2816273    4154.7141            5 
   98700     1.005029   -6.2995829    4141.3571            7 
   98800     1.009684   -6.2722345    4141.6628           10 
   98900    1.0145228   -6.2412765    4145.9563            9 
   99000   0.99382198   -6.2485989    4146.2325           13 
   99100   0.97973578   -6.2714707    4145.2847            9 
   99200    1.0081588   -6.2740827    4144.7835            6 
   99300    1.0210634   -6.2669912    4143.2037           13 
   99400    1.0147006   -6.2868128    4125.5854            5 
   99500    1.0197626   -6.3049021    4135.4706            4 
   99600    1.0149277   -6.2736679    4140.8827            3 
   99700   0.99720418   -6.2672904    4148.1336            6 
   99800   0.98986003   -6.2837777    4141.0031            7 
   99900    1.0013046   -6.3068685    4136.9686            5 
  100000   0.98253831   -6.2815093    4142.0016            8 
  100100   0.99250496   -6.2655814      4159.81            4 
  100200     1.004592   -6.2554782    4147.0188            4 
  100300   0.99502923    -6.268556    4152.5847            7 
  100400    1.0313311   -6.2669866    4162.1183            5 
  100500    0.9850191   -6.2454733    4163.4169            9 
  100600   0.99691078   -6.2852767    4158.3071            6 
  100700   0.97614371   -6.2814811    4162.0294            6 
  100800   0.98981519   -6.2458515    4176.7255            5 
  100900    0.9956076   -6.2539541    4174.1228            6 
  101000    1.0000611   -6.2489173    4156.1335            8 
  101100    1.0045795   -6.2694966    4157.7927            4 
  101200    1.0071156   -6.2154814    4161.3374            5 
  101300    1.0059958   -6.2582985     4147.912            3 
  101400    1.0069761   -6.2547393    4138.5271            7 
  101500    1.0190938   -6.2813269    4138.6262           10 
  101600   0.97575818   -6.2245471    4155.3875            4 
  101700    1.0056567   -6.2604035    4160.8943            9 
  101800   0.99533508   -6.2849616    4153.7159            6 
  101900     1.006414    -6.244776    4161.7529            6 
  102000     1.004394   -6.2534335    4146.9379            5 
  102100    1.0025992   -6.2805195    4152.5981            5 
  102200    1.0208954   -6.2798874    4161.2303            9 
  102300   0.99655512    -6.246075    4167.7537           21 
  102400   0.98344871    -6.259871    4151.3567           12 
  102500   0.98503037   -6.2529107      4152.94           10 
  102600   0.99673951   -6.2332174    4157.0755            8 
  102700    1.0079253   -6.2545518    4152.4119            8 
  102800    1.0078973   -6.2605892    4145.4147            4 
  102900   0.98814502   -6.2767619    4147.7572            8 
  103000    1.0042829   -6.2714055    4149.8434            9 
  103100    1.0021165   -6.2604919    4154.0176           10 
  103200    1.0202867   -6.2424647    4157.5533            6 
  103300     1.014184   -6.2770624    4145.3156            8 
  103400    1.0161547   -6.2931201    4150.0693            7 
  103500   0.97196573   -6.2830531    4147.6353            6 
  103600   0.99788448   -6.2975167     4137.526            5 
  103700   0.98011741   -6.3292488    4132.6815            4 
  103800   0.98652713   -6.3009316     4143.245            4 
  103900   0.99717577   -6.2693587       4153.8            7 
  104000    1.0153647   -6.2545018    4156.5067            5 
Loop time of 286.744 on 18 procs for 100000 steps with 4000 atoms

Performance: 60262.791 tau/day, 348.743 timesteps/s
99.6% CPU use with 18 MPI tasks x no OpenMP threads

MPI task timing breakdown:
Section |  min time  |  avg time  |  max time  |%varavg| %total
---------------------------------------------------------------
Pair    | 36.717     | 38.321     | 39.706     |  13.6 | 13.36
Neigh   | 4.6074     | 4.7243     | 4.874      |   2.8 |  1.65
Comm    | 12.073     | 14.375     | 17.369     |  41.6 |  5.01
Output  | 5.8477     | 5.8492     | 5.8655     |   0.2 |  2.04
Modify  | 217.32     | 220.14     | 224.12     |  14.7 | 76.77
Other   |            | 3.331      |            |       |  1.16

Nlocal:        222.222 ave         231 max         213 min
Histogram: 1 1 1 2 2 6 2 1 0 2
Nghost:        2309.22 ave        2324 max        2282 min
Histogram: 2 0 1 1 1 1 2 3 1 6
Neighs:        24477.8 ave       25798 max       22712 min
Histogram: 2 1 0 2 1 2 4 2 1 3
FullNghs:      48956.4 ave       50900 max       46827 min
Histogram: 2 0 1 1 5 3 2 2 0 2

Total # of neighbors = 881216
Ave neighs/atom = 220.30400
Neighbor list builds = 5966
Dangerous builds = 0

#clear
#
#next RN
#
#jump SELF
Total wall time: 0:04:49
