
units lj                  # Use reduced LJ style units
atom_style atomic         # Uncharged point particles
atom_modify map hash      # Needed for indexing of clusters etc
                          # Used to be able to find where atoms are in relation to each other.

lattice fcc 1.0 spacing 1 1 1
Lattice spacing in x,y,z = 1.5874011 1.5874011 1.5874011
region box block 0 10 0 10 0 10 units lattice
create_box 2 box
Created orthogonal box = (0.0000000 0.0000000 0.0000000) to (15.874011 15.874011 15.874011)
  3 by 4 by 4 MPI processor grid
create_atoms 1 box
Created 4000 atoms
  using lattice units in orthogonal box = (0.0000000 0.0000000 0.0000000) to (15.874011 15.874011 15.874011)
  create_atoms CPU = 0.039 seconds
set type 1 type/fraction 2 0.51 78393
Setting atom values ...
  2042 settings made for type/fraction
mass 1 1.0
mass 2 1.0
pair_style lj/cut  3.5
pair_modify tail  yes
pair_coeff 1  1  1.0  1.0   # Intearaction between 1 and 1 set with epsilon = 1 and sigma = 1
pair_coeff 1  2  1.5  0.8
pair_coeff 2  2  0.5  0.88

write_data data.0
System init for write_data ...
Neighbor list info ...
  update every 1 steps, delay 10 steps, check yes
  max neighbors/atom: 2000, page size: 100000
  master list distance cutoff = 3.8
  ghost atom cutoff = 3.8
  binsize = 1.9, bins = 9 9 9
  1 neighbor lists, perpetual/occasional/extra = 1 0 0
  (1) pair lj/cut, perpetual
      attributes: half, newton on
      pair build: half/bin/atomonly/newton
      stencil: half/bin/3d
      bin: standard
WARNING: Not all mixed pair coeffs generated from mixing. Use write_data with 'pair ij' option to store all pair coeffs. (../write_data.cpp:312)


#############################
#   M E L T   S Y S T E M   #
#############################

velocity all create 2.4 9622624 mom yes dist gaussian # Assign velocities
                                                    # Temperature 2.4, random number seed, zero linear momentum
                                                                                # Gaussian distribution

timestep 0.002   # simulation timestep
thermo 1000       # output thermodynamic data every 1000 steps bf 100

# Define a fix  in this case with index 1 applied to all
# particles in the simulation. This fix is for simulations
# in the anisotropic NPT ensemble. Note that we use the MTK
# correction.
fix 1 all npt temp 2.4 2.4 0.1 iso 5.68 5.68 0.5 mtk yes tchain 5 pchain 5 # Use NPT ensemble
                                                                         # Set temperature and pressure and damping
                                                                         # Numbers of thermostats in chain and in barostat
run 10000          # run for 10000 steps
Per MPI rank memory allocation (min/avg/max) = 3.642 | 3.644 | 3.648 Mbytes
Step Temp E_pair E_mol TotEng Press Volume 
       0          2.4   -5.2404118            0   -1.6413118   -4.2035775         4000 
    1000    2.3953253   -4.7922625            0   -1.2001728     5.635804    3724.6759 
    2000     2.412068   -4.9148204            0    -1.297623    5.2295434    3692.4266 
    3000    2.3945467   -4.8037945            0   -1.2128724    5.6169838     3716.375 
    4000    2.4108684   -4.8676986            0      -1.2523    5.9048907    3662.0144 
    5000    2.4090953   -4.8684066            0    -1.255667    5.6747516     3681.149 
    6000    2.3979152   -4.8249151            0   -1.2289416    5.7399586     3692.081 
    7000    2.4501806    -4.826941            0   -1.1525889     5.902595    3688.2731 
    8000    2.3871414    -4.791486            0   -1.2116692    5.6002123    3728.8247 
    9000    2.3932245   -4.8373354            0   -1.2483961    5.7278834    3686.3171 
   10000    2.4173815   -4.8948099            0   -1.2696441    5.8966354    3653.4383 
Loop time of 2.66468 on 48 procs for 10000 steps with 4000 atoms

Performance: 648482.697 tau/day, 3752.793 timesteps/s
99.6% CPU use with 48 MPI tasks x no OpenMP threads

MPI task timing breakdown:
Section |  min time  |  avg time  |  max time  |%varavg| %total
---------------------------------------------------------------
Pair    | 1.1784     | 1.2547     | 1.3316     |   2.8 | 47.09
Neigh   | 0.2138     | 0.22045    | 0.23295    |   0.9 |  8.27
Comm    | 0.81105    | 0.90265    | 0.9681     |   4.2 | 33.87
Output  | 0.00024907 | 0.00025685 | 0.0004125  |   0.0 |  0.01
Modify  | 0.22413    | 0.27063    | 0.31147    |   4.6 | 10.16
Other   |            | 0.01595    |            |       |  0.60

Nlocal:        83.3333 ave          91 max          75 min
Histogram: 4 2 4 4 5 6 12 5 3 3
Nghost:        1750.33 ave        1776 max        1717 min
Histogram: 1 0 5 6 7 7 7 8 5 2
Neighs:        10454.8 ave       11507 max        8830 min
Histogram: 1 2 1 8 4 6 4 10 8 4

Total # of neighbors = 501832
Ave neighs/atom = 125.45800
Neighbor list builds = 897
Dangerous builds = 164

# Equilibrate just above the melting temperature to avoid step fn in T

fix 1 all npt temp 1.25 1.25 0.1 iso 5.68 5.68 0.5 mtk yes tchain 5 pchain 5
run 2000
Per MPI rank memory allocation (min/avg/max) = 3.644 | 3.646 | 3.649 Mbytes
Step Temp E_pair E_mol TotEng Press Volume 
   10000    2.4173815   -4.8948099            0   -1.2696441    5.8966354    3653.4383 
   11000    1.2448333   -6.9940412            0   -5.1272581    5.4202345    2869.2881 
   12000    1.2361349   -7.0588585            0   -5.2051197    5.5207902    2850.4344 
Loop time of 0.776765 on 48 procs for 2000 steps with 4000 atoms

Performance: 444922.313 tau/day, 2574.782 timesteps/s
99.1% CPU use with 48 MPI tasks x no OpenMP threads

MPI task timing breakdown:
Section |  min time  |  avg time  |  max time  |%varavg| %total
---------------------------------------------------------------
Pair    | 0.29786    | 0.31729    | 0.34034    |   1.9 | 40.85
Neigh   | 0.041686   | 0.043633   | 0.046752   |   0.5 |  5.62
Comm    | 0.2096     | 0.24109    | 0.30534    |   5.0 | 31.04
Output  | 5.3322e-05 | 5.5594e-05 | 7.2162e-05 |   0.0 |  0.01
Modify  | 0.12487    | 0.16974    | 0.17961    |   4.2 | 21.85
Other   |            | 0.004944   |            |       |  0.64

Nlocal:        83.3333 ave          90 max          76 min
Histogram: 1 1 8 3 8 9 4 9 3 2
Nghost:        2066.50 ave        2088 max        2043 min
Histogram: 1 2 4 7 8 10 6 4 3 3
Neighs:        13386.7 ave       14757 max       11598 min
Histogram: 3 0 6 2 8 6 6 9 5 3

Total # of neighbors = 642562
Ave neighs/atom = 160.64050
Neighbor list builds = 144
Dangerous builds = 13

#############################
# L I N E A R  Q U E N C H  #
#############################

# Define solid atoms. This closely follows ten Wolde  Ruiz-Montero and Frenkel  Faraday Discuss  1996  104  93-110
# Compute components of the per-atom q6 vector
compute q6 all orientorder/atom degrees 1 6 components 6 nnn NULL cutoff 1.3 # compute the Q6 parameter.
                                                                             # Use all neighbours within 1.3 unit cell.

# get number of connections
compute coord_number all coord/atom orientorder q6 0.5

# An atom is solid if it has 8 or more connections (of a possible 14)
variable is_solid atom c_coord_number>=8
group solid dynamic all var is_solid    # Must be dynamic to update
dynamic group solid defined

# do clustering
compute cluster solid cluster/atom 1.3 # Create a cluster where all atoms within are solid and max 1.3 units from another member

# define chunks one chunk per cluster
compute clus_chunks solid chunk/atom c_cluster nchunk every compress yes  # Says which atoms are in which chunk

# count the size of each chunk
compute size_chunks solid property/chunk clus_chunks count


# Find the maximum entry in the vector of chunk sizes
variable max_n equal max(c_size_chunks)


# Thermo style which includes this variable
# thermo_style custom step temp pe vol v_max_n

thermo ${N}  # Print the thermo information every 100 steps
thermo 1000  

# Reset the npt fix at a lower temperature (below freezing)
fix 1  all npt temp  ${temp} ${temp}  0.1  iso  5.68  5.68  0.5  mtk yes tchain  5  pchain  5
fix 1  all npt temp  0.45 ${temp}  0.1  iso  5.68  5.68  0.5  mtk yes tchain  5  pchain  5
fix 1  all npt temp  0.45 0.45  0.1  iso  5.68  5.68  0.5  mtk yes tchain  5  pchain  5

dump dmp2 all dcd ${N} traj.dcd
dump dmp2 all dcd 1000 traj.dcd


compute msd all msd com yes
variable twopoint equal c_msd[4]/6/(step*dt+1.0e-6)
fix 9 all vector 10 c_msd[4]
variable fit equal slope(f_9)/6/(10*dt)
thermo_style custom step temp pe c_msd[4] v_twopoint v_fit v_max_n

fix 1 all npt temp 1.25 ${temp} 0.1 iso 5.68 5.68 0.5 mtk yes tchain 5 pchain 5
fix 1 all npt temp 1.25 0.45 0.1 iso 5.68 5.68 0.5 mtk yes tchain 5 pchain 5
run 2000000 # 5000000  # Run for this many steps
Neighbor list info ...
  update every 1 steps, delay 10 steps, check yes
  max neighbors/atom: 2000, page size: 100000
  master list distance cutoff = 3.8
  ghost atom cutoff = 3.8
  binsize = 1.9, bins = 8 8 8
  4 neighbor lists, perpetual/occasional/extra = 1 3 0
  (1) pair lj/cut, perpetual
      attributes: half, newton on
      pair build: half/bin/atomonly/newton
      stencil: half/bin/3d
      bin: standard
  (2) compute orientorder/atom, occasional
      attributes: full, newton on
      pair build: full/bin/atomonly
      stencil: full/bin/3d
      bin: standard
  (3) compute coord/atom, occasional
      attributes: full, newton on
      pair build: full/bin/atomonly
      stencil: full/bin/3d
      bin: standard
  (4) compute cluster/atom, occasional
      attributes: full, newton on
      pair build: full/bin/atomonly
      stencil: full/bin/3d
      bin: standard
Per MPI rank memory allocation (min/avg/max) = 9.840 | 9.846 | 9.850 Mbytes
Step Temp PotEng c_msd[4] v_twopoint v_fit v_max_n 
   12000    1.2361349   -7.0588585 9.5116904e-31 6.6053403e-33 8.3333333e+20            2 
   13000    1.2274093   -7.0748898   0.45935623 0.0029445911  0.037339641            2 
   14000    1.2535851   -7.0517895   0.86462172 0.0051465577  0.035545916            2 
   15000    1.2542199   -7.1303981    1.2306805 0.0068371137  0.033737956            3 
   16000    1.2538515     -7.07066    1.6402394 0.0085429134  0.033283316            1 
   17000    1.2770582   -7.1256931    2.0148913  0.009876918  0.032844883            1 
   18000    1.2513246   -7.0914184    2.4378734  0.011286451  0.033012785            3 
   19000    1.2271446   -7.0675938    2.8785848  0.012625372  0.033119062            2 
   20000     1.241507   -7.0482815    3.2730264   0.01363761  0.033420691            1 
   21000    1.2400282   -7.1062226    3.6600717  0.014524094  0.033398636            2 
   22000    1.2425882   -7.0750915    4.0372881  0.015292758  0.033399847            3 
   23000     1.231162   -7.0269524    4.4026114   0.01595149  0.033291688            2 
   24000    1.2485916   -7.0867277    4.8427098  0.016814964  0.033248971            1 
   25000    1.2486261   -7.0903517     5.310143  0.017700476  0.033354859            3 
   26000    1.2501779   -7.1134523    5.7502125  0.018430168  0.033581508            1 
   27000    1.2557078   -7.0996916    6.0751744  0.018750538  0.033672334            2 
   28000     1.212727   -7.0832537    6.3641842  0.018941024  0.033479136            2 
   29000    1.2608474   -7.0762116    6.7160294  0.019298935  0.033297143            3 
   30000    1.2656592   -7.0703283    7.1122926  0.019756368  0.033129088            3 
   31000    1.2399845   -7.0585305     7.586089  0.020392712   0.03302306            1 
   32000    1.2304663   -7.1145878    7.9284365   0.02064697  0.032952153            3 
   33000    1.2569665   -7.0923008    8.3998238  0.021211676  0.032944923            1 
   34000    1.2587996   -7.0993966     8.775223  0.021507899  0.032937891            2 
   35000    1.2333631   -7.1012818    9.2048868  0.021916397  0.032953505            4 
   36000    1.2453349   -7.0593269    9.6634135  0.022369012  0.032973392            1 
   37000    1.2686628   -7.0602811     10.06338   0.02266527   0.03302227            3 
   38000     1.238804   -7.0884955     10.38458  0.022773203   0.03304352            1 
   39000    1.2480286   -7.1308817     10.79066  0.023056966  0.033027509            2 
   40000    1.2592743   -7.1146177    11.252425  0.023442552  0.033064318            1 
   41000    1.2361219   -7.1030117    11.658865  0.023696879  0.033120049            1 
   42000    1.2421617    -7.121062    12.061638  0.023931822  0.033175418            3 
   43000    1.2561903   -7.0992358    12.460983  0.024149193  0.033227321            1 
   44000    1.2221431    -7.093694    12.873102  0.024380874  0.033256176            2 
   45000    1.2335442   -7.1220455    13.295583  0.024621449  0.033267205            1 
   46000    1.2496391    -7.079179    13.787803  0.024977904  0.033317111            1 
   47000    1.2354749   -7.1473104     13.97569  0.024779593  0.033333089            1 
   48000    1.2468048   -7.1199316    14.438614  0.025067038  0.033307793            2 
   49000    1.2305986   -7.1307605    14.726412  0.025044918  0.033286702            2 
   50000    1.2201928   -7.1210487    15.042131  0.025070218  0.033252833            2 
   51000    1.2282655   -7.1399357    15.399917  0.025163264  0.033202734            5 
   52000    1.2600506   -7.1401919    15.738687  0.025222255  0.033133322            3 
   53000    1.2449213   -7.1388191      16.0477  0.025232232  0.033066767            3 
   54000    1.2225999   -7.1288518     16.57902  0.025584907  0.033003275            1 
   55000    1.2244249   -7.1543443    16.885187  0.025583616  0.032954087            1 
   56000    1.2268185   -7.1350072     17.28495  0.025721651  0.032900429            3 
   57000    1.2402598   -7.1327629    17.647361  0.025800236  0.032855654            2 
   58000     1.229973   -7.1420381      18.0046  0.025868678  0.032803193            2 
   59000    1.2279807   -7.1441244    18.400298  0.025989121  0.032766582            2 
   60000    1.2095529   -7.1129424    18.871203  0.026210004  0.032738476            2 
   61000    1.2393666   -7.1455585    19.395813  0.026497011  0.032720042            4 
   62000    1.2558185   -7.1338356    19.740534  0.026532975  0.032718129            2 
   63000    1.1985859   -7.0829173    20.138973  0.026638854  0.032706469            1 
   64000    1.2536791   -7.1733951    20.481046  0.026668029  0.032705721            3 
   65000    1.2506699    -7.153247    20.964638  0.026877741  0.032712248            1 
   66000    1.2215092   -7.0753569    21.405432  0.027027061  0.032719354            3 
   67000    1.2374741   -7.1493639    21.762969  0.027068369  0.032735927            1 
   68000    1.2216239   -7.1080507    22.189227   0.02719268  0.032750144            1 
   69000    1.2149431   -7.1135994    22.543979  0.027227027  0.032746058            2 
   70000    1.2292354   -7.1300298    22.752088  0.027085819  0.032732477            2 
   71000    1.2203851   -7.1551245    23.223874  0.027258068  0.032719133            2 
   72000    1.2251688   -7.1015257    23.636354  0.027356891   0.03270701            2 
   73000    1.2260495   -7.1788529    24.123143  0.027537834   0.03271304            2 
   74000    1.2187085   -7.1890404    24.509307  0.027600571  0.032709997            4 
   75000    1.2370698   -7.1263794    24.900863  0.027667625  0.032717213            2 
   76000    1.2284936   -7.1855546     25.09724  0.027518903  0.032722355            2 
   77000    1.2543991    -7.140299    25.503481   0.02760117  0.032711503            2 
   78000     1.230082   -7.1611787    25.859656  0.027627838  0.032696909            1 
   79000    1.2139412   -7.1763193    26.225071  0.027663577  0.032676699            4 
   80000    1.2222622   -7.1851603    26.577982  0.027685398   0.03266429            4 
   81000    1.2492666   -7.1700859    26.956477  0.027733001  0.032639425            2 
   82000    1.2141726   -7.1274501    27.194095  0.027636275  0.032608022            2 
   83000    1.2069415   -7.1557662    27.554117  0.027664776  0.032574611            2 
   84000    1.2366944   -7.1789849    27.848282  0.027627264  0.032537997            2 
   85000    1.2087275   -7.1790283    28.300934  0.027746014  0.032498967            4 
   86000    1.2413422   -7.0970425    28.714833   0.02782445  0.032466693            1 
   87000    1.1986197   -7.1880316     29.13681  0.027908822  0.032431019            2 
   88000    1.2301523   -7.1201149    29.509532  0.027944633  0.032400749            2 
   89000    1.2283241   -7.1532909    29.918227  0.028013321   0.03237594            3 
   90000    1.2456033    -7.108786    30.371428  0.028121693  0.032355288            1 
   91000    1.2311981   -7.1758959    30.673297    0.0280891  0.032339529            2 
   92000      1.21419   -7.1581664    30.748552  0.027851949  0.032310451            1 
   93000    1.1988141   -7.1538023    31.207985  0.027964144   0.03227719            2 
   94000    1.2182992   -7.1674762     31.23381  0.027689548  0.032230088            1 
   95000    1.1985089   -7.1420131    31.804029  0.027898271  0.032180003            1 
   96000     1.224131   -7.1658433    32.222981  0.027971337  0.032138294            2 
   97000    1.2145439   -7.1776484    32.647067  0.028047308  0.032106528            3 
   98000    1.2201409    -7.165533    33.095875  0.028142751  0.032077881            2 
   99000    1.2040839   -7.1837178     33.46122   0.02816601  0.032056487            3 
  100000     1.232584   -7.1336594    33.971856   0.02830988  0.032040201            2 
  101000    1.2131761    -7.155427     34.23167  0.028243952  0.032022401            4 
  102000    1.2142684   -7.1477892    34.453296  0.028148117  0.031998342            3 
  103000    1.2292901   -7.1810051    34.853698  0.028198785  0.031975239            1 
  104000    1.1932005   -7.1315198    35.468728  0.028420455  0.031955365            2 
  105000    1.2353472   -7.1983376    35.521417  0.028191601  0.031936573            3 
  106000     1.206925   -7.1807182    35.891023  0.028216213  0.031910733            1 
  107000    1.2205195    -7.164745    36.160943  0.028162728  0.031874054            1 
  108000    1.1797004     -7.18306    36.424836  0.028105583  0.031836919            3 
  109000    1.2130781   -7.1758477    36.829149  0.028156841  0.031799756            1 
  110000    1.2107879   -7.1478375    37.074487  0.028086733  0.031762652            2 
  111000    1.2019805    -7.150918     37.38014  0.028063168  0.031723414            2 
  112000    1.2159133   -7.2123472    37.698357  0.028049373   0.03168744            2 
  113000    1.1970582   -7.1679319    38.334334  0.028270158  0.031657703            1 
  114000    1.2112308   -7.1953871    38.566761  0.028192077  0.031626863            2 
  115000    1.1893794   -7.1752048    38.972588  0.028241006  0.031598632            1 
  116000    1.2002441   -7.1919832    39.543842  0.028407932  0.031573775            1 
  117000    1.1819199   -7.1936109    39.740143  0.028304945  0.031550549            1 
  118000    1.2154446   -7.1841461    40.214499   0.02840007   0.03153257            2 
  119000    1.2395878   -7.1782756     40.62336  0.028447731  0.031517807            2 
  120000    1.2266664   -7.1809755    40.842248  0.028362672  0.031500521            3 
  121000    1.2145487   -7.2031535    41.430524  0.028533418   0.03148576            4 
  122000     1.202993   -7.1266303    41.812285  0.028560304  0.031476345            3 
  123000    1.1989521   -7.1650602    42.030947  0.028476251  0.031466951            1 
  124000    1.1991198   -7.2329948    42.327975   0.02844622  0.031455912            1 
  125000    1.1940157    -7.191717    42.904183  0.028602789  0.031443448            2 
  126000    1.1994643   -7.1615012    43.241984  0.028599196  0.031427562            1 
  127000    1.1823244   -7.1647886    43.442863  0.028505815  0.031406998            4 
  128000    1.2028118   -7.2153921     43.93228  0.028601744  0.031389513            1 
  129000    1.1969311   -7.1998381    44.171145  0.028534331  0.031372119            3 
  130000    1.1853459   -7.2352656    44.348834   0.02842874  0.031346785            3 
  131000    1.2118122   -7.1982022    44.657456  0.028408051  0.031322415            6 
  132000    1.2151499   -7.2015124    45.142742  0.028499205  0.031298483            2 
  133000     1.202513   -7.1747917    45.388431  0.028438867  0.031273068            3 
  134000    1.1885669   -7.2384642    45.656918  0.028393606  0.031247275            9 
  135000    1.2147386   -7.2107655    46.031908  0.028414758  0.031217033            2 
  136000     1.215564   -7.1943386    46.339748  0.028394453   0.03118969            1 
  137000     1.189673   -7.2198085    46.431883  0.028243238  0.031160964            3 
  138000    1.1862361   -7.2656398    46.825175  0.028276072    0.0311307            3 
  139000    1.1784635    -7.244501    47.016531  0.028187368  0.031095628            1 
  140000    1.1803256    -7.246633    47.235799  0.028116547  0.031059852            2 
  141000    1.1968023   -7.2408125    47.670682  0.028174162  0.031027283            4 
  142000    1.1893819   -7.1946153    48.115098   0.02823656  0.030994493            3 
  143000    1.1887868   -7.2010041    48.456279  0.028237924  0.030963431            4 
  144000    1.1957066   -7.2231832    48.812248  0.028247829  0.030930251            1 
  145000    1.1765534   -7.2128059     49.22541  0.028290465  0.030901524            2 
  146000    1.2042374   -7.1775874      49.7663  0.028405423  0.030876541            1 
  147000    1.2023897   -7.1834105    49.989165  0.028338529  0.030852123            2 
  148000    1.1819071   -7.2339178    50.296212  0.028319939  0.030823978            4 
  149000    1.2008501   -7.2502955    50.407601  0.028192171   0.03079616            4 
  150000    1.1760606   -7.2250872    51.030768  0.028350426  0.030768636            3 
  151000    1.1578915   -7.2466644    51.157596  0.028232669  0.030743592            2 
  152000    1.2058078    -7.236162    51.504295  0.028237004  0.030717494            2 
  153000     1.161643    -7.200327    52.084683  0.028368564  0.030692105            2 
  154000    1.1935735   -7.2114748    52.482686  0.028399722  0.030671988            5 
  155000    1.1563195   -7.1988583    52.565486  0.028261014  0.030651966            3 
  156000    1.1746463   -7.2253253    53.210649  0.028424492   0.03063286            4 
  157000    1.1745985   -7.2208727    53.537335  0.028416844  0.030615141            1 
  158000    1.2055153   -7.2079347    53.824939  0.028388681  0.030595062            4 
  159000    1.2054738   -7.2229532    54.112154  0.028360668  0.030572579            2 
  160000    1.2096332   -7.2032916    54.627424  0.028451783  0.030554467            4 
  161000    1.1986075   -7.2482666    54.551636  0.028235836  0.030534667            2 
  162000    1.2179618   -7.2125766      54.8981  0.028239763  0.030512305            2 
  163000    1.1958951   -7.2090668    55.367872  0.028306683  0.030487624            4 
  164000    1.1809011   -7.2251005    55.658421  0.028281718  0.030464629            3 
  165000    1.1784868   -7.2514782    55.862042  0.028213152   0.03044321            3 
  166000    1.1815792   -7.2187002    56.754057  0.028490992  0.030421907            2 
  167000    1.2035708   -7.2218866    56.965226  0.028425762  0.030408486            2 
  168000    1.1793964   -7.2480653    57.387255    0.0284659  0.030394201            1 
  169000    1.1831886   -7.2530098    57.486568  0.028346434  0.030380912            6 
  170000    1.1731605   -7.2544544     57.76598  0.028316657  0.030364135            3 
  171000    1.2323191   -7.2086752    58.137538  0.028332134  0.030346155            3 
  172000    1.1898087   -7.2655573    58.343574  0.028267235  0.030327555            2 
  173000    1.1732631   -7.2640822    58.661182  0.028256831  0.030311444            1 
  174000    1.1781365   -7.2844518     59.07187  0.028291125  0.030295554            4 
  175000    1.1966542   -7.2642392    59.544027  0.028354299  0.030279409            2 
  176000    1.2049131   -7.2807447    59.547026  0.028194614  0.030260377            4 
  177000    1.1781996   -7.2873641    59.978266  0.028238355  0.030241153            2 
  178000    1.1624032   -7.2886122    60.546994  0.028345971  0.030222783            1 
  179000    1.1480547   -7.2155375     60.84191  0.028324912  0.030205104            3 
  180000    1.1773251   -7.2473002    60.761738  0.028130434   0.03018402            2 
  181000    1.1627568   -7.2765879    60.905717  0.028041306  0.030156934            2 
  182000    1.1628188   -7.2447352    61.392014  0.028109897  0.030132457            2 
  183000    1.1675618   -7.2995498    61.597438  0.028049835  0.030106481            1 
  184000    1.1617661   -7.2735084    62.167125  0.028155401  0.030082208            2 
  185000    1.1884672    -7.273059    62.501722  0.028153929  0.030058757            5 
  186000    1.1862321   -7.2731052     62.60053  0.028046832  0.030035569            2 
  187000    1.2097735   -7.2281604    63.084665  0.028112596    0.0300139            1 
  188000    1.1794523   -7.3276997    62.975689  0.027914756  0.029989172            3 
  189000    1.1723038   -7.2639745    63.270018  0.027896833  0.029960905            1 
  190000    1.1561386   -7.2463593     63.69466  0.027936254  0.029933483            2 
  191000    1.1757937   -7.3151207    63.770347  0.027823013  0.029906258            3 
  192000    1.1523868   -7.2597524    64.302683  0.027909151  0.029877996            3 
  193000    1.1623283   -7.3207113    64.352788  0.027786178  0.029850514            2 
  194000    1.1791467    -7.271491    64.779643  0.027826307  0.029821161            7 
  195000    1.1804185   -7.3072152    64.798001  0.027691453  0.029791987            4 
  196000    1.1771312   -7.2647119    65.392872  0.027803092  0.029762636            2 
  197000    1.1691239   -7.2494893    65.854165  0.027857092  0.029734303            3 
  198000    1.1876229   -7.2392943    66.246438  0.027881497  0.029708347            1 
  199000    1.1824725   -7.2735242    66.201065  0.027722389  0.029682333            1 
  200000    1.1807196   -7.2607317    66.452946  0.027688727  0.029654779            3 
  201000    1.1993077   -7.2700446    66.941142  0.027753376  0.029625671            1 
  202000    1.1693333   -7.3002662    67.344962  0.027782575  0.029600143            1 
  203000    1.1694045    -7.302283    67.796182  0.027830945  0.029577189            3 
  204000    1.1765617   -7.3359491    67.882513  0.027729784  0.029555512            3 
  205000    1.1630714   -7.2860278    68.483432  0.027838793  0.029531519            2 
  206000    1.1575271   -7.2480406    68.891736  0.027868825  0.029508301            2 
  207000    1.1349829   -7.2982238    68.929731  0.027749489   0.02948488            1 
  208000    1.1613125   -7.2497378    69.553413  0.027865951  0.029462876            1 
  209000    1.1627014   -7.2610452    69.580136  0.027743276  0.029440245            2 
  210000    1.1853249   -7.2704563    70.316171  0.027903242  0.029420976            1 
  211000    1.1751111   -7.2643904    70.591735  0.027879832  0.029403894            3 
  212000    1.1691836   -7.2869129    70.761582  0.027815087  0.029384119            2 
  213000    1.1555627   -7.3040936    71.061754  0.027801938  0.029364714            6 
  214000    1.1946802   -7.2363211    71.959325  0.028021544  0.029345694            2 
  215000    1.1556791   -7.2840009    71.790911  0.027825934  0.029326779            4 
  216000    1.1657902   -7.2768195    72.092607  0.027813506  0.029309044            4 
  217000     1.161565   -7.2618786    72.536633   0.02785585  0.029289482            1 
  218000    1.1682082   -7.2848306    72.654224  0.027773021  0.029270073            4 
  219000     1.173938   -7.2601884    72.920251  0.027747432  0.029250384            3 
  220000    1.1693535   -7.2915487    73.204708  0.027729056  0.029229666            2 
  221000    1.1648537   -7.2543534    73.868522  0.027853892  0.029209939            2 
  222000    1.1780955   -7.2872256     73.77415  0.027692999  0.029188936            3 
  223000    1.1819431   -7.2634655    74.118105  0.027697349  0.029168845            1 
  224000    1.1566096   -7.2661025    74.482458  0.027709248  0.029148091            4 
  225000     1.159176    -7.246226    75.054637  0.027798014  0.029129296            3 
  226000    1.1298213   -7.3240067     75.01148    0.0276591  0.029109459            2 
  227000    1.1684987   -7.3229693    75.095792  0.027568205   0.02908847            1 
  228000     1.153059   -7.2860016    75.766013  0.027692256  0.029068923            4 
  229000    1.1914537   -7.3138835    75.931624  0.027631595  0.029051268            3 
  230000    1.1532715   -7.2699184    76.369938  0.027670267  0.029031324            2 
  231000    1.1764061   -7.2998493    76.770892  0.027695127  0.029013445            4 
  232000    1.1652965   -7.3513341    76.716207  0.027556109  0.028996619            3 
  233000    1.1743732   -7.3042072    77.383458  0.027676487  0.028979536            2 
  234000     1.150748   -7.3372863     77.82847  0.027716691  0.028963978            2 
  235000    1.1679967   -7.4053235    78.092889  0.027692514   0.02894927            3 
  236000    1.1697808   -7.3386394    78.662296  0.027776234  0.028934741            4 
  237000    1.1520547    -7.294634    78.903034  0.027743683  0.028921092            1 
  238000    1.1388246   -7.3445448    78.925619   0.02763502  0.028906718            2 
  239000    1.1604433   -7.3673519    79.016919  0.027551227  0.028890446            2 
  240000    1.1619423   -7.3347321    79.362093  0.027556282   0.02887304            3 
  241000    1.1538093   -7.3438821    79.707972  0.027561539  0.028854856            2 
  242000    1.1769257   -7.3381835    79.896405  0.027512536  0.028836294            3 
  243000    1.1586049   -7.3152934    80.200474  0.027503592  0.028816773            3 
  244000    1.1491226   -7.3463027    80.176886  0.027382816   0.02879456            2 
  245000    1.1565543   -7.2568197    80.817927  0.027489091  0.028773791            1 
  246000    1.1540107   -7.3040843     80.71619  0.027342883  0.028755043            1 
  247000    1.1718518   -7.3175052    81.431125  0.027473389  0.028734762            4 
  248000    1.1418158   -7.3066176     81.82031  0.027493384  0.028715874            1 
  249000    1.1159952   -7.3206207    82.252612  0.027527648  0.028697092            2 
  250000    1.1701357    -7.310976    82.472974  0.027490991  0.028679835            5 
  251000    1.1425705   -7.2860938    82.739151  0.027469838  0.028662132            2 
  252000     1.142182   -7.3199425    83.112089  0.027484156  0.028644837            2 
  253000    1.1351139   -7.3560949     83.02358   0.02734637  0.028627538            3 
  254000    1.1595593   -7.3080297    83.748064  0.027476399  0.028608452            5 
  255000    1.1484464   -7.3329989     83.65386  0.027337863  0.028590445            5 
  256000    1.1408674   -7.2987169    83.916366  0.027316525  0.028571963            2 
  257000    1.1623843   -7.3232639    84.493584  0.027397401   0.02855322            2 
  258000    1.1716377   -7.3491838    84.495218  0.027291737  0.028534655            4 
  259000    1.1871966   -7.3129242    85.045043   0.02736327  0.028515543            1 
  260000    1.1388607   -7.3413427    84.793501  0.027177404  0.028495161            2 
  261000    1.1560105   -7.3388681    85.171482   0.02719396  0.028474242            2 
  262000     1.158691   -7.3580039    85.519742  0.027200936  0.028453035            5 
  263000    1.1335009   -7.3388838    85.902628   0.02721883  0.028432824            7 
  264000    1.1515429    -7.385334    85.974561  0.027138434  0.028412642            2 
  265000     1.153097   -7.3714693    86.648942  0.027248095  0.028392502            3 
  266000     1.140243    -7.338709    86.735555  0.027172793  0.028372985            3 
  267000    1.1528737   -7.3832821    86.849176  0.027106484  0.028352188            2 
  268000     1.130375   -7.3366941    87.060635  0.027071093  0.028332281            2 
  269000    1.1535869   -7.3509736    87.326052   0.02705268  0.028311695            1 
  270000    1.1248906    -7.379813    87.509759  0.027009185  0.028291259            2 
  271000    1.1531505    -7.336175    88.023107  0.027067376  0.028270021            2 
  272000    1.1711424   -7.3776008    88.060083  0.026979192  0.028248321            4 
  273000    1.1464744   -7.3402309    88.599252  0.027044949  0.028227414            2 
  274000    1.1551596   -7.3309287    88.913757  0.027041897  0.028208435            2 
  275000    1.1353385   -7.3725042    89.189867  0.027027232  0.028187984            1 
  276000    1.1134241   -7.3277853    89.296184  0.026961408   0.02816575            2 
  277000    1.1396533   -7.3113167     89.37658  0.026888261  0.028143301            4 
  278000    1.1555253   -7.3921827    89.542333  0.026841227  0.028119798            1 
  279000    1.1503059   -7.3208657    90.050562  0.026896823  0.028098146            5 
  280000    1.1430379   -7.3511644    90.479464  0.026928412  0.028077176            5 
  281000    1.1266371   -7.3545196    90.624709  0.026875655  0.028055849            2 
  282000    1.1781817   -7.4109364    90.830978  0.026841306  0.028035664            2 
  283000     1.142859   -7.3467582    91.382387   0.02690883  0.028016246            3 
  284000    1.1221042   -7.3928147    91.440009  0.026830989   0.02799604            3 
  285000    1.1489291    -7.370359    91.746169  0.026826365   0.02797536            7 
  286000    1.1608274     -7.38651    91.924832  0.026784625  0.027954349            4 
  287000    1.1363884   -7.3687832    92.051153  0.026727977  0.027932458            2 
  288000    1.1457861   -7.3681702    92.611656  0.026797354  0.027911189            4 
  289000    1.1377367    -7.362987    92.754849  0.026745919  0.027891693            3 
  290000     1.165302   -7.3875133    92.930776  0.026704246  0.027870432            2 
  291000    1.1373741   -7.3720743    93.364057  0.026736557  0.027848961            5 
  292000     1.130603   -7.3470944    93.748993   0.02675485  0.027827912            2 
  293000    1.1259278   -7.3527396    93.849612  0.026692153  0.027805883            2 
  294000    1.1344807   -7.3560941    93.770824  0.026579032  0.027782739            5 
  295000    1.1241654   -7.3669201    94.077494  0.026575563  0.027760127            2 
  296000    1.1378336   -7.4102694    94.548382  0.026618351  0.027737375            2 
  297000    1.1507827   -7.3592444    94.782952  0.026594543  0.027714424            4 
  298000    1.1379396   -7.3693977    95.206686  0.026623794   0.02769247            1 
  299000    1.1226851    -7.361554     95.37306   0.02658112   0.02767119            2 
  300000    1.1287184    -7.385014    95.504078   0.02652891  0.027649728            2 
  301000    1.1427862   -7.3629858    95.949201  0.026564009  0.027629483            5 
  302000    1.1257544   -7.4202638    96.074627  0.026510659  0.027608848            3 
  303000    1.1397964   -7.3498246    96.558354  0.026556203  0.027587896            2 
  304000    1.1165785   -7.3435881    96.913072  0.026566083  0.027566947            3 
  305000    1.1273013   -7.3657565    97.185469  0.026553407  0.027546826            2 
  306000    1.1478044   -7.3808578    97.519226  0.026557523  0.027528266            3 
  307000    1.1359155   -7.3595206    98.109368  0.026631207   0.02751007            1 
  308000      1.14344   -7.3756469    98.492248  0.026648335  0.027493157            1 
  309000    1.1477066   -7.3421826     98.97064  0.026691111  0.027476776            2 
  310000    1.1063972   -7.3523951    98.943437  0.026597698  0.027460102            5 
  311000     1.124744   -7.3410461    99.211579  0.026584024  0.027442834            2 
  312000    1.1360483   -7.3365668    99.615189  0.026606621  0.027426425            5 
  313000    1.1188754   -7.3533615    99.897028  0.026596653   0.02740916            2 
  314000    1.1306696   -7.3863312    99.863749  0.026503118  0.027391056            2 
  315000    1.1422524   -7.3912403    99.811056  0.026405041  0.027373043            1 
  316000    1.1316954   -7.3860792    100.48126  0.026498222  0.027355161            3 
  317000    1.1388571   -7.3806098    101.16387  0.026594078  0.027337868            4 
  318000    1.1281983   -7.4038009    100.72924   0.02639655  0.027319544            5 
  319000    1.1437807   -7.4140555     100.8513  0.026345689  0.027301396            4 
  320000    1.1248548   -7.3801838    101.72914  0.026491963  0.027282695            2 
  321000     1.147931   -7.4542128    101.16123  0.026262001  0.027263391            4 
  322000     1.113103   -7.4014534    101.86055  0.026361425  0.027244247            4 
  323000     1.109442   -7.4211425    101.89502  0.026288706  0.027225574            4 
  324000    1.1428077   -7.4570708    102.42031  0.026342673  0.027206644            3 
  325000     1.122401   -7.3843136    102.84221  0.026369798  0.027188485            7 
  326000    1.1328788   -7.3656944    103.02757  0.026336292  0.027170658            4 
  327000    1.1157433   -7.4048685    102.79683   0.02619695  0.027151627            3 
  328000    1.1422839   -7.3965898    103.05479   0.02618262  0.027132274            2 
  329000    1.1193129   -7.4063891    103.47686  0.026209944   0.02711318            3 
  330000    1.1465734   -7.4440162    103.39522  0.026109903  0.027093399            5 
  331000    1.1128078   -7.3821524    104.17659  0.026227743   0.02707399            2 
  332000    1.1266671   -7.3931818    104.37921  0.026199602  0.027055281            3 
  333000    1.1197116   -7.4015544    104.73393  0.026209693  0.027037563            6 
  334000     1.096331   -7.4392659    104.57572  0.026091745  0.027018964            3 
  335000    1.1215619   -7.4079971    104.80033  0.026069734  0.026998812            1 
  336000     1.122404   -7.3878918    104.97921  0.026036511  0.026979166            2 
  337000    1.1267954   -7.4031673    105.11188  0.025992056  0.026959332            2 
  338000    1.1372371   -7.4415256    105.49348   0.02600924  0.026938924            4 
  339000    1.1127524    -7.380141    106.51797  0.026184359  0.026919968            2 
  340000    1.1275552   -7.3886996    106.33173  0.026061697    0.0269023            3 
  341000    1.1084176   -7.4052006    106.75633  0.026089036  0.026883641            4 
  342000    1.1183309   -7.4049495    107.03014  0.026079468  0.026865087            5 
  343000     1.106802   -7.4275799    107.03417  0.026004415  0.026846541            2 
  344000    1.1255517   -7.4730023     107.0166  0.025924564  0.026828027            5 
  345000     1.104835   -7.4156821    107.58036  0.025985594  0.026808965            2 
  346000    1.1139859   -7.4080413    107.68315  0.025935248  0.026789146            1 
  347000    1.0971187   -7.4200459     107.6278  0.025847215  0.026769374            2 
  348000    1.1315785    -7.437174    107.91064  0.025840671  0.026748548            2 
  349000    1.1149367   -7.4199934     108.2129  0.025838801  0.026727486            4 
  350000    1.1265394    -7.437267    108.02955  0.025721322  0.026705901            4 
  351000    1.0970428    -7.421983    108.42601  0.025742167  0.026684212            2 
  352000    1.1206691   -7.4197059    108.62013  0.025714993  0.026662291            1 
  353000    1.1062272   -7.4393507    108.98022  0.025727153  0.026640714            2 
  354000    1.1043197    -7.397535    109.75202  0.025836164  0.026620694            2 
  355000    1.1235841   -7.4485524    109.48784   0.02570137  0.026600525            3 
  356000    1.1337942   -7.4368956     109.5537  0.025644592  0.026579796            1 
  357000    1.1335251   -7.4203099    110.25917  0.025737435  0.026559241            2 
  358000     1.096534   -7.4272595    110.57614  0.025739326  0.026539358            6 
  359000    1.1036496   -7.4293511    111.01641  0.025769826  0.026520066            2 
  360000    1.0928217   -7.4485233    110.48397  0.025574992  0.026500513            5 
  361000     1.098683   -7.4424524    110.95349  0.025612532  0.026480568            6 
  362000    1.1140486   -7.4225743    111.14309  0.025585425  0.026460734            3 
  363000    1.1089407   -7.4559532    111.63977  0.025628966  0.026441405            5 
  364000    1.1156288   -7.4830666    111.98862  0.025638419   0.02642106            1 
  365000     1.104235   -7.4271402    111.80485  0.025526221   0.02640117            4 
  366000    1.1046779   -7.4482884     112.2408  0.025555738  0.026380465            5 
  367000     1.094079   -7.4467292    111.93976  0.025417746  0.026360134            3 
  368000    1.1151028   -7.4338396    112.62357  0.025503527  0.026339583            1 
  369000    1.1099887   -7.4593979    112.90477  0.025497915  0.026319341            2 
  370000    1.0830251    -7.483262    112.57649  0.025355064  0.026298162            3 
  371000    1.1203718   -7.4044528    113.28067  0.025444894   0.02627687            4 
  372000    1.0740201   -7.4298194    113.67842  0.025465596  0.026255496            5 
  373000     1.094658   -7.4819331    113.46598  0.025349861  0.026235182            7 
  374000    1.1014958   -7.4648998    113.93673  0.025386972  0.026214539            9 
  375000    1.1192294   -7.4708233    114.15587   0.02536797   0.02619348            4 
  376000    1.1178242   -7.4568292     114.5022   0.02537726  0.026172835            2 
  377000    1.1230076    -7.423613     114.9345  0.025405505  0.026153031            3 
  378000    1.1215684   -7.4529285     114.7242  0.025291931  0.026133386            2 
  379000    1.1211954   -7.4345647    115.14241  0.025317152  0.026113574            2 
  380000    1.0798573   -7.5106018    115.27086  0.025278696  0.026093959            3 
  381000     1.115309   -7.4573578      115.842  0.025337271  0.026073587            4 
  382000    1.0891368   -7.5101775    115.34573  0.025162681   0.02605281            2 
  383000    1.0923866   -7.4932056     115.8015   0.02519615  0.026031038            3 
  384000    1.0998142   -7.4310434    116.07733  0.025190394  0.026009644            2 
  385000     1.126362   -7.4704163    115.87002  0.025080091  0.025988523            6 
  386000    1.1031082   -7.5109355    116.34426  0.025117499  0.025967265            4 
  387000    1.1092103   -7.5050277    116.67491  0.025123796  0.025946482            4 
  388000    1.0949244   -7.4566493    116.86159  0.025099138  0.025925713            3 
  389000    1.1101668   -7.4443097    117.31779  0.025132346  0.025905538            4 
  390000    1.0967326   -7.4771075    117.24815  0.025053023  0.025884878            4 
  391000    1.0994228   -7.4783894    117.73644  0.025093019  0.025864429            3 
  392000    1.0922316   -7.5094888    117.74097  0.025029968  0.025843079            3 
  393000    1.0775131   -7.4710456    118.08094  0.025038367  0.025822729            3 
  394000    1.0821163   -7.4551882    118.12446  0.024984022  0.025801859            3 
  395000    1.0939704   -7.5064874    118.27816  0.024953197  0.025780798            2 
  396000    1.1002501   -7.5331914    118.86174  0.025012992   0.02576007            3 
  397000    1.1094337   -7.4796632    119.06597  0.024992858  0.025739712            4 
  398000    1.1028877   -7.4440575    119.74808   0.02507288   0.02571985            3 
  399000    1.1025434    -7.439059    120.12143  0.025088019  0.025699788            1 
  400000    1.1057236   -7.4919167    119.89452  0.024978026  0.025680608            3 
  401000     1.078113   -7.4814378     119.6859  0.024872382  0.025661566            3 
  402000     1.088883   -7.4925506    120.33579  0.024945229  0.025641853            4 
  403000      1.09316   -7.4949975    120.85475  0.024990643   0.02562239            1 
  404000    1.0654133   -7.4683841    120.87209  0.024932362  0.025602867            2 
  405000    1.0908804   -7.4781408    121.42107  0.024983759  0.025584082            3 
  406000    1.0741122   -7.4813832    121.65149  0.024969519  0.025565034            2 
  407000    1.0794778   -7.4956952    122.00905  0.024981378  0.025546816            1 
  408000    1.0880302   -7.5161199    122.25444   0.02497027  0.025529199            4 
  409000    1.0901825   -7.4498973    122.69548  0.024999079  0.025512104            2 
  410000    1.0758934   -7.4870365    122.54894  0.024908321  0.025494433            5 
  411000    1.0982941   -7.4716525    122.75202  0.024888892  0.025476417            9 
  412000    1.0885474   -7.4978692     123.1722   0.02491347  0.025458175            1 
  413000    1.0836518   -7.4851336    123.90082  0.025000165  0.025441146            2 
  414000    1.0718837   -7.4605196    123.95378  0.024950439  0.025424315            3 
  415000    1.1120309   -7.5069981    124.08462   0.02491659  0.025407497            2 
  416000    1.0898556   -7.4592339    124.41912  0.024923703  0.025391125            3 
  417000    1.1306428   -7.5128475    124.33528  0.024847177  0.025374931            4 
  418000    1.0947936   -7.5156274     124.2715  0.024775019  0.025357451            2 
  419000     1.076568   -7.5024314    124.44673  0.024750742  0.025340017            4 
  420000    1.0936093   -7.4864398    124.83643  0.024769132  0.025322098            2 
  421000    1.0649013    -7.543576     124.8116  0.024705385  0.025303546            2 
  422000    1.0834372   -7.4897017    124.99824  0.024683697  0.025285165            2 
  423000      1.09517   -7.5418226    125.22825  0.024670656  0.025266713            8 
  424000    1.0624861   -7.5168595    125.96075  0.024756436  0.025247893            1 
  425000    1.0914419   -7.4749773     125.9453  0.024695157  0.025229721            3 
  426000    1.0939181   -7.5063262    125.75523  0.024600007  0.025210954            5 
  427000    1.0997418   -7.5315597    126.15958  0.024621308  0.025191429            5 
  428000    1.0824177   -7.5139135     126.6906  0.024667174  0.025172673            7 
  429000    1.1107738   -7.5226993    126.04756  0.024484763  0.025153656            3 
  430000    1.0642866   -7.5134619    126.57549  0.024530134  0.025134253            3 
  431000    1.0834652   -7.4977725    127.03232  0.024561546  0.025114938            2 
  432000    1.0922733   -7.5018743    127.08524    0.0245149  0.025095828            3 
  433000    1.0952785   -7.5391568    127.05321  0.024452119  0.025076493            2 
  434000    1.0708629   -7.5368498    127.37833  0.024458204  0.025057009            2 
  435000    1.0872508   -7.5086048    127.58412  0.024441402  0.025038015            3 
  436000    1.0925721   -7.5734177    127.60442  0.024389223  0.025018399            2 
  437000    1.1022767   -7.4971079    128.17775  0.024442744   0.02499927            2 
  438000    1.0454552   -7.5290795    128.36279  0.024422144  0.024980272            2 
  439000    1.0968222   -7.5346776    128.10651  0.024317865  0.024960899            3 
  440000    1.0822667   -7.5097294     128.5792  0.024352121  0.024940703            3 
  441000    1.0698443   -7.5347126    128.16025  0.024217734  0.024920963            6 
  442000    1.1217007   -7.4979038    128.82184  0.024287678   0.02490108            5 
  443000    1.0761294    -7.575512    128.25529  0.024126278  0.024881006            9 
  444000    1.1008688   -7.5107149    129.23867  0.024256508  0.024861404            2 
  445000    1.0766484   -7.5356241    129.42777  0.024237411  0.024841466            3 
  446000    1.0676463   -7.5464964    129.81394   0.02425522  0.024822027            2 
  447000    1.0752154   -7.5822134    129.51849  0.024145878  0.024802061            3 
  448000    1.0847566   -7.5440626    129.53766  0.024095547  0.024782324            2 
  449000    1.0483436   -7.5318504    129.71321  0.024074463  0.024762167            2 
  450000    1.0757011   -7.5196961    129.87911  0.024051687  0.024742026            1 
  451000    1.0730393   -7.5968989     129.7015   0.02396554  0.024721013            2 
  452000    1.0793048   -7.5513959    130.18358  0.024001398  0.024699848            2 
  453000    1.0767108   -7.5682682    130.38188  0.023984893  0.024679049            3 
  454000    1.0635244   -7.5929204    130.48073  0.023950207   0.02465856            2 
  455000    1.0913443   -7.5247391     130.8403  0.023963425  0.024638041            2 
  456000    1.0728172    -7.562333    131.36337  0.024006464  0.024617241            4 
  457000    1.0960153   -7.5296675    131.20897  0.023925778  0.024596588            4 
  458000    1.0627649   -7.5359356     131.4375  0.023915119  0.024576109            4 
  459000       1.0835   -7.5317819    131.44831   0.02386498    0.0245557            2 
  460000    1.0882614   -7.5383374    131.85096  0.023886044  0.024535339            6 
  461000    1.0588701   -7.5664423    131.79438  0.023824003  0.024514889            2 
  462000    1.0709865   -7.5641925    132.09626  0.023826887  0.024494925            8 
  463000    1.0740883    -7.544425    132.54656  0.023856473  0.024474922            2 
  464000    1.0732122   -7.5002933    133.21731  0.023925523  0.024454999            5 
  465000    1.0536133   -7.5794008    132.41925  0.023731048   0.02443473           11 
  466000     1.052301   -7.5494129    133.15956   0.02381251  0.024414181            2 
  467000    1.0425944   -7.5625348    133.45985  0.023815104   0.02439403            3 
  468000    1.0650296   -7.5836496    133.56758  0.023783401  0.024374263            4 
  469000    1.0608609   -7.5069297    133.95403  0.023801356  0.024354535            1 
  470000    1.0668427    -7.562545     134.2469  0.023802642  0.024335591            2 
  471000    1.0834897   -7.5437579    134.61306  0.023816889  0.024317076            2 
  472000    1.0573991   -7.6099665    134.50201  0.023746824    0.0242981            2 
  473000    1.0705105   -7.5441037    135.31274  0.023839453  0.024279144            2 
  474000     1.065044   -7.5856398     134.7855  0.023696466    0.0242607            2 
  475000    1.0860154   -7.5331113      135.752   0.02381614  0.024242168            3 
  476000    1.0827561   -7.5383623    135.75537  0.023766696  0.024224106            2 
  477000    1.0567153   -7.5595609    136.03139  0.023765092  0.024206344            3 
  478000    1.0462892   -7.5785334    135.64047  0.023647222  0.024187927            6 
  479000     1.074725   -7.6192279    135.50341   0.02357401  0.024167967            2 
  480000    1.0529329   -7.5788729    135.79827  0.023576089  0.024148033            3 
  481000    1.0518437   -7.5491677    136.30756  0.023615309  0.024128672            3 
  482000    1.0452057   -7.6328814    135.51873  0.023429932  0.024108566            2 
  483000    1.0666302   -7.6173982    136.25712  0.023508819  0.024087933            5 
  484000    1.0713562   -7.5989266    136.44001  0.023491738  0.024068077            4 
  485000    1.0571997   -7.5571425    136.75084  0.023496707  0.024048036            2 
  486000    1.0651994   -7.5790872    136.83013  0.023461956  0.024027882            4 
  487000    1.0855283   -7.5976761    136.90437  0.023426484  0.024007707            3 
  488000     1.071487   -7.5870288    137.03123  0.023400141   0.02398794            2 
  489000    1.0581607   -7.5715988    137.41097  0.023417003   0.02396796            5 
  490000    1.0836725   -7.5509961    137.35012  0.023358865  0.023948293            1 
  491000    1.0711819   -7.5510317    138.08957  0.023436791  0.023928556            3 
  492000    1.0973953   -7.6103412    137.75605  0.023332664  0.023908577            5 
  493000    1.0514303   -7.5715705    138.26641  0.023371605  0.023888223            2 
  494000    1.0552288   -7.5800155    138.10756  0.023297496  0.023868114            1 
  495000    1.0521132   -7.5933465    137.94023   0.02322226  0.023847862            2 
  496000    1.0591648   -7.5801219    138.45575  0.023262055  0.023827754            2 
  497000    1.0535271   -7.6378481     138.5265  0.023227112  0.023807353            7 
  498000    1.0680478   -7.5601226    139.63676  0.023366258  0.023787006            5 
  499000     1.067189   -7.5848672    139.14185  0.023236782  0.023767282            9 
  500000    1.0423424   -7.5812822    139.25896  0.023209827  0.023747448            4 
  501000    1.0510007   -7.5770494    139.44725  0.023194818  0.023726823            1 
  502000    1.0656657   -7.5688835      139.827  0.023211653  0.023706907            2 
  503000    1.0370941   -7.5922642    139.65397  0.023136841   0.02368705            2 
  504000    1.0471259   -7.6145864    139.60293  0.023082495  0.023667083            1 
  505000    1.0404675   -7.6012219    140.04239  0.023109305  0.023647144            1 
  506000    1.0279958   -7.6272304    140.27707  0.023102285  0.023627141            3 
  507000    1.0564831   -7.6164838    140.27725  0.023056747   0.02360705            1 
  508000    1.0473832   -7.6246715    140.41003  0.023033142  0.023587249            6 
  509000    1.0461284    -7.643858    139.82028  0.022891337  0.023567157            3 
  510000    1.0399364   -7.6319886    140.86351  0.023016914  0.023546705            3 
  511000    1.0359988   -7.6181566    140.51615  0.022915223  0.023526727            1 
  512000    1.0361288   -7.5911858    141.36061  0.023007911  0.023506668            3 
  513000    1.0294277   -7.6057204    141.27041  0.022948409  0.023486555            6 
  514000     1.038106   -7.6380033    141.42524  0.022928865  0.023466768            4 
  515000    1.0520554   -7.6364898    141.42982  0.022885084  0.023446355            5 
  516000    1.0625323   -7.6477364    141.90437  0.022917373  0.023426957            1 
  517000    1.0526459   -7.6348394    141.59876  0.022823784  0.023407087            7 
  518000    1.0302599   -7.6160126       142.32  0.022895753    0.0233871            2 
  519000    1.0524499   -7.5804494     143.1109  0.022978628  0.023367777            2 
  520000    1.0350106   -7.6380204    142.84512  0.022891847  0.023348366            3 
  521000    1.0498814   -7.6364548    142.77153  0.022836138  0.023328944            4 
  522000     1.042255   -7.6397565    142.76773  0.022791783  0.023309646            4 
  523000     1.038417    -7.599074    143.17523  0.022813134  0.023290347            3 
  524000    1.0507086   -7.5896649    143.58399  0.022834605  0.023270944            2 
  525000    1.0533643   -7.6715758    143.30342  0.022746575   0.02325168            4 
  526000    1.0481101   -7.6027587    143.89047  0.022796335  0.023232072            2 
  527000    1.0367342   -7.5993566    144.28715  0.022815805  0.023212814            5 
  528000    1.0436597   -7.6126838    144.19777  0.022758487   0.02319349            3 
  529000    1.0451284   -7.5974438    144.73638  0.022800312  0.023174412            3 
  530000    1.0539224   -7.6398529    144.47961  0.022716919  0.023155194            5 
  531000    1.0243878   -7.6172131    144.61502  0.022695388  0.023136058            7 
  532000    1.0272798   -7.6063854     144.9673   0.02270791  0.023117331            3 
  533000    1.0408191      -7.6251    144.94384  0.022661638  0.023098526            4 
  534000    1.0469053   -7.6232973    145.27684  0.022671167  0.023079927            2 
  535000    1.0167144   -7.6512292    145.15388  0.022609639  0.023060967            7 
  536000    1.0388074   -7.6421933    145.63111  0.022641653  0.023042097            3 
  537000    1.0385563   -7.5863581    146.25903  0.022696931  0.023023212            2 
  538000     1.032961   -7.6417047    146.16126    0.0226396    0.0230045            3 
  539000    1.0457801    -7.591664     146.6516  0.022673408  0.022985879            2 
  540000    1.0469592   -7.6415945     146.4999   0.02260801  0.022967512            1 
  541000    1.0204934   -7.6653149    145.74781  0.022450371  0.022948818            2 
  542000     1.046159   -7.6572607    146.37191  0.022504907  0.022930171            4 
  543000     1.053025   -7.6520857    146.92227  0.022547923  0.022911509            3 
  544000    1.0267997   -7.6582157    146.91816  0.022505846   0.02289297            6 
  545000    1.0080309   -7.6749957    146.81479  0.022448745  0.022874488            6 
  546000    1.0362951   -7.6594916    147.47242  0.022508001  0.022856217            2 
  547000    1.0346884   -7.6266534    147.63598   0.02249177  0.022837991            2 
  548000    1.0346875    -7.609912    148.25202  0.022544407   0.02281996            4 
  549000    1.0231042   -7.6505837     148.0547  0.022473391  0.022802368            3 
  550000    1.0512306   -7.6872935    148.13154  0.022444173  0.022784655            4 
  551000    1.0339143   -7.6450485    149.28682  0.022578165  0.022767038            7 
  552000     1.022516   -7.6557178     148.7117  0.022450438  0.022749526            5 
  553000    1.0222025   -7.6344732    149.09208  0.022467161  0.022732297            2 
  554000    1.0322777    -7.607935    149.80807  0.022534307  0.022715508            4 
  555000    1.0265714   -7.6686062    149.17854   0.02239918  0.022698611            4 
  556000    1.0242463   -7.6134327    150.34033  0.022533023  0.022681354            5 
  557000     1.058514   -7.6853451    149.46109  0.022361024  0.022663999            2 
  558000    1.0153504     -7.66206     150.3518  0.022453972  0.022646571            6 
  559000    1.0476932   -7.6182921    150.56353  0.022445368  0.022629631            6 
  560000    1.0476942   -7.6904183    150.00099  0.022321575   0.02261211           19 
  561000    1.0535198   -7.6658068    150.45184  0.022348759  0.022594732            5 
  562000    1.0057735   -7.6775752    150.31225  0.022288294  0.022576985            4 
  563000    1.0195915   -7.6697963    150.36924   0.02225714  0.022559129            3 
  564000    1.0148257   -7.6162777     151.2095  0.022341828  0.022541646            3 
  565000    1.0349283   -7.6534127    150.43166   0.02218756  0.022523873            3 
  566000    1.0169574   -7.6519133    151.03344  0.022236961  0.022506047            6 
  567000    1.0171825   -7.6567489    151.36635  0.022246672  0.022488407            2 
  568000    1.0322708   -7.6720226     151.2412  0.022189143  0.022470549            7 
  569000    1.0337481   -7.6488331    151.52193  0.022191261  0.022452868            4 
  570000    1.0187889   -7.7180814    151.36522  0.022129418  0.022435454            4 
  571000    1.0491919   -7.7152046    151.41583  0.022098049  0.022417574            4 
  572000    1.0300432   -7.6639418    152.10763  0.022160203  0.022399738            5 
  573000    1.0217414   -7.6231638    151.92013   0.02209426  0.022382127            4 
  574000    1.0410793   -7.6917466    151.62912   0.02201352    0.0223643            3 
  575000    1.0021399   -7.6793899    151.94574  0.022021122  0.022346219            3 
  576000     1.030901    -7.679688    152.30838  0.022035356  0.022328106            4 
  577000    1.0150298   -7.6511778    152.73456  0.022058717   0.02231038            2 
  578000    1.0335651   -7.6832328     153.1226  0.022076499  0.022292544            4 
  579000    1.0145195   -7.6685404    152.96933  0.022016311  0.022275271            4 
  580000    1.0469716   -7.7015035    152.54013  0.021916686  0.022257508            5 
  581000    1.0209397   -7.6708981    153.27082  0.021983767  0.022239676            7 
  582000    1.0361738   -7.6998349    153.18004  0.021932996  0.022221966            4 
  583000    1.0145097   -7.6768369    153.92495  0.022001851  0.022204013            4 
  584000   0.99618181    -7.721853    152.96326  0.021826949   0.02218609            2 
  585000    1.0115032   -7.6664522    153.50179  0.021866351  0.022168108            4 
  586000    1.0218786   -7.6960226    154.01162  0.021901538  0.022150163            3 
  587000    1.0087727      -7.6775    154.31429  0.021907196  0.022132498            3 
  588000   0.99454477   -7.6650355    154.60593  0.021911271  0.022115126            5 
  589000    1.0523166   -7.6590085     154.6476  0.021879966  0.022097765            6 
  590000    1.0070479   -7.7469528    154.39018  0.021806522  0.022080315            3 
  591000    1.0274912   -7.6740197    155.38141  0.021909392  0.022062936            3 
  592000    1.0124807   -7.6569322     155.3047  0.021861586  0.022045672            2 
  593000    1.0235713   -7.6869908     154.6769  0.021736495  0.022028586            5 
  594000     1.014734   -7.7145681    155.27938  0.021784425  0.022011353            4 
  595000    1.0261279   -7.6651587     155.4999  0.021778697  0.021993985            3 
  596000    1.0076517   -7.6884119    155.29131  0.021712991  0.021976483            3 
  597000    1.0078588   -7.6919822    155.98099  0.021772891  0.021959025            2 
  598000    1.0181597   -7.7521386    155.47851  0.021666459  0.021941374            3 
  599000    1.0256559   -7.7037554    155.74221  0.021666974  0.021923808            2 
  600000    1.0000041   -7.7125488    156.09172  0.021679405  0.021906352            2 
  601000   0.99116713   -7.7277597    155.94125   0.02162247  0.021888847            2 
  602000    1.0173163   -7.7097818    156.22974  0.021626486  0.021871198            3 
  603000    1.0341521   -7.7183147    156.47719  0.021624819  0.021853493            3 
  604000    1.0174614   -7.7199206    156.62639  0.021609601  0.021835963            2 
  605000    1.0264361   -7.6772403    156.73835  0.021589305  0.021818697            2 
  606000     1.013393   -7.7196038    156.73522  0.021553248  0.021801338            6 
  607000    1.0088557   -7.6859558    157.30636  0.021596151  0.021784041            6 
  608000     1.021385    -7.661591    158.16365  0.021678132  0.021767047            4 
  609000     1.027232   -7.7071042    157.73905  0.021584435  0.021750232            5 
  610000    1.0227662   -7.7018221    157.62414  0.021533352  0.021733273            5 
  611000    1.0182041   -7.7256165    157.62541  0.021498283  0.021716171            8 
  612000    1.0296347   -7.6837945    158.17344  0.021537778  0.021699025            2 
  613000    1.0020397   -7.7181947    158.45098  0.021540373  0.021682194            2 
  614000     1.016294    -7.675192    158.46691  0.021507453  0.021665413            4 
  615000    1.0066707   -7.7050853    158.53453  0.021481644   0.02164858            3 
  616000    1.0155753   -7.6895628    158.74006  0.021474575  0.021631569            2 
  617000    1.0067774   -7.7114738    158.58053  0.021418224  0.021614618            6 
  618000    1.0384916   -7.7154335    159.31375  0.021482436  0.021597685            4 
  619000    1.0199294    -7.761164     159.0552  0.021412925  0.021580714            5 
  620000   0.99761884   -7.7164194    159.04296  0.021376741  0.021563756            2 
  621000    1.0135344   -7.6857874    159.73674  0.021435419   0.02154691            4 
  622000    1.0038076   -7.7399934    159.43216   0.02136015  0.021529667            5 
  623000   0.99503897   -7.7396236     159.3595  0.021316144  0.021512188            4 
  624000    1.0226682   -7.7194219    160.05076    0.0213743  0.021494889            5 
  625000    1.0225971   -7.7555854    159.72773   0.02129703  0.021477869            4 
  626000    1.0052942   -7.7376676    159.93958  0.021291212  0.021460732            3 
  627000    1.0173988   -7.7419646    160.30107  0.021305299  0.021443811            7 
  628000    1.0022048   -7.7308216     160.7052  0.021324999  0.021427204            4 
  629000    1.0008137   -7.7467175    160.06479  0.021206253  0.021410257            3 
  630000    1.0152358   -7.7134488    160.93255  0.021287374  0.021393265            3 
  631000   0.99757026    -7.771028    160.68673  0.021221175  0.021376575            6 
  632000   0.99342184   -7.7294363    160.93914  0.021220878  0.021359628            2 
  633000    1.0049899   -7.7426015    160.98762  0.021193736  0.021342636            1 
  634000    1.0106364    -7.745482    161.02164  0.021164779  0.021325437            2 
  635000     1.008192   -7.7274191    161.33146  0.021172108  0.021308129            3 
  636000   0.99259829    -7.765588    160.96233  0.021090452  0.021290832            2 
  637000    1.0171153   -7.7643533    161.22039  0.021091103  0.021273317            2 
  638000     1.003238    -7.735218    161.28697  0.021066741  0.021256044            9 
  639000    1.0099867   -7.7492121    161.62595  0.021077979  0.021239016            4 
  640000    1.0084817   -7.7311701    161.60433   0.02104223  0.021221938            5 
  641000   0.99825741    -7.716696    161.63157  0.021012944   0.02120467            3 
  642000    1.0319654   -7.7091961    162.17264  0.021050446   0.02118759            3 
  643000    1.0055181   -7.7231321     162.0781  0.021005456  0.021170422            2 
  644000   0.99249423   -7.7570075    162.12359  0.020978726  0.021153155            2 
  645000     0.991168   -7.7385951    162.52538  0.020998111  0.021135837            5 
  646000   0.99448342   -7.7499674    162.20277   0.02092399  0.021118561            2 
  647000   0.97684317   -7.7659892    162.23902  0.020896319  0.021101404            4 
  648000    0.9670797   -7.7788897    162.44702   0.02089082   0.02108405            6 
  649000   0.98757277   -7.7625485    162.56941  0.020874346  0.021066865            1 
  650000   0.97351196   -7.7694394    162.49457  0.020832637  0.021049793            1 
  651000    1.0088237   -7.7282951    162.96925  0.020861399  0.021032599            4 
  652000   0.98914486   -7.7351255    162.55813  0.020776858  0.021015456            5 
  653000    1.0023968   -7.7971894    163.08753  0.020812599  0.020998098            3 
  654000    0.9737753   -7.8012538     163.1645  0.020790583  0.020980651            3 
  655000   0.98292269   -7.7789556    163.07633  0.020747625  0.020963143            4 
  656000    1.0001636   -7.7921582    162.87175  0.020690009  0.020945592            7 
  657000    1.0003135   -7.7772759    163.45082  0.020731966  0.020927948            4 
  658000   0.99993623   -7.7397437    163.37765  0.020691191  0.020910325            6 
  659000    1.0069524   -7.7776264    162.77346  0.020583392  0.020892607            3 
  660000    0.9798256   -7.7696295    163.71632  0.020671252   0.02087482            3 
  661000   0.99799677   -7.7830233    163.57174  0.020621752   0.02085685            6 
  662000   0.98727168   -7.7926641    164.08194  0.020654826  0.020839146            7 
  663000   0.99303073   -7.7722455    163.66862  0.020571722  0.020821392            3 
  664000   0.99253472   -7.7723184    163.85478  0.020564104   0.02080355            3 
  665000    1.0006312   -7.8001018    164.07747  0.020561087  0.020785682            3 
  666000    1.0113414   -7.7646065    164.14482  0.020538641  0.020768066            7 
  667000   0.97482212   -7.7682325    164.79867  0.020589539  0.020750752            6 
  668000   0.99815499   -7.7896769    164.87129  0.020567776  0.020733267            5 
  669000   0.98828231   -7.7805415     164.8988  0.020540459  0.020715652            4 
  670000   0.98435049   -7.7605933    165.10648  0.020535631  0.020698375            6 
  671000   0.97449465   -7.7972266    165.49581   0.02055338   0.02068109            9 
  672000   0.98790948    -7.772038    165.44854  0.020516932  0.020663787            5 
  673000   0.98904594   -7.8015384    165.20915  0.020456804  0.020646423            6 
  674000   0.98487869   -7.8277142    165.13906  0.020417786  0.020628741            4 
  675000   0.99589755   -7.8401396    165.45494  0.020426536  0.020611429            4 
  676000   0.98142835   -7.8114799    165.41422  0.020391299  0.020594269            1 
  677000   0.98161363   -7.8294202    165.52809  0.020375196  0.020577186            4 
  678000   0.97657704   -7.8049958    166.12255  0.020418209  0.020560104            5 
  679000    0.9799229   -7.8062653    165.89205  0.020359849  0.020543091            3 
  680000    0.9827479   -7.8069886    166.28924  0.020378583  0.020526106            7 
  681000    0.9844192   -7.7780894    166.79569  0.020410633  0.020509174            2 
  682000   0.97548046   -7.8266293    166.64264  0.020362004  0.020492227            2 
  683000   0.98759794   -7.7934212    166.64592  0.020332592  0.020475162            4 
  684000   0.97194904   -7.8305186    166.93886  0.020338556  0.020458245            2 
  685000   0.96661934   -7.8110703     166.9788  0.020313722   0.02044123            6 
  686000   0.96431688   -7.8276742    167.26823   0.02031927   0.02042432            4 
  687000   0.97876118   -7.8062355    167.25329  0.020287881  0.020407638            3 
  688000   0.96862851    -7.793116    167.73723   0.02031701  0.020390976            2 
  689000   0.98575873   -7.8036062    167.93171  0.020311044  0.020374553            2 
  690000   0.96309656   -7.8105647    167.88819  0.020276352  0.020357919            4 
  691000   0.99026482   -7.7769736    168.40552  0.020309397  0.020341529            4 
  692000   0.97565245   -7.7809294    168.11088  0.020244567  0.020325164            2 
  693000   0.99283942   -7.8204674    167.86886  0.020186251  0.020308554           12 
  694000   0.96832166   -7.7971878    168.54694  0.020238586  0.020292043           11 
  695000    0.9779625   -7.7973688    168.23712  0.020172316  0.020275408            4 
  696000   0.98272097   -7.7994266    168.33524  0.020155081  0.020258508            4 
  697000   0.95443702   -7.8296393    168.20224  0.020110264  0.020241742            4 
  698000   0.99224233   -7.8320686    168.43454  0.020109186  0.020224847            6 
  699000   0.97323309   -7.8090384    168.23895  0.020057099  0.020207791            8 
  700000   0.98467962   -7.8328742    168.39833   0.02004742  0.020190624            7 
  701000   0.97822768   -7.8126466    168.70176  0.020054892  0.020173506            4 
  702000   0.96809234   -7.8107933    168.70474  0.020026678  0.020156564            5 
  703000   0.98214646   -7.8546307    168.70034  0.019997669  0.020139577            4 
  704000   0.96748194    -7.807838    169.26723  0.020036367  0.020122639            6 
  705000   0.95705129   -7.7801794    169.59718  0.020046947  0.020105861            4 
  706000   0.98341226   -7.7978096    169.76277  0.020038099   0.02008907            5 
  707000   0.97669451   -7.8376299    169.83083  0.020017778  0.020072336            5 
  708000   0.99373803   -7.8169803    169.90179  0.019997857  0.020055757            5 
  709000   0.96265163   -7.8118328    169.52087  0.019924879  0.020039049            2 
  710000   0.97401682    -7.851392    170.19474  0.019975908  0.020022389            5 
  711000   0.97989493   -7.8348173    169.62518  0.019881057  0.020005831            4 
  712000   0.97176588   -7.8174333    170.11116  0.019910014  0.019989187            3 
  713000   0.95458436   -7.8023347    170.29169  0.019903189  0.019972402            4 
  714000   0.95201449   -7.8269539    169.99112  0.019840234  0.019955623            3 
  715000   0.96111108   -7.8026329    170.16685  0.019832967  0.019938586            3 
  716000   0.96478812    -7.878741    169.80131  0.019762723  0.019921404            5 
  717000   0.95756046   -7.8482095    170.27412  0.019790112  0.019904179            5 
  718000   0.95225619   -7.8651026    170.08391  0.019740473  0.019886962            8 
  719000   0.97075881   -7.8390199    170.36475  0.019745566  0.019869869            4 
  720000   0.97785062    -7.831433    170.31757  0.019712682  0.019852606            5 
  721000   0.94018469   -7.8666776    169.92907  0.019640439  0.019835391            6 
  722000   0.97259288   -7.8461463    170.64225   0.01969555  0.019817939            2 
  723000   0.96584938   -7.8646025    170.42736  0.019643541  0.019800623            5 
  724000   0.98781949    -7.833792     170.9945  0.019681687  0.019783404            4 
  725000   0.98372754   -7.8422324    170.57287  0.019606077  0.019766271            5 
  726000   0.95537979   -7.8094909     171.0222  0.019630647  0.019748883            5 
  727000   0.96468267   -7.8346859    171.24377  0.019629043  0.019731837            4 
  728000   0.98119891   -7.8384262    170.98393  0.019572336  0.019714907            6 
  729000   0.96368611   -7.8543794    171.24685  0.019575542  0.019697738            4 
  730000   0.97839679   -7.8454055    171.30827  0.019555738  0.019680615            6 
  731000   0.96872384   -7.8920661    171.36704  0.019535686  0.019663364            8 
  732000   0.99825323   -7.8021132    171.50607  0.019524826  0.019646222            3 
  733000   0.97800573   -7.8597871    172.29245  0.019587591  0.019629264            3 
  734000   0.95548736   -7.8745639    171.48271  0.019468973  0.019612194            3 
  735000   0.96777491   -7.8729409    171.74954  0.019472737   0.01959493            2 
  736000   0.93595543   -7.8189613    171.44415  0.019411702  0.019577746            3 
  737000   0.95959152   -7.8565624    171.87414  0.019433982  0.019560593            2 
  738000   0.93611842   -7.8440647    172.02878  0.019425111  0.019543657            3 
  739000   0.97410792    -7.842787    172.36056  0.019436238   0.01952673            7 
  740000    0.9657014   -7.8315525    172.88516   0.01946905  0.019509902            5 
  741000   0.96597512   -7.8210569    172.77138  0.019429979  0.019493081           10 
  742000   0.94388199   -7.8745586    172.14119  0.019333017  0.019476176            4 
  743000   0.98516858   -7.8458113    172.94062  0.019396659  0.019459383            4 
  744000   0.95157187   -7.8911872    172.38469  0.019308321  0.019442557            7 
  745000   0.94271284   -7.8676299    172.58526  0.019304839  0.019425487            5 
  746000   0.95752521   -7.8633607    172.71316  0.019293249  0.019408543           13 
  747000   0.95313497    -7.902918    172.65554  0.019260993   0.01939145            7 
  748000   0.94055386   -7.8725309    173.04826  0.019278996  0.019374429           10 
  749000   0.95016363   -7.8582564    173.05682  0.019254208    0.0193576           15 
  750000   0.96629348   -7.8722481    173.60006  0.019288895  0.019341031            3 
  751000   0.95902763   -7.9091522    173.38303  0.019239129  0.019324386            7 
  752000   0.96373486   -7.8927976    173.83933   0.01926411  0.019307685            4 
  753000   0.94540621   -7.8485334    173.69989  0.019223095  0.019290879            6 
  754000   0.94622772   -7.8759351    173.70474  0.019198137   0.01927424            6 
  755000    0.9335466   -7.8853758    173.84101   0.01918775  0.019257453            4 
  756000   0.95778196   -7.8777001     173.6614  0.019142571  0.019240632            2 
  757000   0.95238677   -7.8407628    173.80147  0.019132703  0.019223809           10 
  758000   0.96652302   -7.8760462    173.99583  0.019128829  0.019207089            6 
  759000   0.94550575    -7.891816    174.03552  0.019107984  0.019190253            7 
  760000   0.94183743   -7.8677163    173.95259  0.019073749  0.019173285            7 
  761000   0.93671866   -7.8717051    174.40233  0.019097934  0.019156476            3 
  762000   0.94307339   -7.8580409    174.46814  0.019080067  0.019139689            5 
  763000   0.96153445   -7.8889718    174.41217  0.019048948  0.019122899            4 
  764000   0.94074549   -7.8953777     174.6911  0.019054439  0.019106239            3 
  765000   0.95026264   -7.8913951     175.1311  0.019077462  0.019089632           10 
  766000   0.94703081   -7.8790855     174.6081  0.018995659   0.01907302            4 
  767000   0.94250246   -7.9054151      175.189  0.019034007   0.01905648            2 
  768000   0.96119146   -7.9546684    174.88954   0.01897673  0.019039636            3 
  769000   0.96246115   -7.9029591    174.73448   0.01893525  0.019022709            4 
  770000   0.94234392   -7.9512578    175.01939  0.018941492  0.019005909            4 
  771000    0.9519761   -7.9301527    174.92006  0.018906189  0.018988874           11 
  772000   0.97023713   -7.9509057    175.08048  0.018899015  0.018972054            5 
  773000   0.92914731   -7.9028764      175.333   0.01890179  0.018955326            5 
  774000   0.94389138   -7.9560529    175.28894  0.018872625  0.018938592            5 
  775000   0.93808398   -7.9231354    175.17395  0.018835909  0.018921799            4 
  776000   0.94828808   -7.8917204    175.76584  0.018875198  0.018905168            6 
  777000   0.95655863   -7.8879077     175.9216   0.01886761  0.018888678            7 
  778000   0.94116383   -7.8648779    175.43084  0.018790792  0.018872038            3 
  779000   0.95581044   -7.9029321     176.0778  0.018835879    0.0188555            5 
  780000   0.93788557   -7.9014291    175.79742  0.018781775  0.018838962            7 
  781000   0.96209143   -7.9371926    175.73373  0.018750932  0.018822254            7 
  782000   0.92606465   -7.9014101    176.05664  0.018761365  0.018805431            5 
  783000   0.94216924     -7.90189    175.65284  0.018694428  0.018788702            2 
  784000   0.94033918    -7.929902    176.18766   0.01872743  0.018772011            3 
  785000   0.91933481   -7.9046785    176.36517  0.018722417  0.018755434            4 
  786000   0.93643565   -7.9075346    176.67647  0.018731602   0.01873889            9 
  787000   0.92432231   -7.9040047    176.15991  0.018653104   0.01872241            5 
  788000   0.93017088   -7.9342459    176.41038   0.01865592   0.01870599            4 
  789000   0.94379513   -7.9320176    176.16574  0.018606436  0.018689349            3 
  790000   0.94229956   -7.9141835    176.90131  0.018660475  0.018672703            5 
  791000   0.94264242   -7.9383694     176.6287  0.018608165  0.018656261            2 
  792000   0.93304821   -7.8606848    177.66284   0.01869348   0.01863997            5 
  793000    0.9384214   -7.9782753    177.18234  0.018619413  0.018623711            2 
  794000   0.95039309   -7.9039664     177.7008  0.018650378  0.018607488            3 
  795000   0.93666808   -7.9034317    177.46237  0.018601925  0.018591308            3 
  796000   0.94879251   -7.9484854    177.85098   0.01861924  0.018575056            4 
  797000   0.95069908   -7.9803862    177.53543  0.018562884  0.018558756            3 
  798000   0.92297641   -7.9396659    177.74987  0.018562016  0.018542458            4 
  799000   0.95565356   -7.9434662    177.66367  0.018529795  0.018526274            5 
  800000   0.94131553   -7.8710431    178.17845  0.018560255  0.018510102            4 
  801000   0.92896176   -7.9463616    178.08819  0.018527693  0.018494124            8 
  802000   0.91847125   -7.9431805    178.37914  0.018534823  0.018478004            2 
  803000   0.92479773   -7.9622545    177.68788  0.018440004  0.018461851            5 
  804000   0.91995194   -7.9396724    178.24554  0.018474869  0.018445727            3 
  805000   0.93739958   -7.9156321    178.63994  0.018492747  0.018429641            7 
  806000   0.94788679   -7.8863499       178.37  0.018441894  0.018413712            2 
  807000   0.93040173   -7.9371409    178.40143  0.018422287  0.018397657            7 
  808000   0.92775522   -7.9371131    178.29455  0.018388464  0.018381601            4 
[...]
 1800000   0.53133346   -9.4620302    182.00895 0.0084263401 0.0067002109         3673 
 1801000   0.52860234   -9.4500074     182.3179 0.0084359568 0.0066936497         3685 
 1802000    0.5267471   -9.4477456    182.62056 0.0084452721 0.0066871003         3646 
 1803000   0.52017625     -9.44708    182.35071 0.0084281155 0.0066805593         3659 
 1804000   0.53566994   -9.4565576    182.37405  0.008424522  0.006674025         3651 
 1805000   0.54154817   -9.4438221    182.64367 0.0084323025 0.0066675035         3687 
 1806000   0.53975547   -9.4562201    182.50522 0.0084212449 0.0066609894         3663 
 1807000   0.53634103   -9.4509058    182.35512 0.0084096622 0.0066544799         3684 
 1808000   0.52661748   -9.4595646    182.22551  0.008399037 0.0066479809         3666 
 1809000   0.53048613   -9.4573792    182.23833  0.008394985 0.0066414921         3671 
 1810000   0.54263112   -9.4639827    182.29517 0.0083929636  0.006635007         3660 
 1811000   0.53084116   -9.4620594    182.34032  0.008390407 0.0066285314         3685 
 1812000   0.52766776   -9.4707364    182.34512  0.008385997 0.0066220647         3642 
 1813000   0.53884133   -9.4612248     182.3116  0.008379831 0.0066156149         3670 
 1814000   0.53109105   -9.4705413     182.3642 0.0083776275 0.0066091678         3674 
 1815000   0.52167522   -9.4598652    182.25284 0.0083678992 0.0066027345         3639 
 1816000   0.52259056    -9.453723    182.25655 0.0083634614 0.0065963025         3674 
 1817000    0.5231941   -9.4722319    182.34403 0.0083628707 0.0065898791         3658 
 1818000   0.54028564   -9.4663612    181.94696 0.0083400697 0.0065834605         3664 
 1819000   0.54698692   -9.4598305    182.09106 0.0083420863 0.0065770564         3675 
 1820000   0.53610863   -9.4671725    182.15402 0.0083403855 0.0065706616         3662 
 1821000   0.52009243   -9.4596067    182.30418 0.0083426772 0.0065642705         3653 
 1822000   0.52560221   -9.4531099    182.18996  0.008332874 0.0065578916         3646 
 1823000   0.53945679   -9.4635784    182.01532 0.0083203198 0.0065515188         3615 
 1824000   0.51820658   -9.4722272    182.11706 0.0083204065 0.0065451556         3681 
 1825000   0.51620607   -9.4739708     182.1012 0.0083151232 0.0065387957         3679 
 1826000   0.51871316   -9.4849651    182.40483 0.0083244264 0.0065324476         3707 
 1827000   0.51761534   -9.4597174    182.16951 0.0083091367 0.0065261069         3687 
 1828000   0.52423888   -9.4743118    182.03076 0.0082982657 0.0065197705         3661 
 1829000   0.50487091   -9.4819347    182.00992 0.0082927793 0.0065134478         3687 
 1830000   0.52108831   -9.4782206    181.88733 0.0082826652 0.0065071304         3665 
 1831000   0.52290714   -9.4797289    182.28351 0.0082961729 0.0065008207         3654 
 1832000   0.52952483    -9.476362    182.27256 0.0082911464 0.0064945186         3643 
 1833000   0.53111232   -9.4665738    182.24475 0.0082853588 0.0064882292         3654 
 1834000   0.53031456   -9.4940853    182.30702 0.0082836703 0.0064819455         3694 
 1835000   0.52567959   -9.4709814    182.15448 0.0082722287 0.0064756741         3684 
 1836000   0.51561517   -9.4877801    182.13907 0.0082670237 0.0064694113         3644 
 1837000   0.52489108   -9.4744722    182.27414  0.008268651 0.0064631538         3671 
 1838000   0.51650587   -9.4614463    182.27667 0.0082642669 0.0064569031         3664 
 1839000   0.51198466   -9.4732104    182.07481 0.0082506256 0.0064506579         3668 
 1840000   0.51221542   -9.4776158    182.11717 0.0082480604  0.006444426         3670 
 1841000   0.50927287   -9.4782545    182.07162 0.0082415183 0.0064381989         3676 
 1842000   0.53390571   -9.4645969    182.09455 0.0082380813 0.0064319771         3672 
 1843000   0.52570835   -9.4878941    182.08045 0.0082329736 0.0064257684         3657 
 1844000   0.52127683   -9.4645278    182.05571 0.0082273911 0.0064195712         3646 
 1845000   0.51043581   -9.4814077    182.31638 0.0082347056 0.0064133792         3660 
 1846000   0.52712167   -9.4696114     182.3208 0.0082304442 0.0064071989         3634 
 1847000   0.51282844   -9.4787015    182.04017 0.0082133265 0.0064010265         3646 
 1848000   0.51741483   -9.4855711    182.08337   0.00821083 0.0063948578         3664 
 1849000   0.51500591     -9.47228    182.24449  0.008213651  0.006388692         3630 
 1850000   0.51616959   -9.4782914    182.19984 0.0082071998 0.0063825407         3708 
 1851000   0.51813688   -9.4886444    181.84797 0.0081869246 0.0063763935         3656 
 1852000   0.51243252   -9.4697158    181.92884 0.0081861429 0.0063702537         3689 
 1853000   0.51706274   -9.4886313     182.0484 0.0081871021 0.0063641251         3641 
 1854000   0.50777665   -9.4851854    181.63683 0.0081641869 0.0063579993         3674 
 1855000   0.51202964   -9.4901468    182.06148 0.0081788625 0.0063518843         3704 
 1856000   0.51348452   -9.4796576    181.77794 0.0081617248 0.0063457805         3682 
 1857000   0.50632264   -9.4906574    182.16067  0.008174505 0.0063396846         3663 
 1858000   0.49992123   -9.4933806    182.04657 0.0081649879 0.0063335974         3693 
 1859000   0.51067677   -9.4991528    182.10912 0.0081633997 0.0063275118         3691 
 1860000   0.51210933   -9.4928426    181.77299 0.0081439514 0.0063214382         3665 
 1861000   0.52284734   -9.4861272    181.91366 0.0081458742 0.0063153739         3676 
 1862000   0.49581702   -9.5156928    182.01235  0.008145916  0.006309315         3670 
 1863000   0.50410453   -9.4902246    181.94094 0.0081383496 0.0063032581         3717 
 1864000    0.5099157   -9.4852924    182.17279 0.0081443486 0.0062972149         3693 
 1865000   0.50403898   -9.5014221    181.82639 0.0081245037 0.0062911805         3674 
 1866000   0.52508884   -9.4923479    181.94779 0.0081255711 0.0062851516         3711 
 1867000   0.49619814   -9.4859571    181.96759 0.0081221028 0.0062791346         3669 
 1868000   0.50823132   -9.4935213    182.05253 0.0081215441 0.0062731232         3694 
 1869000    0.5073144   -9.4938195    182.09888 0.0081192652 0.0062671203         3673 
 1870000   0.50418267   -9.4984424    182.08303 0.0081142171 0.0062611175         3723 
 1871000   0.51226351   -9.4917052    181.68913 0.0080923361 0.0062551275         3678 
 1872000   0.50090494   -9.4988988    181.90012 0.0080974055 0.0062491404         3688 
 1873000   0.50402915   -9.4955909    181.79298 0.0080883157 0.0062431644         3666 
 1874000   0.50746361   -9.5082392    182.04258 0.0080950985  0.006237196         3668 
 1875000   0.49892283   -9.4836166    182.06431 0.0080917471  0.006231236         3709 
 1876000   0.49617053   -9.4973228    182.17831 0.0080924979 0.0062252872         3663 
 1877000   0.50752311   -9.4899683     181.9177 0.0080766159 0.0062193416         3693 
 1878000   0.50661029   -9.4982002    181.80898 0.0080674911 0.0062133977         3720 
 1879000   0.51087103   -9.5105556    181.99044 0.0080712452 0.0062074686         3671 
 1880000   0.50254319    -9.489364    181.95019 0.0080651681 0.0062015488         3691 
 1881000   0.50703457   -9.4973428    181.86221 0.0080569824 0.0061956339         3664 
 1882000   0.50810377   -9.4991505    181.82101 0.0080508771 0.0061897286         3683 
 1883000    0.5071246   -9.5172338    181.69346  0.008040957 0.0061838332         3657 
 1884000   0.50245487   -9.5158413    181.61288 0.0080331246 0.0061779422         3685 
 1885000   0.51160409   -9.4918151    181.82781 0.0080383647 0.0061720575         3645 
 1886000    0.5013558   -9.5027473    181.73702 0.0080300912 0.0061661806         3713 
 1887000   0.49750325   -9.5002881    181.81526 0.0080292906 0.0061603121         3678 
 1888000   0.48756513    -9.502715    181.68952 0.0080194881 0.0061544506         3704 
 1889000   0.50021561   -9.5002308    181.98991 0.0080284945 0.0061486003         3686 
 1890000    0.4919952   -9.4984333    181.88644 0.0080196845 0.0061427584         3680 
 1891000   0.49919576   -9.4974001     181.8379 0.0080133044 0.0061369161         3681 
 1892000   0.50253427   -9.5114444    181.88132 0.0080109812 0.0061310781         3686 
 1893000    0.5058791   -9.5023393    181.95669 0.0080100672  0.006125256         3690 
 1894000   0.49519486   -9.5134807    181.95649 0.0080058293 0.0061194427         3710 
 1895000     0.490675   -9.5130605    181.81885 0.0079955518 0.0061136357         3679 
 1896000   0.49609601   -9.5040786    182.06799 0.0080022851 0.0061078397         3665 
 1897000   0.49213283   -9.5038009    181.69534 0.0079816963 0.0061020453         3716 
 1898000   0.48537991   -9.4983003    181.85313 0.0079844189 0.0060962569         3715 
 1899000   0.49493941   -9.5278293     181.3745 0.0079592112 0.0060904768         3693 
 1900000   0.49027633   -9.5208599    181.71392 0.0079699086 0.0060847024         3689 
 1901000   0.50451976   -9.5285122       181.84 0.0079712432 0.0060789345         3689 
 1902000   0.48983403   -9.5078797     181.5728 0.0079553454 0.0060731739         3683 
 1903000   0.47985686   -9.5254041    181.83937 0.0079628382  0.006067426         3673 
 1904000   0.48937163   -9.5290055    181.66806 0.0079511582 0.0060616813         3692 
 1905000   0.49357901   -9.5176905    181.88887 0.0079566437 0.0060559465         3725 
 1906000   0.50342161   -9.5163743    181.95132 0.0079551992 0.0060502182         3676 
 1907000   0.48423485   -9.5141649    181.98166 0.0079523534 0.0060444976         3731 
 1908000   0.49558998   -9.5136666    181.87379 0.0079434746 0.0060387842         3679 
 1909000   0.49853643   -9.5337718    181.72753 0.0079329285 0.0060330803         3668 
 1910000    0.4928439   -9.4896274    181.66472 0.0079260351 0.0060273843         3693 
 1911000   0.48686851   -9.5304866    181.84331  0.007929675 0.0060216914         3718 
 1912000   0.48870921    -9.513976    181.93972 0.0079297296 0.0060160065         3697 
 1913000   0.49372207   -9.5378132    181.85889 0.0079220635 0.0060103289         3702 
 1914000   0.48579592   -9.5297519    181.94327 0.0079215984 0.0060046651         3661 
 1915000   0.48709902    -9.529939    181.86376 0.0079140017 0.0059990057         3687 
 1916000   0.49286435   -9.5361919    181.70867 0.0079031259 0.0059933527         3737 
 1917000   0.48402658   -9.5349419    181.69848 0.0078985604 0.0059877057         3703 
 1918000    0.4880459    -9.530781    181.63662 0.0078917545 0.0059820611         3687 
 1919000   0.48760883   -9.5243705    181.71437 0.0078910182 0.0059764266         3715 
 1920000   0.48370743   -9.5271732    181.76024 0.0078888994  0.005970803         3671 
 1921000    0.4845563   -9.5163404    181.95958 0.0078934401 0.0059651829         3661 
 1922000   0.49511882   -9.5143038    182.00054 0.0078911089 0.0059595691         3717 
 1923000   0.49226372   -9.5191868    182.06915 0.0078899789 0.0059539662         3688 
 1924000   0.49245114    -9.530163     181.7204 0.0078707728 0.0059483683         3682 
 1925000    0.4865253   -9.5225576    181.59131 0.0078610957 0.0059427769         3680 
 1926000    0.4836091   -9.5436083    181.68249 0.0078609591 0.0059371898         3670 
 1927000   0.47593615   -9.5418858    181.53194 0.0078503693 0.0059316085         3666 
 1928000   0.48555343   -9.5222927    181.57841  0.007848306 0.0059260344         3670 
 1929000   0.47235791   -9.5328165    181.68213 0.0078487184 0.0059204717         3660 
 1930000   0.48215942   -9.5207052    181.76793 0.0078483562 0.0059149168         3708 
 1931000   0.48165488   -9.5313895    181.77287 0.0078445051 0.0059093688         3695 
 1932000   0.47276393   -9.5223482    181.46199 0.0078270354 0.0059038289         3705 
 1933000   0.48318817   -9.5269629    181.83241 0.0078389555 0.0058982932         3680 
 1934000   0.48025039   -9.5365486    181.73337 0.0078306345 0.0058927652         3652 
 1935000   0.48850244   -9.5376003    181.50942 0.0078169431 0.0058872416         3713 
 1936000   0.49252514   -9.5215377    181.70981 0.0078215312   0.00588173         3713 
 1937000    0.4840928   -9.5246691     181.5533   0.00781076 0.0058762253         3675 
 1938000   0.48692657   -9.5337904    181.71584 0.0078137186 0.0058707263         3686 
 1939000   0.48384339   -9.5251863    181.68864 0.0078085198 0.0058652335         3686 
 1940000   0.47723788   -9.5282718    181.78032 0.0078084329 0.0058597479         3694 
 1941000   0.46637422   -9.5558472    181.73126 0.0078023039 0.0058542705         3718 
 1942000   0.46764641   -9.5387153    181.43807 0.0077857051 0.0058487995         3671 
 1943000   0.47208452   -9.5473027    181.30116 0.0077758261 0.0058433377         3680 
 1944000   0.48195096    -9.528952    181.39811 0.0077759823 0.0058378779         3672 
 1945000   0.47089836   -9.5418408    181.46274  0.007774753 0.0058324272         3706 
 1946000   0.48329831   -9.5387504    181.58168 0.0077758514 0.0058269824         3679 
 1947000   0.48035235    -9.539755    181.73652 0.0077784849 0.0058215464         3723 
 1948000   0.46918969   -9.5350526    181.70525 0.0077731542 0.0058161211         3718 
 1949000   0.46509508   -9.5511168    181.58089 0.0077638488 0.0058106929         3694 
 1950000   0.47077547    -9.537364    181.22011 0.0077444492 0.0058052712         3682 
 1951000   0.48156513   -9.5484508    181.82355 0.0077662545 0.0057998604         3702 
 1952000   0.47220695   -9.5464878    181.78464 0.0077606149 0.0057944552         3705 
 1953000    0.4801106    -9.543439    181.64987 0.0077508903 0.0057890573         3728 
 1954000   0.47944064   -9.5370961    181.44912 0.0077383625 0.0057836644         3716 
 1955000   0.47024272   -9.5386502    181.65751 0.0077432867 0.0057782822         3697 
 1956000   0.46268639   -9.5446758    181.43408 0.0077298091  0.005772911         3678 
 1957000    0.4731771   -9.5366603    181.49004 0.0077282422 0.0057675452         3649 
 1958000   0.47228248   -9.5520632    181.79225 0.0077371573 0.0057621839         3680 
 1959000   0.46824933   -9.5406571    181.61533 0.0077256819 0.0057568281         3705 
 1960000   0.46997484   -9.5364124    181.22787 0.0077052667 0.0057514781         3715 
 1961000   0.46277567   -9.5475768    181.70173 0.0077214743 0.0057461335         3730 
 1962000    0.4728179    -9.566297    181.30631 0.0077007439 0.0057407975         3687 
 1963000    0.4638766   -9.5497443    181.42577  0.007701892 0.0057354651         3688 
 1964000   0.47190175   -9.5613421    181.39923 0.0076968442 0.0057301437         3707 
 1965000   0.46732255   -9.5577346    181.44303  0.007694785 0.0057248289         3673 
 1966000   0.47551915   -9.5506523     181.2724 0.0076836385 0.0057195199         3681 
 1967000   0.47572807   -9.5474747    181.47749  0.007688421 0.0057142204         3699 
 1968000   0.46296462   -9.5593818    181.71769 0.0076946855 0.0057089262         3696 
 1969000   0.45842373   -9.5470547    181.65745 0.0076882278 0.0057036393         3693 
 1970000   0.47094862   -9.5416196    181.43304 0.0076748323 0.0056983584         3688 
 1971000   0.46414875    -9.549115    181.24581 0.0076630224  0.005693082         3698 
 1972000   0.46773463    -9.542319    181.60962 0.0076745107 0.0056878135         3728 
 1973000    0.4820865   -9.5596268    181.34243 0.0076593355 0.0056825553         3701 
 1974000    0.4635314   -9.5467067    181.46042 0.0076604364 0.0056773001         3723 
 1975000   0.46058949   -9.5503055    181.51259 0.0076587589 0.0056720518         3691 
 1976000   0.46214522   -9.5506871    181.65592  0.007660928 0.0056668096         3676 
 1977000   0.47149945    -9.552629    181.47279 0.0076493335 0.0056615747         3656 
 1978000    0.4720951   -9.5569643    181.49173 0.0076462642 0.0056563431         3667 
 1979000   0.46750817   -9.5567468    181.61158 0.0076474473 0.0056511162         3662 
 1980000   0.46451206   -9.5621815    181.22862 0.0076274672 0.0056459003         3697 
 1981000   0.46149276    -9.549776    181.55719 0.0076374386 0.0056406923         3688 
 1982000   0.46276091   -9.5563486    181.27672 0.0076217926 0.0056354899         3704 
 1983000   0.45793128   -9.5545025    181.38712 0.0076225886 0.0056302943         3673 
 1984000    0.4528662   -9.5513726    181.27503 0.0076140388 0.0056251058         3685 
 1985000   0.46716242   -9.5672318    181.44201  0.007617213 0.0056199198         3714 
 1986000   0.46775616   -9.5540233     181.1376  0.007600604 0.0056147405         3690 
 1987000   0.45934376   -9.5637645    181.48314 0.0076112706 0.0056095737         3709 
 1988000   0.45915723   -9.5506109    181.50843 0.0076085024 0.0056044111         3740 
 1989000   0.46050241    -9.570953    181.46899 0.0076030247 0.0055992511         3687 
 1990000   0.45583565    -9.582464    181.38233 0.0075955751 0.0055941002         3696 
 1991000   0.45629503   -9.5553666    181.52108 0.0075975673 0.0055889548         3691 
 1992000   0.45802531   -9.5656992    181.34754 0.0075864937 0.0055838127         3677 
 1993000   0.47229342   -9.5625748    181.43032 0.0075861481 0.0055786802         3712 
 1994000   0.44961516   -9.5767729    181.33634 0.0075784161 0.0055735566         3705 
 1995000   0.47200996   -9.5778399    181.31895 0.0075738909 0.0055684359         3707 
 1996000   0.44570988   -9.5740098    181.61875 0.0075826131 0.0055633239         3705 
 1997000   0.45777801   -9.5810348    181.27334 0.0075644026  0.005558215         3681 
 1998000   0.45081798   -9.5799963    181.17557 0.0075565387 0.0055531139         3737 
 1999000   0.44982612   -9.5796679    181.47817 0.0075653732  0.005548021         3688 
 2000000   0.46028271   -9.5788983    181.27624 0.0075531768 0.0055429364         3719 
 2001000   0.44484175   -9.5781779    181.45395 0.0075568028 0.0055378543         3726 
 2002000   0.46930206   -9.5583986    181.24062 0.0075441483 0.0055327811         3696 
 2003000   0.44942068   -9.5683723    181.23681 0.0075402232 0.0055277133         3706 
 2004000    0.4585653   -9.5750427     181.6328 0.0075529276 0.0055226505         3689 
 2005000   0.45439013   -9.5760359    181.15331 0.0075292315 0.0055175949         3703 
 2006000   0.45035274   -9.5766188    181.37562 0.0075347134 0.0055125459         3705 
 2007000   0.44387355   -9.5634461     181.2243 0.0075246761 0.0055075004         3681 
 2008000   0.45278762   -9.5639181    181.10694 0.0075160582 0.0055024617         3691 
 2009000   0.45329593   -9.5750995    181.27778 0.0075194037 0.0054974248         3692 
 2010000   0.45242825   -9.5776271    181.27695 0.0075156283 0.0054923981         3702 
 2011000   0.45586804   -9.5574769    181.16823 0.0075073858 0.0054873791         3681 
 2012000   0.45008249   -9.5730265    181.16753 0.0075036252 0.0054823679         3736 
Loop time of 5133.49 on 48 procs for 2000000 steps with 4000 atoms

Performance: 67322.614 tau/day, 389.598 timesteps/s
99.4% CPU use with 48 MPI tasks x no OpenMP threads

MPI task timing breakdown:
Section |  min time  |  avg time  |  max time  |%varavg| %total
---------------------------------------------------------------
Pair    | 361.43     | 386.91     | 417.81     |  66.7 |  7.54
Neigh   | 35.104     | 36.763     | 38.284     |  11.7 |  0.72
Comm    | 317.34     | 355.7      | 388.25     |  79.4 |  6.93
Output  | 5.688      | 5.6901     | 5.7402     |   0.3 |  0.11
Modify  | 4283.4     | 4299.6     | 4313.6     |  12.5 | 83.76
Other   |            | 48.81      |            |       |  0.95

Nlocal:        83.3333 ave          89 max          75 min
Histogram: 2 0 6 2 5 5 9 9 4 6
Nghost:        2375.15 ave        2401 max        2356 min
Histogram: 4 6 7 5 7 8 3 4 2 2
Neighs:        16279.7 ave       18899 max       13557 min
Histogram: 2 6 5 3 6 6 7 6 5 2
FullNghs:      32559.0 ave       35315 max       28983 min
Histogram: 2 2 2 5 8 6 9 5 4 5

Total # of neighbors = 1562833
Ave neighs/atom = 390.70825
Neighbor list builds = 106477
Dangerous builds = 0

#clear
#
#next RN
#
#jump SELF
Total wall time: 1:25:37
