
units lj                  # Use reduced LJ style units
atom_style atomic         # Uncharged point particles
atom_modify map hash      # Needed for indexing of clusters etc
                          # Used to be able to find where atoms are in relation to each other.

# Define a lattice with which to populate the simulation cell. With units
# set to 'lj' the second argument to the lattice command is the reduced
# density rho* and the spacings are multiples of that required to acheive
# that density. Also define a simulation cell called 'box' in lattice units
# and fill it with atoms. Here we're creating a box which is ten lattice
# constants in each direction.
lattice fcc 1.0 spacing 1 1 1                 # All equal sizes - gives the right reduced density.
Lattice spacing in x,y,z = 1.5874011 1.5874011 1.5874011

region box block 0 10 0 10 0 10 units lattice # Defines a region, "box", in lattice units
create_box 1 box                              # Creates a simulation box as specified above,
Created orthogonal box = (0.0000000 0.0000000 0.0000000) to (15.874011 15.874011 15.874011)
  2 by 3 by 3 MPI processor grid
                                              # with one type of atom
create_atoms 1 box                            # Creates particles on lattice points
Created 4000 atoms
  using lattice units in orthogonal box = (0.0000000 0.0000000 0.0000000) to (15.874011 15.874011 15.874011)
  create_atoms CPU = 0.003 seconds


# Set the mass of the first (and only) atom type.
mass 1 1.0

# Lennard-Jones interactions between particles, 3.5 sigma cut-off. Apply
# long range tail corrections to energy and pressure and set all coefficients
# to unity since we work in reduced units here. Note that this doesn't shift
# the potential such that it goes to zero at the cutoff. That would require
# pair_modify('shift', 'yes').
pair_style lj/cut  3.5      # non-GPU version
pair_modify tail  yes
pair_coeff 1  1  1.0  1.0   # Intearaction between 1 and 1 set with epsilon = 1 and sigma = 1

write_data data.*
System init for write_data ...
Neighbor list info ...
  update every 1 steps, delay 10 steps, check yes
  max neighbors/atom: 2000, page size: 100000
  master list distance cutoff = 3.8
  ghost atom cutoff = 3.8
  binsize = 1.9, bins = 9 9 9
  1 neighbor lists, perpetual/occasional/extra = 1 0 0
  (1) pair lj/cut, perpetual
      attributes: half, newton on
      pair build: half/bin/atomonly/newton
      stencil: half/bin/3d
      bin: standard

#############################
#   M E L T   S Y S T E M   #
#############################

velocity all create 2.4 8172548 mom yes dist gaussian # Assign velocities
                                                    # Temperature 2.4, random number seed, zero linear momentum
						                                                        # Gaussian distribution

timestep 0.002   # simulation timestep
thermo 100       # output thermodynamic data every 100 steps

# Define a fix  in this case with index 1 applied to all
# particles in the simulation. This fix is for simulations
# in the anisotropic NPT ensemble. Note that we use the MTK
# correction.
fix 1 all npt temp 2.4 2.4 0.1 iso 5.68 5.68 0.5 mtk yes tchain 5 pchain 5 # Use NPT ensemble
                                                                         # Set temperature and pressure and damping
                                                                         # Numbers of thermostats in chain and in barostat
run 1000         # run for 10000 steps
Per MPI rank memory allocation (min/avg/max) = 3.680 | 3.683 | 3.691 Mbytes
Step Temp E_pair E_mol TotEng Press Volume 
       0          2.4   -8.3859253            0   -4.7868253   -2.2405722         4000 
     100    1.2521358   -6.5115055            0   -4.6337712    5.4508644    4089.6042 
     200    1.4689284   -6.2983762            0   -4.0955344    6.0837578    4137.2801 
     300    1.5740251   -6.0110759            0   -3.6506285    5.8428293    4272.3887 
     400    1.7007621   -5.7248177            0   -3.1743123    5.9311621    4395.3486 
     500    1.8066394   -5.4467078            0   -2.7374262    5.7861894     4545.589 
     600    1.8844107   -5.1406616            0   -2.3147521    5.8323888    4700.1474 
     700    2.0254849   -4.9242047            0    -1.886737    5.8268404    4833.6959 
     800    2.1385093   -4.7031284            0   -1.4961664    5.8326966    4964.1584 
     900    2.2562357   -4.5439597            0   -1.1604522    5.8538779    5071.7859 
    1000    2.3669211   -4.4724005            0  -0.92290647    5.7399528    5154.5285 
Loop time of 0.556226 on 18 procs for 1000 steps with 4000 atoms

Performance: 310664.928 tau/day, 1797.829 timesteps/s
99.5% CPU use with 18 MPI tasks x no OpenMP threads

MPI task timing breakdown:
Section |  min time  |  avg time  |  max time  |%varavg| %total
---------------------------------------------------------------
Pair    | 0.31762    | 0.34223    | 0.36811    |   2.4 | 61.53
Neigh   | 0.061632   | 0.064713   | 0.067485   |   0.7 | 11.63
Comm    | 0.095508   | 0.12087    | 0.14453    |   3.9 | 21.73
Output  | 0.00022073 | 0.00022945 | 0.00031504 |   0.0 |  0.04
Modify  | 0.022207   | 0.025256   | 0.029358   |   1.5 |  4.54
Other   |            | 0.002926   |            |       |  0.53

Nlocal:        222.222 ave         234 max         214 min
Histogram: 2 3 0 3 1 4 2 2 0 1
Nghost:        2030.39 ave        2051 max        2008 min
Histogram: 1 1 1 2 3 4 3 1 1 1
Neighs:        19703.8 ave       21135 max       18594 min
Histogram: 1 3 3 1 1 4 2 2 0 1

Total # of neighbors = 354669
Ave neighs/atom = 88.667250
Neighbor list builds = 86
Dangerous builds = 10

# Equilibrate just above the melting temperature to avoid step fn in T

fix 1 all npt temp 1.25 1.25 0.1 iso 5.68 5.68 0.5 mtk yes tchain 5 pchain 5
run 1000
Per MPI rank memory allocation (min/avg/max) = 3.680 | 3.684 | 3.691 Mbytes
Step Temp E_pair E_mol TotEng Press Volume 
    1000    2.3669211   -4.4724005            0  -0.92290647    5.7399528    5154.5285 
    1100    1.9578949   -4.6918684            0   -1.7557603    5.6487477    4991.6913 
    1200    1.7396677   -4.9813711            0   -2.3725219    5.5906411    4811.1244 
    1300    1.5731527   -5.2038437            0   -2.8447047    5.7283734     4660.157 
    1400    1.4617969   -5.4064956            0   -3.2143485    5.7429155    4548.2287 
    1500    1.3856267   -5.5768053            0   -3.4988849    5.5616911    4480.7352 
    1600    1.2965183   -5.6686791            0   -3.7243878    5.5183337    4437.4897 
    1700    1.2706454   -5.7482266            0   -3.8427351     5.587581    4391.7293 
    1800    1.2485176   -5.8146125            0   -3.9423043    5.4355018     4375.335 
    1900    1.2452702    -5.820016            0   -3.9525776    5.6724499    4352.6927 
    2000     1.271515   -5.8429821            0   -3.9361864    5.6243904    4346.3347 
Loop time of 0.538439 on 18 procs for 1000 steps with 4000 atoms

Performance: 320927.864 tau/day, 1857.221 timesteps/s
99.7% CPU use with 18 MPI tasks x no OpenMP threads

MPI task timing breakdown:
Section |  min time  |  avg time  |  max time  |%varavg| %total
---------------------------------------------------------------
Pair    | 0.32796    | 0.34191    | 0.35778    |   1.5 | 63.50
Neigh   | 0.055156   | 0.056803   | 0.058974   |   0.4 | 10.55
Comm    | 0.095457   | 0.11075    | 0.12389    |   2.5 | 20.57
Output  | 0.00021915 | 0.00022739 | 0.00029325 |   0.0 |  0.04
Modify  | 0.022743   | 0.025256   | 0.030076   |   1.5 |  4.69
Other   |            | 0.003496   |            |       |  0.65

Nlocal:        222.222 ave         228 max         215 min
Histogram: 1 0 1 3 2 3 5 0 0 3
Nghost:        2236.78 ave        2249 max        2225 min
Histogram: 2 1 1 2 2 5 1 1 2 1
Neighs:        23340.2 ave       24347 max       22415 min
Histogram: 1 1 3 2 3 2 3 1 0 2

Total # of neighbors = 420123
Ave neighs/atom = 105.03075
Neighbor list builds = 75
Dangerous builds = 7


# Small amount of linear quench

fix 1 all npt temp 1.25 ${temp} 0.1 iso 5.68 5.68 0.5 mtk yes tchain 5 pchain 5
fix 1 all npt temp 1.25 0.69 0.1 iso 5.68 5.68 0.5 mtk yes tchain 5 pchain 5
run 2000
Per MPI rank memory allocation (min/avg/max) = 3.680 | 3.684 | 3.691 Mbytes
Step Temp E_pair E_mol TotEng Press Volume 
    2000     1.271515   -5.8429821            0   -3.9361864    5.6243904    4346.3347 
    2100    1.2237214   -5.8470413            0   -4.0119181    5.6354538    4344.6078 
    2200    1.2315228   -5.8720708            0   -4.0252484    5.7082714     4327.457 
    2300    1.1935018   -5.9143449            0   -4.1245398     5.507446    4323.6974 
    2400    1.1580737   -5.9567887            0   -4.2201124    5.3928686    4313.3051 
    2500    1.1495133   -6.0128487            0   -4.2890098    5.3871669    4287.2833 
    2600    1.0937613   -6.0209928            0    -4.380761    5.5111948     4270.959 
    2700    1.0835811   -6.0570066            0   -4.4320413    5.7440623     4237.775 
    2800    1.0633911   -6.0941476            0   -4.4994597    5.8921928    4208.8173 
    2900    1.0493805   -6.1639784            0   -4.5903012    5.8082523    4188.1397 
    3000    1.0157003   -6.2264558            0   -4.7032863    5.6319491    4173.4772 
    3100   0.98175684   -6.2710248            0   -4.7987577    5.6011547    4158.1124 
    3200   0.94128689   -6.3016218            0   -4.8900445     5.636646    4144.1714 
    3300   0.91666907   -6.3492969            0   -4.9746371    5.6329109     4121.202 
    3400   0.89378632   -6.4034925            0   -5.0631481    5.6275898    4102.8297 
    3500   0.87860674   -6.4667011            0   -5.1491205    5.4535453    4089.6476 
    3600   0.82537978   -6.4740389            0   -5.2362787    5.6685377    4068.9526 
    3700   0.82230558   -6.5312653            0   -5.2981153    5.8008168    4038.3529 
    3800   0.78088422   -6.5791921            0   -5.4081586    5.5969277    4034.2042 
    3900   0.74917016   -6.6132591            0   -5.4897848    5.5731189    4020.8169 
    4000   0.71874407   -6.6494203            0   -5.5715737    5.6474976    4001.6018 
Loop time of 1.12661 on 18 procs for 2000 steps with 4000 atoms

Performance: 306759.636 tau/day, 1775.229 timesteps/s
99.7% CPU use with 18 MPI tasks x no OpenMP threads

MPI task timing breakdown:
Section |  min time  |  avg time  |  max time  |%varavg| %total
---------------------------------------------------------------
Pair    | 0.715      | 0.74787    | 0.79253    |   2.5 | 66.38
Neigh   | 0.092837   | 0.094542   | 0.096879   |   0.4 |  8.39
Comm    | 0.18525    | 0.22566    | 0.24988    |   3.9 | 20.03
Output  | 0.00043292 | 0.00045092 | 0.00056962 |   0.0 |  0.04
Modify  | 0.043932   | 0.050586   | 0.06204    |   2.6 |  4.49
Other   |            | 0.0075     |            |       |  0.67

Nlocal:        222.222 ave         229 max         217 min
Histogram: 4 0 1 3 1 6 0 1 1 1
Nghost:        2358.44 ave        2377 max        2343 min
Histogram: 4 1 1 0 3 3 2 2 0 2
Neighs:        25524.0 ave       27239 max       23985 min
Histogram: 1 1 2 4 4 1 1 1 2 1

Total # of neighbors = 459432
Ave neighs/atom = 114.85800
Neighbor list builds = 120
Dangerous builds = 0

#############################
# F R E E Z E  S Y S T E M  #
#############################

# Define solid atoms. This closely follows ten Wolde  Ruiz-Montero and Frenkel  Faraday Discuss  1996  104  93-110
# Compute components of the per-atom q6 vector
compute q6 all orientorder/atom degrees 1 6 components 6 nnn NULL cutoff 1.3 # compute the Q6 parameter.
                                                                             # Use all neighbours within 1.3 unit cell.

# get number of connections
compute coord_number all coord/atom orientorder q6 0.5

# An atom is solid if it has 8 or more connections (of a possible 14)
variable is_solid atom c_coord_number>=8
group solid dynamic all var is_solid    # Must be dynamic to update
dynamic group solid defined

# do clustering
compute cluster solid cluster/atom 1.3 # Create a cluster where all atoms within are solid and max 1.3 units from another member

# define chunks one chunk per cluster
compute clus_chunks solid chunk/atom c_cluster nchunk every compress yes  # Says which atoms are in which chunk

# count the size of each chunk
compute size_chunks solid property/chunk clus_chunks count


# Find the maximum entry in the vector of chunk sizes
variable max_n equal max(c_size_chunks)


# Thermo style which includes this variable
thermo_style custom step temp pe vol v_max_n

thermo ${N}  # Print the thermo information every 100 steps
thermo 100  

# Reset the npt fix at a lower temperature (below freezing)
fix 1  all npt temp  ${temp} ${temp}  0.1  iso  5.68  5.68  0.5  mtk yes tchain  5  pchain  5
fix 1  all npt temp  0.69 ${temp}  0.1  iso  5.68  5.68  0.5  mtk yes tchain  5  pchain  5
fix 1  all npt temp  0.69 0.69  0.1  iso  5.68  5.68  0.5  mtk yes tchain  5  pchain  5

dump dmp2 all dcd ${N} traj_${rand}.dcd
dump dmp2 all dcd 100 traj_${rand}.dcd
dump dmp2 all dcd 100 traj_462431.dcd


# fix rnuntil all halt ${N} v_max_n >= 3980 error soft message no   # Stop when solidified


run 100000 # 5000000  # Run for this many steps
Neighbor list info ...
  update every 1 steps, delay 10 steps, check yes
  max neighbors/atom: 2000, page size: 100000
  master list distance cutoff = 3.8
  ghost atom cutoff = 3.8
  binsize = 1.9, bins = 9 9 9
  4 neighbor lists, perpetual/occasional/extra = 1 3 0
  (1) pair lj/cut, perpetual
      attributes: half, newton on
      pair build: half/bin/atomonly/newton
      stencil: half/bin/3d
      bin: standard
  (2) compute orientorder/atom, occasional
      attributes: full, newton on
      pair build: full/bin/atomonly
      stencil: full/bin/3d
      bin: standard
  (3) compute coord/atom, occasional
      attributes: full, newton on
      pair build: full/bin/atomonly
      stencil: full/bin/3d
      bin: standard
  (4) compute cluster/atom, occasional
      attributes: full, newton on
      pair build: full/bin/atomonly
      stencil: full/bin/3d
      bin: standard
Per MPI rank memory allocation (min/avg/max) = 9.510 | 9.514 | 9.518 Mbytes
Step Temp PotEng Volume v_max_n 
    4000   0.71874407   -6.6494203    4001.6018           15 
    4100   0.71370919   -6.6897217    3982.7149           16 
    4200    0.6987108   -6.7149021    3970.0251           21 
    4300   0.68252824   -6.7306893    3970.3894           14 
    4400   0.67870372   -6.7620649    3967.5781           12 
    4500   0.69487945   -6.7759475    3969.5652           25 
    4600   0.68000836   -6.7555964    3952.4549           21 
    4700   0.69136354   -6.7549438    3943.0107            9 
    4800   0.69212672   -6.7577221    3955.9506           10 
    4900   0.69625723   -6.7697312    3958.0614           14 
    5000    0.6880972   -6.7880676    3955.1641           12 
    5100   0.69304814   -6.8090027    3947.0173           17 
    5200   0.67100243   -6.8150996    3942.6141           26 
    5300   0.68925361   -6.8140341    3946.3233           28 
    5400   0.69035048   -6.8140641    3936.5887           20 
    5500   0.69500269   -6.8165103    3938.3052           14 
    5600   0.70726436   -6.8075457    3951.0537           23 
    5700   0.69049973   -6.8078551    3944.5792           23 
    5800   0.69717803   -6.8132002    3934.6035           17 
    5900   0.69031681   -6.8132486    3927.4747           18 
    6000    0.6712807   -6.8341214    3938.2079           22 
    6100   0.68948613    -6.831846    3942.5344           18 
    6200   0.69561527   -6.8179061    3943.9355           11 
    6300   0.68097813   -6.8091516    3935.9626           14 
    6400   0.69928684   -6.8336093    3939.1371           25 
    6500   0.67477446   -6.8430548    3945.2375           17 
    6600   0.67852329   -6.8261628    3934.0479           18 
    6700   0.68240189   -6.8422894    3928.3847           17 
    6800   0.70475833   -6.8203216    3926.1146           27 
    6900   0.68703404   -6.8157728    3935.4425           16 
    7000   0.68850973   -6.8175697    3943.9916           12 
    7100   0.67964271   -6.8419182    3943.5605           23 
    7200   0.67676649   -6.8214909    3932.5198           21 
    7300   0.69111416   -6.8241622    3929.3154           26 
    7400   0.69529538   -6.8213837    3931.0163           29 
    7500   0.69433816    -6.870183    3932.1483           12 
    7600   0.67690928   -6.8237897    3925.4443           19 
    7700   0.70511953   -6.8455148    3935.0406           27 
    7800   0.68934598   -6.8270119    3933.8178            9 
    7900   0.67527083   -6.8527352    3934.4986           32 
    8000   0.68125077   -6.8388481    3935.5947           12 
    8100   0.69643845   -6.8332827    3928.4142           11 
    8200   0.67658287   -6.8619801    3925.6674           18 
    8300   0.69364193   -6.8696592    3930.1389           22 
    8400   0.67889241   -6.8273376     3927.155           14 
    8500   0.70163549   -6.8414324    3921.1623           17 
    8600   0.70074733    -6.861043     3924.575           23 
    8700   0.70353384   -6.8383955     3935.081           27 
    8800   0.69009933   -6.8383236     3930.763           44 
    8900   0.69127082   -6.8544827    3921.9957           39 
    9000   0.68349056   -6.8445602    3937.9951           45 
    9100   0.69512388   -6.8544132    3931.1676           58 
    9200   0.68681277    -6.855086    3917.7843           94 
    9300   0.69728275    -6.866875    3929.3355          101 
    9400   0.67796467   -6.8584303    3935.9542           50 
    9500   0.68500797   -6.8471695    3926.5073           92 
    9600   0.69412348   -6.8361744    3922.8398           79 
    9700    0.6993859   -6.8655401     3927.727           53 
    9800   0.69791531   -6.8465603    3914.9001           84 
    9900   0.69567928   -6.8573324     3922.523           82 
   10000   0.70291087   -6.8535881    3938.1928           83 
   10100   0.68294595   -6.8530394    3935.5804           45 
   10200   0.68741074   -6.8525835    3929.0353           51 
   10300   0.67752491   -6.8313221    3925.0098          126 
   10400   0.69534039   -6.8377413    3934.1401           54 
   10500   0.69644754   -6.8546191    3939.9009          109 
   10600   0.68072026   -6.8457777    3916.2147          119 
   10700   0.70535085   -6.8715282    3925.7645          136 
   10800   0.68520103   -6.8597044    3931.1602           81 
   10900   0.67202746   -6.8746969    3921.5531           62 
   11000   0.68902925   -6.8588364    3920.2331           84 
   11100   0.69693273   -6.8456784    3922.1355           93 
   11200   0.69837975   -6.8530221     3919.012          104 
   11300   0.69724438   -6.8645289    3924.3317           52 
   11400   0.69539615   -6.8432384    3925.1805           43 
   11500   0.68104879    -6.848136    3936.4033           69 
   11600   0.67712555   -6.8617492    3936.8559           80 
   11700    0.6825625   -6.8567723    3927.0435           85 
   11800   0.71048466   -6.8699464    3919.2195           74 
   11900   0.68405956   -6.8393821    3923.1556           71 
   12000   0.70252439    -6.837252    3936.2957           88 
   12100   0.69480209   -6.8227431    3925.4012          108 
   12200   0.69471675    -6.864051    3934.6291          136 
   12300    0.6856454   -6.8764076    3926.3695          119 
   12400   0.67643416   -6.8757973    3917.9027           89 
   12500   0.68495154   -6.8504632    3925.7506          121 
   12600   0.69200513   -6.8605014    3918.9359          150 
   12700   0.69670715   -6.8698341    3914.9113          138 
   12800    0.6877846   -6.8262566    3925.7967          113 
   12900   0.69834901   -6.8767797    3942.6505          100 
   13000   0.68329602   -6.8615185    3928.5394          120 
   13100   0.69194487   -6.8514841    3912.9895          121 
   13200   0.68846325   -6.8781083    3929.1963          103 
   13300   0.69421106     -6.86126    3939.4484          111 
   13400   0.68709677   -6.8458748    3921.7216           96 
   13500   0.68504154   -6.8699682    3912.7897          112 
   13600   0.68343144   -6.8669454    3919.9283          109 
   13700    0.6828724   -6.8446661    3934.8762          198 
   13800   0.68376162    -6.829277    3935.6341          159 
   13900   0.67976966   -6.8426973     3935.643          127 
   14000   0.68224687   -6.8542998    3928.8881          156 
   14100   0.67151528   -6.8496051     3935.665          130 
   14200   0.68832527   -6.8419075    3931.1319          171 
   14300   0.69537021   -6.8513961    3929.0514          183 
   14400   0.69291528   -6.8415823    3934.1753          178 
   14500   0.69965919   -6.8714249    3926.3551          297 
   14600   0.68374536   -6.8740115    3921.9097          180 
   14700   0.69292394   -6.8478629    3926.1329          222 
   14800   0.67173876    -6.847158    3923.8045          165 
   14900   0.67726956   -6.8793532    3929.0366          153 
   15000   0.68549286   -6.8550404    3924.1183          133 
   15100   0.68952143   -6.8465499    3917.7832          131 
   15200   0.69847503   -6.8440707    3930.2867          112 
   15300   0.68865015   -6.8646147    3920.1569          150 
   15400   0.69589333   -6.8611847    3914.0977          119 
   15500   0.70492858   -6.8577323    3930.9879          155 
   15600   0.67742778   -6.8767492    3937.0381          252 
   15700   0.67687339   -6.8691403    3924.8885          239 
   15800    0.6838126   -6.8735241    3910.1619          145 
   15900   0.69818256   -6.8714609    3914.5917          137 
   16000   0.68684277   -6.8932667    3927.5488          318 
   16100   0.69756974   -6.8794891     3927.044          228 
   16200   0.69846338   -6.8650462    3928.0404          130 
   16300    0.6875013   -6.8685527    3914.4224           88 
   16400   0.68296648   -6.8771679    3914.7008          151 
   16500   0.69463868   -6.8570975     3928.772          109 
   16600   0.69399673   -6.8413001    3927.1659           93 
   16700    0.6909574   -6.8427235    3928.3538          128 
   16800   0.68661224   -6.8767654    3920.9496          139 
   16900   0.69805843   -6.8767049    3921.9305          146 
   17000   0.69592248    -6.840391    3926.6965          139 
   17100   0.68804425   -6.8466467    3924.4418          148 
   17200    0.6882292   -6.8721477      3931.98          214 
   17300   0.68056373   -6.8605453    3922.0468          258 
   17400   0.69925133   -6.8675395    3918.7601          346 
   17500   0.68710692   -6.8443919    3923.6196          158 
   17600    0.6775752   -6.8795271    3918.2239          176 
   17700   0.69228788   -6.8736193    3922.8891          164 
   17800   0.69141662   -6.8811312    3923.4355          149 
   17900   0.68567829   -6.8970041    3916.4394          180 
   18000   0.68879452   -6.8674464    3908.9809          200 
   18100   0.70714039   -6.9001954    3922.7245          192 
   18200   0.68760619   -6.9040442    3922.1028          128 
   18300   0.68145051   -6.8809683    3920.0099          201 
   18400   0.70570273   -6.8835595    3915.8368          208 
   18500   0.68122892   -6.8682267    3910.1003          206 
   18600   0.68190418    -6.864997    3912.6531          204 
   18700    0.6797879   -6.8896608    3932.0297          168 
   18800   0.69765454   -6.8965725    3940.2367          188 
   18900   0.69159256   -6.8743013    3922.9014          221 
   19000   0.68649512   -6.8744734    3916.4595          175 
   19100   0.68942265   -6.9013119    3919.4158          381 
   19200   0.67992743   -6.9067797    3915.5444          212 
   19300    0.6861832    -6.868755    3912.5627          437 
   19400   0.70291799   -6.8815799    3920.0748          448 
   19500    0.7128398   -6.8646733    3922.2271          185 
   19600   0.70503711   -6.8829765    3912.8146          407 
   19700   0.69352427   -6.8830763    3910.7116          399 
   19800    0.6965604   -6.8770247    3916.7106          437 
   19900    0.6856807   -6.8806819    3926.3145          235 
   20000   0.68163121   -6.8722507     3923.514          182 
   20100   0.68648484   -6.8799427    3921.7107          258 
   20200   0.68334741   -6.8861672    3909.6421          461 
   20300   0.67550695   -6.8810041    3905.4652          462 
   20400   0.69557167   -6.8899791     3923.912          397 
   20500   0.68704334   -6.8931292    3919.3581          270 
   20600    0.6822434   -6.8963665    3912.3212          426 
   20700   0.69195692   -6.8658164    3918.8672          279 
   20800   0.68991191   -6.8658153    3914.0051          398 
   20900   0.66797362   -6.8835017    3920.3667          403 
   21000   0.68000027   -6.8936597    3922.2963          473 
   21100   0.69785224   -6.9082689    3909.5106          473 
   21200   0.68874383   -6.9088723    3892.1879          502 
   21300   0.68731486    -6.899174    3910.6203          508 
   21400   0.68812986   -6.8925369    3924.3155          441 
   21500   0.69062517   -6.8944365    3920.4875          457 
   21600   0.70706189   -6.9003492    3914.5186          566 
   21700   0.68912919   -6.8991826    3911.1169          503 
   21800   0.67294176   -6.8948448    3907.3277          544 
   21900   0.68691715   -6.8932625    3906.5795          512 
   22000   0.69772492   -6.8889851    3911.5144          524 
   22100   0.68105956   -6.8766384    3918.5233          542 
   22200   0.67587493   -6.8954396    3927.9417          539 
   22300   0.69135605   -6.8828016    3926.8084          499 
   22400   0.68088334   -6.8748427    3912.5991          261 
   22500   0.69140811   -6.8866184    3916.5739          547 
   22600   0.70154734   -6.8902006     3927.099          642 
   22700   0.69914591   -6.8581321    3927.1294          550 
   22800   0.68360421   -6.8760145     3923.794          517 
   22900   0.68151467   -6.8912022    3910.0487          527 
   23000   0.69960708   -6.8898988    3906.8665          499 
   23100   0.70779234   -6.8906553    3917.4321          540 
   23200   0.67166138   -6.8855064    3919.3264          543 
   23300    0.6979668   -6.9186949    3922.4688          567 
   23400   0.68143039    -6.895522    3910.9115          528 
   23500   0.68319233   -6.8891264    3904.3863          553 
   23600   0.70192497   -6.9010736    3920.6209          587 
   23700   0.67823669   -6.8840169    3917.8084          474 
   23800   0.68521772   -6.8876971     3911.675          510 
   23900    0.6828647   -6.8897883     3911.594          521 
   24000   0.69209509   -6.9114366    3916.5177          528 
   24100   0.69885658   -6.8974019    3913.7027          537 
   24200   0.69047685   -6.8809555     3917.754          501 
   24300   0.68722609   -6.9085552    3912.6699          535 
   24400   0.68657028   -6.8964384    3894.8961          596 
   24500   0.68262873   -6.9141245    3895.9316          590 
   24600   0.68828794   -6.9047432    3916.3001          538 
   24700   0.68698887   -6.9230784    3915.6721          560 
   24800   0.68448139   -6.8980702    3904.1625          577 
   24900   0.68696935   -6.8787867    3902.6336          596 
   25000   0.68453776   -6.9296033    3912.9874          591 
   25100   0.69049994   -6.9136683    3903.3404          588 
   25200   0.70269408   -6.8906044    3910.7672          603 
   25300   0.69124493   -6.8916674    3907.3568          591 
   25400   0.68576854   -6.9054186    3912.1738          537 
   25500   0.70033129   -6.8937658    3913.1061          476 
   25600   0.69434238   -6.9031541    3905.8232          594 
   25700   0.69535835   -6.9246983    3907.4462          611 
   25800    0.7012798   -6.9158517    3899.9881          651 
   25900   0.70392203   -6.9179835    3906.0501          670 
   26000   0.68171272   -6.9152514    3910.3888          632 
   26100   0.68367608   -6.9287116    3916.6284          720 
   26200   0.69220369   -6.9099601    3910.0298          681 
   26300   0.69231573    -6.921341    3889.7662          713 
   26400   0.69923956    -6.908689    3893.3903          744 
   26500   0.70410887   -6.9455468    3913.2525          779 
   26600    0.6985402   -6.9329474    3902.2323          685 
   26700   0.68428859   -6.9293293    3890.2334          805 
   26800   0.68907763   -6.9099348     3899.136          711 
   26900   0.69861225   -6.9365735    3910.3426          766 
   27000   0.68963868   -6.9282906     3899.706          753 
   27100   0.69878762    -6.916276     3896.403          792 
   27200   0.70286618   -6.9108922    3909.8819          818 
   27300    0.6889211   -6.9252929    3902.0495          838 
   27400   0.68919022    -6.945252     3899.298          876 
   27500    0.6985429   -6.9268038    3886.1814          863 
   27600   0.69153802    -6.911168    3897.5735          803 
   27700   0.68449574   -6.9129362    3908.8489          859 
   27800   0.68959495    -6.957076    3904.2107          874 
   27900   0.69471918   -6.9255142    3896.6718          873 
   28000    0.6893982   -6.9195257    3901.3736          881 
   28100   0.68775349   -6.9211386    3906.1444          884 
   28200   0.68405864   -6.9294231    3901.2225          915 
   28300   0.67029982    -6.946664     3898.239          930 
   28400   0.68396232   -6.9411424     3909.767          946 
   28500   0.68728478   -6.9052113      3904.71         1052 
   28600   0.68708773   -6.9305222    3906.3484          955 
   28700   0.68140264   -6.9412204    3909.7589          889 
   28800   0.68677664   -6.9252655    3907.5842          876 
   28900   0.68002687    -6.922425    3897.7554          886 
   29000   0.68498295   -6.9380984    3899.1649          951 
   29100   0.69891589   -6.9261796    3902.8231         1011 
   29200   0.69139441     -6.92873    3899.9252         1007 
   29300   0.68485304   -6.9416632    3899.8454          947 
   29400   0.69190447   -6.9422754    3916.7249          958 
   29500   0.70217415   -6.9212944    3901.3487          980 
   29600   0.69338244   -6.9192453    3891.6983          930 
   29700   0.70218062   -6.9376982    3906.2664          981 
   29800   0.68970951   -6.9243927    3908.2162         1035 
   29900   0.69359721   -6.9408439    3900.3247         1000 
   30000   0.68864833   -6.9297358    3902.0092         1003 
   30100   0.68291444   -6.9066952    3904.1247          996 
   30200   0.68916534   -6.9258667    3908.3432         1025 
   30300   0.67757253   -6.9319961    3904.6981         1015 
   30400   0.68903037   -6.9349147    3904.4895          949 
   30500   0.68174444   -6.9180583    3902.9905          986 
   30600   0.68941693   -6.8973534     3902.742          942 
   30700   0.68692229   -6.9479198    3901.6963         1025 
   30800   0.68774032   -6.9258424    3901.0716          960 
   30900   0.69064325    -6.933293    3897.2882         1024 
   31000   0.67500737   -6.9436774    3907.3008         1016 
   31100   0.67947079   -6.9270933    3912.2892         1004 
   31200   0.67725155    -6.918385    3902.7745         1086 
   31300   0.68688639   -6.9667278    3900.8604         1095 
   31400   0.69048356   -6.9302977    3898.0242         1133 
   31500   0.69446318   -6.9070813    3899.6426         1146 
   31600   0.68275707   -6.9332388    3900.5792         1088 
   31700   0.68672412   -6.9483326    3905.9636         1083 
   31800   0.69815368   -6.9128806    3897.8257         1064 
   31900   0.69284354   -6.9243979    3899.9993         1116 
   32000   0.68250358   -6.9367569    3899.2108         1091 
   32100   0.69077612   -6.9304205    3900.0099         1107 
   32200    0.6816352   -6.9445386    3899.2453         1140 
   32300   0.69522154   -6.9480216    3902.9052         1065 
   32400    0.6860361   -6.9210168    3897.7403         1121 
   32500   0.69719294   -6.9466508    3906.2839         1123 
   32600   0.67923106   -6.9320824    3903.5532         1069 
   32700   0.69307502   -6.9533141    3902.4628         1042 
   32800   0.70388901   -6.9183124    3888.0011         1060 
   32900   0.69326553   -6.9309615    3885.3405         1054 
   33000   0.68893267   -6.9524621    3904.0309         1107 
   33100   0.68276812   -6.9595848    3900.7117         1138 
   33200   0.69014194   -6.9419212    3895.1126         1098 
   33300    0.6983641   -6.9411736    3907.6142         1114 
   33400   0.68957827   -6.9300722    3902.2885         1152 
   33500   0.67493434   -6.9378757    3901.9876         1178 
   33600     0.688477   -6.9440512    3905.1907         1140 
   33700   0.69022303    -6.929892    3908.2307         1107 
   33800   0.68838138   -6.9480618    3903.6511         1158 
   33900   0.67626087   -6.9402512    3900.2696         1142 
   34000   0.70483618   -6.9289802     3897.011         1144 
   34100   0.68906722     -6.92903    3898.3776         1142 
   34200    0.6993009   -6.9346751    3890.4153         1184 
   34300   0.70138166   -6.9354994    3892.9831         1226 
   34400   0.68312554   -6.9323312    3899.7483         1216 
   34500   0.67745993   -6.9624632    3902.2604         1194 
   34600   0.68401452   -6.9210688    3895.5002         1227 
   34700   0.69527653   -6.9137269    3894.0148         1259 
   34800   0.68577385   -6.9555935    3902.2302         1231 
   34900   0.69334765   -6.9393193    3897.4709         1237 
   35000   0.70319408   -6.9203431     3895.045         1174 
   35100   0.68719434   -6.9340306    3899.6768         1174 
   35200   0.68236289   -6.9366726    3896.0815         1212 
   35300   0.69642473    -6.950873    3895.1806         1245 
   35400   0.68635991    -6.938654    3892.3378         1265 
   35500   0.68960109   -6.9651265    3897.5184         1273 
   35600   0.70392294   -6.9592907    3893.1595         1284 
   35700   0.68603216   -6.9549585    3888.0299         1253 
   35800   0.70207723   -6.9335853    3892.4427         1268 
   35900   0.69682624   -6.9582254     3892.285         1275 
   36000   0.68602327   -6.9633356    3902.6455         1289 
   36100   0.69640075   -6.9586302    3906.6288         1302 
   36200   0.68392958   -6.9510244    3885.9979         1348 
   36300   0.70429452   -6.9604254    3876.8614         1358 
   36400   0.69783577   -6.9571897    3888.2136         1332 
   36500   0.70829893   -6.9583927    3897.5814         1318 
   36600   0.68664528   -6.9552374    3897.0762         1297 
   36700   0.68263935   -6.9649055    3901.0429         1269 
   36800    0.6711113   -6.9465797    3880.5231         1311 
   36900    0.6977662    -6.948957    3887.6674         1283 
   37000   0.70444305   -6.9671953    3890.2112         1290 
   37100   0.69375216   -6.9810269    3896.5556         1337 
   37200   0.70414726   -6.9478508    3896.6507         1322 
   37300   0.69660667   -6.9552976    3887.9109         1354 
   37400   0.68721643   -6.9604904    3880.8898         1361 
   37500   0.69698217   -6.9687006    3887.6206         1313 
   37600   0.68179254   -6.9682432    3897.5834         1343 
   37700   0.68539006     -6.96277    3893.5254         1320 
   37800   0.69558182   -6.9468754    3899.3863         1248 
   37900   0.68386015   -6.9643745    3896.2678         1284 
   38000   0.68795685   -6.9653982     3886.425         1377 
   38100   0.70115107   -6.9730884    3881.4805         1383 
   38200   0.70292627   -6.9429383    3890.4477         1394 
   38300   0.69500168   -6.9631226    3901.0775         1426 
   38400   0.68994937   -6.9743837    3903.0321         1497 
   38500   0.68772989   -6.9595268    3886.5062         1357 
   38600   0.70532664   -6.9664056    3884.2628         1301 
   38700   0.70315109   -6.9562266    3899.2463         1361 
   38800   0.67712271   -6.9477026    3893.3166         1345 
   38900    0.6761889   -6.9597618    3886.1148         1411 
   39000   0.69061353   -6.9483212    3892.6845         1353 
   39100    0.6909256   -6.9501132    3894.5218         1355 
   39200   0.68009437   -6.9885324    3888.2691         1414 
   39300   0.67802321    -6.966166    3890.9278         1347 
   39400   0.68969246   -6.9562294     3890.385         1351 
   39500   0.70255951   -6.9706022    3888.9012         1445 
   39600   0.69850936   -6.9787555    3880.7955         1431 
   39700   0.68115864   -6.9643679    3882.5193         1482 
   39800   0.69222872    -6.960418    3893.3176         1382 
   39900   0.68862767   -6.9507053    3893.9967         1468 
   40000   0.67959827   -6.9457471    3892.5675         1480 
   40100   0.68907638   -6.9921108    3900.5335         1455 
   40200   0.69250535   -6.9658819    3888.3253         1446 
   40300   0.68922506   -6.9558354    3888.2659         1428 
   40400   0.71425118   -6.9562067    3891.6987         1402 
   40500   0.68341495   -6.9421465    3893.7805         1390 
   40600   0.68459195   -6.9689693    3898.2342         1422 
   40700    0.7099332   -6.9572975    3892.9075         1410 
   40800   0.70456031   -6.9550226    3887.9463         1519 
   40900   0.70227438   -6.9592931    3885.8931         1492 
   41000   0.69427881   -6.9670213    3894.1989         1559 
   41100   0.70313157   -6.9696987    3895.6379         1470 
   41200   0.68114167   -6.9577857    3896.9842         1509 
   41300   0.69619008   -6.9567239    3897.2416         1486 
   41400   0.71076609   -6.9482301    3884.5708         1530 
   41500   0.69730252   -6.9715087    3885.3198         1558 
   41600   0.69379318   -6.9658548    3893.3498         1605 
   41700   0.69465656   -6.9482976    3898.3708         1500 
   41800   0.67574569   -6.9521143    3890.8281         1510 
   41900   0.69019521   -6.9651946    3894.0985         1489 
   42000   0.70016519   -6.9530303    3887.0573         1542 
   42100   0.70178955      -6.9622    3893.6643         1505 
   42200   0.69019731   -6.9817123    3891.6101         1503 
   42300   0.68580115   -6.9707153    3886.9648         1523 
   42400   0.69373535   -6.9648228    3894.8462         1577 
   42500   0.70509304   -6.9520258    3890.8714         1589 
   42600   0.69040728   -6.9701192    3899.8436         1554 
   42700   0.69291863   -6.9452875    3893.7845         1559 
   42800   0.69660273   -6.9504881     3893.629         1552 
   42900   0.68462978   -6.9651004    3889.1143         1570 
   43000   0.69235238   -6.9543282    3881.8974         1571 
   43100   0.70497019   -6.9616194    3883.1207         1697 
   43200   0.69007343   -6.9687096    3890.5692         1688 
   43300   0.66480118   -6.9796721    3900.8767         1641 
   43400   0.68620266   -6.9813183    3903.3644         1688 
   43500   0.70595595   -6.9594144    3882.3309         1677 
   43600   0.69287815   -6.9644313    3874.0723         1728 
   43700   0.67959672   -6.9966875    3890.3091         1749 
   43800   0.69253065   -6.9705748    3895.3856         1772 
   43900   0.69245492   -6.9742449    3876.0787         1807 
   44000   0.68440328   -6.9859315    3881.4183         1839 
   44100   0.68665342   -6.9946668    3887.2324         1866 
   44200   0.67509762   -7.0005661    3870.9763         1860 
   44300   0.69663775   -6.9972991    3882.8381         1858 
   44400   0.69205917   -6.9759038    3884.8621         1892 
   44500    0.6716612   -6.9891164    3883.2065         1893 
   44600   0.68906722   -6.9807766    3885.5276         1881 
   44700   0.69262879   -6.9627085    3888.6181         1897 
   44800   0.69994017   -6.9753297    3881.7006         1886 
   44900   0.68986258    -6.985841    3879.0761         1883 
   45000   0.68512084   -6.9877625    3881.5155         1948 
   45100   0.70515284   -6.9945669     3892.678         1955 
   45200   0.68289441   -6.9903847    3879.9123         1954 
   45300   0.69422893   -6.9814573      3871.07         1984 
   45400   0.70558993   -6.9909749    3889.9632         1924 
   45500   0.68338657   -6.9885965    3888.4063         1932 
   45600   0.68944342   -6.9937243    3877.8496         1978 
   45700   0.68475157   -7.0101258    3877.9122         1958 
   45800   0.68842113   -6.9996425    3888.5245         1965 
   45900     0.685504   -6.9826246    3877.5737         1919 
   46000   0.70910468   -7.0310673    3872.8482         1941 
   46100   0.68560011   -6.9934859    3881.2554         1889 
   46200   0.68573574   -7.0051399    3895.4929         1855 
   46300   0.68205074   -7.0190248    3887.5459         1913 
   46400   0.69790591   -7.0114888    3869.1556         1900 
   46500   0.69485049   -7.0026613    3870.1477         1910 
   46600   0.70415943   -6.9923434    3876.9686         1941 
   46700   0.69379708   -7.0140147     3888.165         1951 
   46800   0.69235092    -7.009392     3876.391         1993 
   46900   0.68148061   -7.0031472    3865.5344         2004 
   47000   0.69157494   -7.0145177    3878.1903         1914 
   47100   0.70422097   -6.9989274    3875.9669         1893 
   47200   0.68128565   -6.9857728     3868.008         1922 
   47300   0.69040743   -7.0122258    3870.9369         2013 
   47400   0.69937453   -7.0230213    3880.9634         2001 
   47500   0.69131237   -7.0154619    3884.7434         1949 
   47600    0.6840329   -7.0113617    3868.1952         2005 
   47700   0.68613529   -7.0075951    3871.6829         2026 
   47800   0.67752575    -6.992596    3886.8463         2030 
   47900   0.68492519   -6.9843042    3890.1663         2007 
   48000   0.68849844   -6.9820844    3884.5947         2021 
   48100   0.68181798   -7.0007506    3878.8909         2005 
   48200   0.69878721   -7.0023395     3873.071         2026 
   48300   0.69125244   -6.9999614    3879.8989         2058 
   48400   0.69432275   -6.9991242    3883.9159         2133 
   48500   0.69306559   -6.9838872    3876.4624         2093 
   48600   0.68383545   -7.0149583    3878.1738         2120 
   48700   0.68384571   -7.0080346    3879.3547         2059 
   48800    0.6960892   -6.9975458    3885.0126         1966 
   48900   0.69176965   -6.9913444    3869.6321         1967 
   49000   0.68980847   -7.0073307    3871.0174         2037 
   49100   0.69991127   -7.0021202    3877.6155         2048 
   49200   0.69302916   -7.0061013    3873.5358         2048 
   49300   0.69076736   -7.0034547    3871.0777         1979 
   49400    0.7024812   -7.0247709    3875.9022         2073 
   49500   0.68448501   -7.0213579    3878.4592         2063 
   49600   0.69153727   -6.9956778    3878.0258         2010 
   49700   0.69180888   -7.0045656    3867.5794         2020 
   49800   0.69391422   -7.0391741    3883.6575         2096 
   49900   0.68880334    -7.006345    3875.7988         2008 
   50000   0.67259631   -7.0101563    3870.5781         2032 
   50100   0.67613167   -6.9957881    3884.7852         2079 
   50200   0.69023739   -7.0086718    3883.5765         2057 
   50300   0.68486953   -7.0206976    3872.2047         2065 
   50400   0.69067417   -7.0033102    3870.6372         2123 
   50500   0.70506964   -7.0123483    3878.5172         2081 
   50600   0.69101552   -7.0053158    3870.5929         2118 
   50700   0.68351774   -7.0179415    3867.6681         2171 
   50800    0.6860846   -7.0097315    3878.0727         2113 
   50900   0.68133241     -7.00873      3885.26         2077 
   51000   0.68098068   -7.0025313    3877.4299         2145 
   51100   0.68956087   -7.0293479    3869.5122         2196 
   51200   0.68916152   -7.0451332    3870.6148         2158 
   51300   0.69460723   -7.0144952    3867.1315         2122 
   51400   0.69703375    -7.023688    3876.1458         2160 
   51500    0.6863917   -7.0075507    3881.0083         2143 
   51600   0.68691485   -7.0329742    3877.5741         2166 
   51700   0.68538436   -7.0355371     3865.695         2209 
   51800    0.6951804   -7.0106886    3869.4045         2138 
   51900   0.70030351   -7.0407598    3874.7749         2125 
   52000   0.68001896   -7.0438245    3875.2167         2139 
   52100   0.68255876     -7.00911    3872.7167         2197 
   52200   0.69020843   -6.9880295    3868.1149         2140 
   52300   0.68677161   -7.0361851    3867.4099         2199 
   52400   0.69066544    -7.056554      3879.68         2210 
   52500   0.69659398   -7.0108794     3866.719         2226 
   52600   0.68742721   -7.0301913    3857.2909         2283 
   52700   0.69180772   -7.0372498    3866.6528         2260 
   52800    0.6920448   -7.0269088    3872.9134         2222 
   52900   0.69571048   -7.0637914    3865.8545         2322 
   53000   0.68646815   -7.0247086    3858.6587         2285 
   53100   0.68733156   -7.0324417    3870.6032         2304 
   53200   0.69649856   -7.0563355    3864.7766         2262 
   53300    0.7075439   -7.0381193    3864.9598         2266 
   53400   0.68539374   -7.0416674    3869.0764         2231 
   53500   0.68956318   -7.0521554    3858.3901         2328 
   53600   0.69766359   -7.0292173    3867.8484         2262 
   53700   0.69071758   -7.0393357    3874.4173         2249 
   53800   0.68419077   -7.0416883    3858.7641         2302 
   53900   0.68679979   -7.0614343    3869.0772         2307 
   54000   0.69376663   -7.0308777    3869.9481         2285 
   54100   0.68825344   -7.0403765     3864.259         2309 
   54200   0.67781232   -7.0538064    3862.4801         2279 
   54300    0.6790739   -7.0226425    3867.2832         2273 
   54400   0.69913378   -7.0496458    3873.1984         2253 
   54500   0.67869366   -7.0371065    3869.6775         2294 
   54600   0.69698667   -7.0407482    3863.2625         2262 
   54700   0.70137765   -7.0413521    3855.4474         2337 
   54800   0.68672477   -7.0306485    3856.2816         2315 
   54900   0.67845377   -7.0721209    3870.7471         2325 
   55000   0.68262404   -7.0536835    3873.5901         2313 
   55100   0.68436629   -7.0423952    3863.3993         2324 
   55200    0.7005322   -7.0555121    3863.3592         2285 
   55300   0.68293859   -7.0559939    3867.6522         2341 
   55400   0.68810346    -7.075365    3865.7783         2310 
   55500   0.69103651   -7.0464017    3868.3082         2268 
   55600   0.71100993   -7.0195204    3872.9627         2289 
   55700   0.69045439    -7.026247    3865.7654         2280 
   55800    0.6855202   -7.0658157    3870.0273         2284 
   55900   0.69243182   -7.0679066    3858.4974         2299 
   56000   0.67350467   -7.0563326    3854.1087         2327 
   56100   0.70292816   -7.0743636    3864.9335         2370 
   56200   0.69427566   -7.0736712    3852.8147         2340 
   56300   0.68272411   -7.0712871    3857.4779         2425 
   56400   0.68522071    -7.056693    3864.4009         2339 
   56500   0.68303833   -7.0465823    3870.6198         2330 
   56600   0.67534188   -7.0423505    3869.1349         2305 
   56700   0.68669108   -7.0778009    3856.6549         2330 
   56800   0.69720752   -7.0728456     3849.829         2375 
   56900   0.69749758   -7.0589907    3850.2895         2345 
   57000   0.70041698    -7.060011    3867.6059         2330 
   57100   0.69104339   -7.0584663    3880.3609         2309 
   57200   0.68854971   -7.0591886    3855.8207         2304 
   57300    0.6881679    -7.076189    3850.4561         2333 
   57400   0.69649949    -7.096797    3854.0059         2404 
   57500   0.69198531   -7.0479249    3860.7963         2359 
   57600   0.68925145   -7.0540741    3863.4727         2383 
   57700   0.68417718   -7.0753743    3856.7971         2411 
   57800   0.68117772   -7.0850079    3851.0734         2418 
   57900   0.70523853   -7.0777654    3852.6991         2444 
   58000   0.70444493   -7.0840947    3850.9381         2491 
   58100   0.68992834   -7.0902982     3852.092         2514 
   58200   0.68901269   -7.0532633    3863.3534         2503 
   58300    0.6900604   -7.0662104    3855.8976         2513 
   58400   0.68851667   -7.0793262     3849.325         2573 
   58500   0.69060791   -7.0962458    3852.6804         2515 
   58600   0.70612934   -7.0927935    3858.5946         2628 
   58700   0.68109369   -7.0862771    3848.1066         2601 
   58800   0.69995343   -7.0918286    3849.1752         2594 
   58900   0.71384787   -7.0986489    3836.2684         2606 
   59000    0.6967907    -7.098582    3847.5557         2595 
   59100   0.69004244   -7.0785485    3855.5789         2590 
   59200   0.70141534   -7.0762472    3865.2609         2538 
   59300   0.68922644   -7.0846559    3851.0407         2585 
   59400    0.6956058   -7.0951569    3847.2201         2586 
   59500   0.68064193   -7.1163442    3846.3601         2588 
   59600   0.69337378   -7.0936185    3848.9022         2612 
   59700   0.70620265    -7.086997     3841.943         2621 
   59800   0.69087916   -7.1049022    3844.9862         2607 
   59900    0.6826057   -7.0954596    3852.5713         2575 
   60000   0.68500366   -7.0839129    3859.2806         2561 
   60100   0.68343038    -7.128315    3859.8036         2656 
   60200   0.68454415   -7.0855644    3844.5709         2688 
   60300   0.69655541   -7.0851181    3848.3913         2761 
   60400   0.69106964   -7.1117321    3845.6109         2734 
   60500   0.69549622   -7.1180321    3849.5842         2785 
   60600   0.69870363    -7.099245    3846.7733         2832 
   60700   0.68771971   -7.1269053    3839.7504         2816 
   60800   0.69175719   -7.1265965    3853.3264         2852 
   60900   0.68584414   -7.1001131    3849.0315         2788 
   61000   0.69345428   -7.0808967    3846.6953         2785 
   61100   0.69886442   -7.1161438    3848.9725         2806 
   61200   0.69020745   -7.1215373    3841.9556         2821 
   61300   0.69065283   -7.1356327    3835.3696         2871 
   61400   0.68618919    -7.135201    3834.8577         2867 
   61500   0.70443578   -7.1375383    3847.1367         2872 
   61600   0.70891659   -7.1195178    3840.1807         2849 
   61700   0.69035515   -7.1317124    3836.4872         2850 
   61800   0.70227878   -7.1366605    3844.4113         2836 
   61900   0.69239534   -7.0908634    3841.7239         2858 
   62000    0.6884352   -7.1010808    3850.9582         2868 
   62100   0.67545705   -7.1324461    3856.9469         2892 
   62200   0.67105053   -7.1246911    3847.6926         2944 
   62300   0.70439211   -7.1225248    3844.2041         2934 
   62400   0.69265915   -7.1097807    3834.8733         2949 
   62500   0.69839741   -7.1398905    3829.9209         3017 
   62600   0.68724423   -7.1414349     3849.715         3004 
   62700   0.69174609   -7.1188636    3840.4992         3050 
   62800   0.68749502   -7.1429684    3835.1385         3068 
   62900   0.68189241   -7.1432878    3833.2383         3017 
   63000   0.69371216   -7.1301703    3844.0254         3024 
   63100   0.68392579   -7.1279668    3835.3875         3021 
   63200   0.67544946   -7.1171424    3836.7759         2983 
   63300   0.69122546   -7.1165347    3846.7237         3035 
   63400   0.70266459   -7.1533017    3844.1761         3025 
   63500   0.68955474   -7.1527752    3830.8371         3029 
   63600   0.68717312   -7.1550794    3842.1494         3003 
   63700   0.70174106   -7.1468132    3843.8997         2953 
   63800   0.67972072    -7.130742     3838.564         2985 
   63900   0.69007795   -7.1262287    3830.5662         3018 
   64000   0.69511789   -7.1610747    3830.2688         2996 
   64100   0.68855004   -7.1400189    3835.9719         2992 
   64200   0.69753808   -7.1515426    3840.1844         3034 
   64300   0.67680294   -7.1487124    3836.5034         3049 
   64400   0.69517916   -7.1414312    3827.9344         3097 
   64500    0.6965315    -7.151916    3826.2885         3038 
   64600   0.68497191   -7.1443809    3834.1739         3033 
   64700   0.69785315   -7.1520581    3846.5595         3022 
   64800   0.68841856    -7.160182    3831.6306         3062 
   64900   0.69761538   -7.1701204    3825.7401         3164 
   65000   0.67817686   -7.1662956    3829.7895         3149 
   65100    0.6861067   -7.1738698    3837.3602         3163 
   65200   0.69120023   -7.1721758    3833.0655         3208 
   65300   0.68876799   -7.1825563    3821.1659         3276 
   65400   0.71106609    -7.185571    3816.6319         3309 
   65500   0.69247054   -7.1885609    3825.7024         3285 
   65600   0.68203063   -7.1645759    3834.9144         3248 
   65700   0.69042685   -7.1664084    3838.4327         3284 
   65800   0.67765879   -7.1726923    3823.0797         3295 
   65900   0.68383637   -7.1807228    3828.6557         3340 
   66000   0.67388956   -7.1891598    3813.0591         3349 
   66100   0.69314482   -7.2033714    3823.0253         3326 
   66200   0.68507947   -7.1714382    3830.3449         3335 
   66300   0.69671804    -7.204618    3827.6481         3341 
   66400   0.68284276    -7.171471    3822.7212         3364 
   66500   0.69622985   -7.1796842    3820.1412         3381 
   66600   0.69730642   -7.1956919    3825.6375         3334 
   66700   0.67589524     -7.19102    3822.7278         3334 
   66800   0.68069575   -7.2041519    3820.2503         3380 
   66900    0.6961025   -7.1855173    3812.9129         3411 
   67000    0.6955961   -7.2056103    3818.6126         3404 
   67100   0.69162024   -7.1923529    3825.3666         3414 
   67200   0.68467036   -7.1975212    3821.3103         3422 
   67300   0.68551577   -7.2207863    3810.0168         3414 
   67400   0.69898264   -7.2090578    3809.7833         3422 
   67500   0.67987105   -7.2146205    3826.0441         3377 
   67600    0.7033084   -7.2202833    3828.6934         3362 
   67700   0.69864579   -7.2064273    3810.5586         3394 
   67800   0.69240594     -7.21413    3801.8456         3393 
   67900   0.67712192    -7.222199    3814.2517         3419 
   68000   0.67786972   -7.1944969    3829.9179         3384 
   68100   0.70159858   -7.2140219    3818.3508         3437 
   68200   0.68836666   -7.2291352    3813.2971         3384 
   68300   0.70350112   -7.2316727    3807.2404         3404 
   68400   0.69164508   -7.2481036    3815.4086         3419 
   68500   0.70851353    -7.222188    3809.1781         3448 
   68600   0.70749861   -7.2216159    3801.0372         3411 
   68700   0.69281835   -7.2436146    3808.1247         3442 
   68800   0.68894079   -7.2521862    3816.5313         3468 
   68900   0.69029577   -7.2204071    3813.6657         3484 
   69000   0.67712407    -7.237375    3807.6446         3471 
   69100    0.6842461   -7.2486887    3812.1334         3490 
   69200   0.69743077   -7.2337711    3811.5824         3477 
   69300   0.67371201   -7.2323544    3795.5615         3467 
   69400   0.70307766   -7.2687953    3804.3148         3496 
   69500   0.69711129   -7.2396877    3800.9154         3492 
   69600   0.70938441   -7.2490678    3807.1744         3519 
   69700   0.69101619   -7.2610171    3799.6921         3517 
   69800   0.67912378   -7.2463113    3808.9704         3479 
   69900   0.68641548   -7.2452069    3814.0313         3520 
   70000   0.68295812   -7.2554428     3800.136         3570 
   70100   0.70144459   -7.2893507    3803.2061         3540 
   70200   0.69805139   -7.2534538    3796.5668         3597 
   70300   0.69740688   -7.2422875    3798.8213         3602 
   70400   0.69373138   -7.2820125    3806.5714         3580 
   70500   0.68795978   -7.2633331     3799.168         3604 
   70600   0.68916586   -7.2729794    3789.2591         3644 
   70700   0.69477838   -7.2903888    3786.7263         3655 
   70800   0.71062849   -7.2823775    3796.1325         3654 
   70900   0.68609069   -7.2823542    3791.5595         3654 
   71000   0.69664271   -7.3083346    3802.4268         3693 
   71100   0.69297725   -7.2849236    3789.9862         3661 
   71200   0.68770738   -7.2885963    3781.3037         3700 
   71300   0.68114011   -7.2933262      3791.73         3723 
   71400   0.69430369   -7.2947655     3796.522         3697 
   71500   0.69382367   -7.2939866    3786.4933         3706 
   71600   0.68444731    -7.309754    3781.1069         3728 
   71700   0.67898877   -7.2840368    3797.1198         3717 
   71800   0.67883613   -7.2938228    3797.7547         3743 
   71900    0.6791665    -7.312826    3795.7354         3745 
   72000   0.69635048   -7.2784558    3792.9979         3756 
   72100   0.68833319   -7.2939323     3787.256         3758 
   72200   0.67709469   -7.2961837    3796.1094         3738 
   72300   0.69917507   -7.2937936    3798.5475         3735 
   72400   0.70215583   -7.3110063    3784.4846         3736 
   72500   0.68820212   -7.2928872    3778.0394         3712 
   72600    0.7040336   -7.3055451    3788.9029         3691 
   72700   0.70579755   -7.2857981    3795.9412         3740 
   72800   0.69601636    -7.311256    3792.3619         3708 
   72900   0.68382091   -7.3009345     3785.848         3713 
   73000   0.69798467   -7.3119196    3787.3195         3714 
   73100   0.69589274   -7.3078569    3777.9275         3750 
   73200   0.69826197   -7.3338517    3778.7392         3765 
   73300   0.69323865   -7.2994528    3785.3964         3743 
   73400   0.70387083   -7.3275999    3788.3966         3728 
   73500    0.6758316   -7.3233439    3784.7405         3750 
   73600   0.68395663   -7.3056076    3787.6718         3764 
   73700   0.69089143   -7.3233448    3791.1235         3801 
   73800   0.68667061   -7.3297393    3774.1931         3795 
   73900   0.68599845    -7.343893    3774.6344         3778 
   74000    0.6952078   -7.3300126    3785.7686         3782 
   74100   0.68690042   -7.3176895    3779.6829         3785 
   74200   0.67766687   -7.3430178    3777.3623         3763 
   74300   0.69087567   -7.3433626    3782.6686         3775 
   74400   0.69044215   -7.3489134    3789.6825         3765 
   74500   0.69675098   -7.3185699    3773.0852         3807 
   74600   0.69198486   -7.3341116     3780.275         3797 
   74700   0.67701054   -7.3468847     3780.745         3805 
   74800   0.69009203   -7.3498883    3785.3207         3772 
   74900   0.69497319   -7.3136069    3777.5676         3791 
   75000   0.67721065   -7.3114181    3775.3273         3789 
   75100   0.68705792   -7.3460104    3775.5336         3798 
   75200   0.69974477   -7.3709926    3781.5962         3790 
   75300   0.70251509   -7.3251276    3776.2408         3791 
   75400   0.70028394   -7.3255749    3770.2623         3802 
   75500   0.68806504    -7.348157    3775.3555         3812 
   75600    0.6949994   -7.3482817     3772.923         3778 
   75700   0.68953874   -7.3333216    3779.6269         3783 
   75800    0.6815339   -7.3414895     3774.332         3778 
   75900   0.67549036   -7.3547675    3784.3794         3771 
   76000   0.68478518   -7.3532394    3779.5015         3761 
   76100   0.68855964   -7.3415767    3775.1686         3767 
   76200    0.6996482   -7.3351514    3776.8075         3762 
   76300   0.68415342    -7.341592    3771.1501         3796 
   76400   0.67989634   -7.3559141    3772.9341         3774 
   76500   0.68093136   -7.3348761    3780.8357         3788 
   76600   0.69671668   -7.3474332    3781.0652         3778 
   76700   0.68828058   -7.3562697    3777.1517         3817 
   76800   0.68580595   -7.3687882    3783.7659         3806 
   76900    0.7113889   -7.3590565     3770.962         3854 
   77000   0.69262339   -7.3614181    3759.7799         3838 
   77100   0.68395014   -7.3622652    3773.9293         3826 
   77200   0.69358505   -7.3419316    3784.8392         3830 
   77300   0.69256852   -7.3666162     3773.546         3832 
   77400   0.69405828   -7.3617318    3771.4698         3857 
   77500    0.6900678   -7.3603967    3771.6975         3845 
   77600   0.67596995   -7.3773409    3768.5452         3840 
   77700   0.68833797   -7.3677269    3768.9905         3851 
   77800    0.6816895   -7.3465215    3778.1112         3834 
   77900   0.70082461   -7.3529259    3777.1984         3865 
   78000   0.69153514   -7.3661042    3769.3087         3854 
   78100   0.68911139   -7.3776711    3767.6887         3866 
   78200   0.68090456   -7.4103447    3767.6873         3858 
   78300    0.6909115   -7.3889763    3773.0796         3854 
   78400   0.68249402   -7.3638879    3769.4746         3827 
   78500   0.67815481   -7.3832685    3778.4631         3828 
   78600   0.69626223   -7.3743131    3760.4353         3887 
   78700   0.69028469   -7.3835609    3765.4421         3861 
   78800   0.69014621   -7.3785502    3766.0743         3882 
   78900   0.68330196   -7.3926244    3762.9972         3892 
   79000   0.66246334   -7.3999407    3763.5108         3903 
   79100   0.68795239   -7.4092906    3769.3389         3917 
   79200   0.68931777   -7.3806784    3768.9067         3904 
   79300   0.69322626   -7.3900205    3760.0458         3887 
   79400   0.70275369   -7.4146412    3754.6998         3897 
   79500   0.70036432   -7.4092304    3760.7741         3903 
   79600   0.68826879    -7.392789    3768.3581         3910 
   79700   0.69266829   -7.3780288    3764.9285         3904 
   79800   0.69526042   -7.4087402    3749.1353         3913 
   79900   0.68332122   -7.3920277    3753.4012         3891 
   80000   0.70030044   -7.4098328    3767.2891         3912 
   80100   0.68203866   -7.4025811     3763.154         3904 
   80200   0.69666461   -7.3720795    3753.5202         3905 
   80300   0.69988777   -7.3935782    3759.4653         3910 
   80400   0.67937306   -7.4125663    3763.3687         3909 
   80500   0.68762518   -7.3983002    3773.6317         3916 
   80600   0.67682994   -7.3970448    3775.4677         3931 
   80700   0.68372891    -7.397487    3766.0574         3942 
   80800   0.67547421   -7.3974165    3747.5493         3930 
   80900   0.69596367    -7.396277    3756.0546         3924 
   81000   0.67998858   -7.3962856    3766.0297         3925 
   81100   0.68480356    -7.421032    3765.6707         3917 
   81200   0.68005771   -7.4029086    3751.1173         3927 
   81300   0.70794914   -7.4169058    3752.2465         3937 
   81400   0.68992247   -7.4003826    3749.8371         3929 
   81500   0.69742861   -7.4103551    3764.3798         3942 
   81600   0.68212335   -7.3863702      3770.38         3922 
   81700   0.69526743   -7.4162392    3756.5614         3942 
   81800   0.69672856   -7.4136467    3750.5136         3940 
   81900   0.67921956   -7.4002893    3758.3627         3942 
   82000   0.68361746   -7.4165805    3767.5198         3924 
   82100   0.69005217   -7.4144697    3762.1099         3936 
   82200   0.68362877   -7.4107802    3753.5068         3931 
   82300   0.68421513   -7.4275234    3750.3895         3935 
   82400    0.6897595   -7.4124275    3759.5613         3941 
   82500   0.68758042    -7.404587    3765.4867         3923 
   82600   0.69610359    -7.405823    3751.7542         3930 
   82700    0.6999779   -7.4364619    3751.3978         3949 
   82800   0.67514693   -7.4289708     3755.132         3925 
   82900   0.68386485   -7.4122554    3758.8317         3925 
   83000   0.69830152   -7.4011267    3758.5759         3929 
   83100   0.68313746   -7.4131605    3754.8685         3935 
   83200   0.67908413   -7.4174197    3756.8649         3940 
   83300   0.69232944   -7.4111993    3764.0267         3927 
   83400   0.68557628   -7.4062234    3758.1059         3925 
   83500   0.67521405   -7.4270763    3747.5168         3930 
   83600   0.68385396   -7.4254328    3753.5722         3914 
   83700   0.69848792   -7.4113724     3753.899         3935 
   83800   0.67644166   -7.4047529    3755.5138         3937 
   83900   0.67111838   -7.4347198    3756.5657         3933 
   84000   0.68699184   -7.4217884    3752.4169         3934 
   84100   0.70518871   -7.4092037    3752.5858         3929 
   84200   0.69563836   -7.4354488    3755.5008         3933 
   84300   0.68592687   -7.4327228    3753.1877         3922 
   84400   0.68618161   -7.4084367    3761.1987         3931 
   84500   0.68851131   -7.4018495    3756.1666         3932 
   84600   0.69745342   -7.4254022    3751.9179         3923 
   84700   0.69692892   -7.4313245    3750.7323         3929 
   84800   0.69517285   -7.4212807    3754.3232         3925 
   84900   0.70453548   -7.4194283    3759.8244         3937 
   85000   0.68249802   -7.4215473     3749.046         3934 
   85100   0.70501256   -7.4269461    3752.7534         3943 
   85200   0.69690288   -7.4251337    3747.2447         3950 
   85300   0.69266018   -7.4520993    3754.4967         3939 
   85400   0.68642885   -7.4174723    3753.9401         3940 
   85500   0.69864458   -7.4112489    3756.5392         3947 
   85600   0.69035877   -7.4313124    3757.7809         3953 
   85700   0.68776296   -7.4226173    3756.5017         3949 
   85800   0.68486859   -7.4355889    3749.6243         3952 
   85900   0.69637305   -7.4251867    3734.3758         3960 
   86000   0.70042474   -7.4127163    3749.4406         3961 
   86100   0.70117309   -7.4190896    3758.4367         3945 
   86200   0.70712988   -7.4377267    3747.4448         3954 
   86300   0.68416971   -7.4338601    3746.8742         3950 
   86400   0.69622621   -7.4236226    3755.5497         3949 
   86500   0.70138644   -7.4212801    3750.9033         3942 
   86600   0.68594064   -7.4452309    3751.9594         3942 
   86700   0.68354982   -7.4178687    3760.8559         3930 
   86800   0.69344461   -7.4101572    3754.5071         3937 
   86900   0.70281397   -7.4366587    3747.3102         3950 
   87000   0.68520795   -7.4361235    3756.3966         3944 
   87100   0.68709538   -7.4173327     3754.565         3935 
   87200   0.70432855   -7.4095351    3746.3492         3936 
   87300   0.69509157   -7.4350806    3746.5876         3947 
   87400   0.68754733   -7.4178393    3759.7943         3941 
   87500    0.6786202   -7.4189399    3766.6802         3943 
   87600   0.67576699   -7.4312447    3749.2763         3951 
   87700   0.68566937   -7.4098307    3749.7034         3952 
   87800   0.69058843   -7.4153036    3761.9862         3943 
   87900   0.68952857   -7.4345633    3745.9661         3954 
   88000   0.68999162   -7.4217769    3750.2797         3928 
   88100   0.68194454   -7.4217216     3759.294         3935 
   88200   0.67750484   -7.4338238    3753.7028         3940 
   88300   0.68971191    -7.404038    3753.6008         3946 
   88400   0.69282248   -7.4269217    3761.4788         3947 
   88500    0.6665159   -7.4250918    3752.1344         3954 
   88600   0.68860176   -7.4160127    3748.5659         3938 
   88700   0.70551213   -7.4426889    3753.6369         3941 
   88800   0.69285055   -7.4244205    3750.4915         3940 
   88900   0.68379484   -7.4295684    3744.3595         3949 
   89000    0.6965599   -7.4567036    3754.1736         3949 
   89100   0.67718889   -7.3965783    3757.6072         3948 
   89200   0.68255292   -7.4362097    3763.8421         3916 
   89300    0.6876852   -7.4200479    3748.2437         3947 
   89400   0.69529934   -7.4246267    3745.6909         3950 
   89500   0.69362992   -7.4110715    3752.4835         3935 
   89600   0.69229303   -7.4460079     3762.549         3917 
   89700   0.68750731   -7.4400536    3751.2851         3923 
   89800   0.68693826   -7.4304316     3749.789         3948 
   89900   0.69790112   -7.4242849    3750.5843         3944 
   90000   0.68493678   -7.4500956    3748.2716         3946 
   90100   0.68722847   -7.4310744    3745.5715         3937 
   90200   0.68682592   -7.4299328    3755.7843         3939 
   90300   0.69024932   -7.4248799     3759.674         3942 
   90400   0.68800718   -7.4344627    3749.1106         3954 
   90500   0.69580288   -7.4548466    3743.6783         3961 
   90600   0.69078554   -7.4192602    3746.5865         3953 
   90700   0.68955208   -7.4459428    3761.1481         3959 
   90800   0.68361591   -7.4335269    3751.3299         3953 
   90900   0.68845385   -7.4287138    3745.4233         3950 
   91000   0.70252679    -7.429497    3751.9673         3944 
   91100    0.6863932    -7.435621     3746.647         3947 
   91200   0.67972815   -7.4456837    3757.5983         3956 
   91300    0.6951354    -7.422851    3753.8052         3955 
   91400   0.69509596   -7.4363734    3745.3277         3952 
   91500   0.68506457   -7.4261988    3748.5803         3942 
   91600   0.69826776   -7.4400949    3761.5561         3965 
   91700   0.68125687   -7.4268298    3746.0352         3938 
   91800   0.70161783   -7.4469534    3750.9023         3946 
   91900   0.70153477   -7.4175442    3751.0156         3946 
   92000    0.6840219   -7.4397724    3744.5927         3950 
   92100   0.69261339   -7.4529943    3756.8045         3949 
   92200   0.69234902   -7.4028554    3756.1711         3967 
   92300   0.68793594   -7.4185675    3743.4553         3954 
   92400   0.69321229    -7.448337    3750.8779         3962 
   92500    0.7001503   -7.4213313     3757.092         3943 
   92600   0.68686315   -7.4203149     3747.304         3946 
   92700   0.69780453   -7.4564123    3746.8783         3952 
   92800   0.69778681   -7.4380583    3744.3811         3946 
   92900   0.69895695   -7.4252227    3753.3468         3953 
   93000   0.69363835   -7.4418848    3747.8776         3949 
   93100   0.68478831   -7.4373088    3747.3119         3955 
   93200   0.69688876   -7.4499482    3757.0715         3948 
   93300   0.68983976   -7.4152969     3749.634         3955 
   93400   0.68715945   -7.4338968    3749.9097         3970 
   93500   0.69194884   -7.4542682    3754.7158         3954 
   93600   0.67031562   -7.4074868    3751.3434         3950 
   93700   0.69103141   -7.4270387    3754.2803         3941 
   93800    0.6905135   -7.4452621    3739.3944         3943 
   93900   0.70213955    -7.445272    3743.3243         3951 
   94000    0.7002573   -7.4299091     3746.894         3947 
   94100   0.69437174   -7.4431486     3738.822         3957 
   94200   0.69544656   -7.4531234    3735.0928         3962 
   94300   0.69058901   -7.4324779    3753.0594         3963 
   94400   0.67985583   -7.4163163    3752.9632         3956 
   94500   0.67748129   -7.4498084    3746.6184         3962 
   94600   0.68638511   -7.4490327    3746.4244         3957 
   94700   0.68851215    -7.414836    3744.3058         3953 
   94800   0.67585603   -7.4135925    3752.6516         3957 
   94900   0.67408074   -7.4585903    3756.9455         3944 
   95000   0.68150388   -7.4443074    3746.8004         3961 
   95100   0.69178832   -7.4249461    3741.2303         3957 
   95200   0.69576436   -7.4479958    3742.5744         3956 
   95300   0.67019075   -7.4595375    3747.7922         3955 
   95400   0.67949589   -7.4361594    3751.8824         3948 
   95500   0.68819934    -7.434031    3745.1434         3944 
   95600   0.69232556   -7.4647312    3744.6394         3963 
   95700   0.68596776   -7.4661855    3743.8912         3941 
   95800   0.69971499   -7.4465668     3750.951         3955 
   95900   0.68726975    -7.442874    3739.7037         3969 
   96000   0.69948774   -7.4644355    3745.4184         3968 
   96100   0.70225437   -7.4546561    3753.6963         3965 
   96200   0.68781465    -7.394737    3747.7572         3953 
   96300   0.69376744   -7.4606613    3751.9264         3972 
   96400    0.6863392   -7.4574786    3751.0963         3964 
   96500   0.69888981   -7.4325774     3737.882         3963 
   96600   0.69018511   -7.4404789     3745.651         3959 
   96700   0.68457772   -7.4709474    3745.7113         3966 
   96800   0.69106803   -7.4668822    3742.7708         3942 
   96900   0.69589189   -7.4397098    3735.9748         3951 
   97000   0.69520577   -7.4604256    3743.4122         3941 
   97100   0.69837313   -7.4565107    3749.4474         3963 
   97200   0.69355551   -7.4278404    3743.2537         3961 
   97300   0.68225062    -7.448958    3740.7041         3957 
   97400   0.70363396   -7.4677625    3751.5844         3975 
   97500   0.69142761   -7.4537824    3741.7895         3977 
   97600   0.69637439   -7.4617611    3729.3816         3974 
   97700   0.69252306   -7.4390232    3740.3591         3976 
   97800   0.69567262   -7.4472589    3746.0851         3976 
   97900   0.68197489   -7.4623995    3750.9233         3968 
   98000   0.69068504   -7.4424477    3746.0023         3973 
   98100   0.69223859   -7.4276929    3747.3322         3963 
   98200   0.67624787    -7.451899    3740.5776         3960 
   98300   0.69114673   -7.4495791    3741.9697         3959 
   98400   0.70027199   -7.4515461    3747.7626         3968 
   98500    0.6831112      -7.4562    3748.4224         3969 
   98600   0.68313832   -7.4634216    3739.9743         3962 
   98700   0.68655549   -7.4148344    3740.1699         3962 
   98800   0.70733203   -7.4683759    3751.1797         3960 
   98900   0.67573005     -7.44175    3755.0735         3963 
   99000   0.67149708   -7.4599848    3753.7953         3969 
   99100   0.69853628   -7.4238508    3740.5123         3963 
   99200   0.71145883   -7.4596994    3740.7962         3961 
   99300   0.69407114   -7.4546199    3739.2066         3966 
   99400   0.67544189   -7.4544118    3746.5368         3965 
   99500   0.69400292   -7.4410666     3747.718         3968 
   99600   0.67839189    -7.437289    3744.8692         3966 
   99700   0.67663431   -7.4527833    3749.2298         3967 
   99800   0.69326506     -7.43822     3745.571         3978 
   99900   0.67121369   -7.4291986    3741.5772         3961 
  100000   0.67474617   -7.4722796     3751.477         3967 
  100100   0.68232075   -7.4494599     3756.846         3962 
  100200   0.69305719   -7.4364956    3742.6322         3977 
  100300   0.68448627   -7.4552516    3734.8688         3972 
  100400   0.69511456   -7.4623699    3746.9733         3948 
  100500   0.70052415   -7.4588977    3747.0032         3962 
  100600   0.69448472   -7.4508469     3736.036         3963 
  100700   0.69676152   -7.4643977    3745.7617         3957 
  100800    0.7070547   -7.4439804    3753.6515         3961 
  100900   0.68028162   -7.4406816    3749.1099         3967 
  101000   0.68935747   -7.4679614    3748.3486         3965 
  101100   0.67880918    -7.441181     3739.507         3963 
  101200   0.70378203   -7.4567587    3748.2386         3959 
  101300   0.68892159   -7.4208282    3743.1056         3970 
  101400   0.68217216   -7.4691425     3750.553         3967 
  101500   0.67902414   -7.4481682    3744.1629         3975 
  101600   0.68619853   -7.4029385    3745.0694         3962 
  101700   0.68965473   -7.4511689    3757.0524         3966 
  101800   0.68795135   -7.4656916    3749.0343         3969 
  101900   0.69881602   -7.4518362    3735.5092         3967 
  102000   0.68508619   -7.4584182    3745.5563         3967 
  102100   0.68983429   -7.4727632    3749.1182         3968 
  102200   0.69869754    -7.441123    3749.8363         3966 
  102300   0.69172123   -7.4449481    3739.4096         3976 
  102400   0.69227651   -7.4601127    3742.5993         3973 
  102500   0.70004623   -7.4301924    3746.1495         3974 
  102600   0.68189908   -7.4351508    3751.0058         3958 
  102700   0.68623134   -7.4573523    3746.3043         3971 
  102800   0.69060716   -7.4583062    3738.2787         3973 
  102900   0.69053974   -7.4406288    3745.5844         3966 
  103000   0.69979734   -7.4479806    3752.1012         3967 
  103100   0.68543918   -7.4565183    3752.5857         3960 
  103200   0.69757111   -7.4163246    3736.1195         3967 
  103300   0.70065618   -7.4408605    3745.8675         3959 
  103400   0.69491481   -7.4629859    3744.8976         3965 
  103500   0.68883128   -7.4658048    3741.4089         3970 
  103600   0.68471268   -7.4463393    3749.9712         3967 
  103700   0.69092525   -7.4483298    3761.9946         3971 
  103800   0.68938673   -7.4438193    3741.0228         3970 
  103900   0.68767413   -7.4408086    3738.0728         3972 
  104000   0.68210636    -7.435344    3746.4531         3960 
Loop time of 298.908 on 18 procs for 100000 steps with 4000 atoms

Performance: 57810.396 tau/day, 334.551 timesteps/s
99.7% CPU use with 18 MPI tasks x no OpenMP threads

MPI task timing breakdown:
Section |  min time  |  avg time  |  max time  |%varavg| %total
---------------------------------------------------------------
Pair    | 39.649     | 41.367     | 43.714     |  17.9 | 13.84
Neigh   | 3.8993     | 3.9948     | 4.0867     |   2.7 |  1.34
Comm    | 11.994     | 14.296     | 17.032     |  41.6 |  4.78
Output  | 8.1224     | 8.1237     | 8.139      |   0.1 |  2.72
Modify  | 224.58     | 227.45     | 230.83     |  14.9 | 76.09
Other   |            | 3.679      |            |       |  1.23

Nlocal:        222.222 ave         229 max         218 min
Histogram: 3 1 3 3 4 1 2 0 0 1
Nghost:        2455.28 ave        2468 max        2445 min
Histogram: 1 1 2 6 2 1 2 1 1 1
Neighs:        26968.2 ave       28260 max       25953 min
Histogram: 2 4 1 1 1 4 1 1 2 1
FullNghs:      53935.2 ave       55766 max       52438 min
Histogram: 2 2 1 2 2 5 2 0 1 1

Total # of neighbors = 970833
Ave neighs/atom = 242.70825
Neighbor list builds = 4964
Dangerous builds = 0

#clear
#
#next RN
#
#jump SELF
Total wall time: 0:05:01
