
units lj                  # Use reduced LJ style units
atom_style atomic         # Uncharged point particles
atom_modify map hash      # Needed for indexing of clusters etc
                          # Used to be able to find where atoms are in relation to each other.

lattice fcc 1.0 spacing 1 1 1
Lattice spacing in x,y,z = 1.5874011 1.5874011 1.5874011
region box block 0 10 0 10 0 10 units lattice
create_box 2 box
Created orthogonal box = (0.0000000 0.0000000 0.0000000) to (15.874011 15.874011 15.874011)
  3 by 4 by 4 MPI processor grid
create_atoms 1 box
Created 4000 atoms
  using lattice units in orthogonal box = (0.0000000 0.0000000 0.0000000) to (15.874011 15.874011 15.874011)
  create_atoms CPU = 0.002 seconds
set type 1 type/fraction 2 0.63 78393
Setting atom values ...
  2531 settings made for type/fraction
mass 1 1.0
mass 2 1.0
pair_style lj/cut  3.5
pair_modify tail  yes
pair_coeff 1  1  1.0  1.0   # Intearaction between 1 and 1 set with epsilon = 1 and sigma = 1
pair_coeff 1  2  1.5  0.8
pair_coeff 2  2  0.5  0.88

write_data data.0
System init for write_data ...
Neighbor list info ...
  update every 1 steps, delay 10 steps, check yes
  max neighbors/atom: 2000, page size: 100000
  master list distance cutoff = 3.8
  ghost atom cutoff = 3.8
  binsize = 1.9, bins = 9 9 9
  1 neighbor lists, perpetual/occasional/extra = 1 0 0
  (1) pair lj/cut, perpetual
      attributes: half, newton on
      pair build: half/bin/atomonly/newton
      stencil: half/bin/3d
      bin: standard
WARNING: Not all mixed pair coeffs generated from mixing. Use write_data with 'pair ij' option to store all pair coeffs. (../write_data.cpp:312)


#############################
#   M E L T   S Y S T E M   #
#############################

velocity all create 2.4 6229865 mom yes dist gaussian # Assign velocities
                                                    # Temperature 2.4, random number seed, zero linear momentum
                                                                                # Gaussian distribution

timestep 0.002   # simulation timestep
thermo 1000       # output thermodynamic data every 1000 steps bf 100

# Define a fix  in this case with index 1 applied to all
# particles in the simulation. This fix is for simulations
# in the anisotropic NPT ensemble. Note that we use the MTK
# correction.
fix 1 all npt temp 2.4 2.4 0.1 iso 5.68 5.68 0.5 mtk yes tchain 5 pchain 5 # Use NPT ensemble
                                                                         # Set temperature and pressure and damping
                                                                         # Numbers of thermostats in chain and in barostat
run 10000          # run for 10000 steps
Per MPI rank memory allocation (min/avg/max) = 3.642 | 3.644 | 3.648 Mbytes
Step Temp E_pair E_mol TotEng Press Volume 
       0          2.4    -4.562992            0  -0.96389204   -3.9987934         4000 
    1000    2.3265099   -4.2765927            0  -0.78770032    5.7507932    3621.8602 
    2000    2.4159394   -4.2865531            0  -0.66354991    6.0628357    3589.9906 
    3000    2.3598756   -4.2899364            0   -0.7510079    5.6746712    3616.4419 
    4000    2.3914367   -4.3395081            0  -0.75324987    5.6718771    3599.1659 
    5000    2.4149471   -4.3390151            0  -0.71750006    5.4595311    3610.2362 
    6000    2.3675046   -4.3398211            0  -0.78945199     5.277242    3617.0166 
    7000    2.4051565   -4.3751398            0  -0.76830703     5.462704    3595.3462 
    8000    2.3987456   -4.3436734            0  -0.74645452    5.6272216    3587.6717 
    9000     2.396687   -4.2223153            0  -0.62818357     5.859682    3637.1894 
   10000    2.4130644   -4.2881897            0  -0.66949793    5.6885321    3608.1051 
Loop time of 2.66022 on 48 procs for 10000 steps with 4000 atoms

Performance: 649571.018 tau/day, 3759.092 timesteps/s
99.6% CPU use with 48 MPI tasks x no OpenMP threads

MPI task timing breakdown:
Section |  min time  |  avg time  |  max time  |%varavg| %total
---------------------------------------------------------------
Pair    | 1.2089     | 1.2761     | 1.3756     |   2.4 | 47.97
Neigh   | 0.22058    | 0.22555    | 0.23687    |   0.7 |  8.48
Comm    | 0.789      | 0.89509    | 0.94632    |   3.0 | 33.65
Output  | 0.00024879 | 0.00025537 | 0.00032084 |   0.0 |  0.01
Modify  | 0.22379    | 0.24752    | 0.27822    |   2.9 |  9.30
Other   |            | 0.01573    |            |       |  0.59

Nlocal:        83.3333 ave          95 max          75 min
Histogram: 3 1 7 7 14 8 5 1 1 1
Nghost:        1757.88 ave        1786 max        1727 min
Histogram: 1 1 4 6 11 7 9 4 2 3
Neighs:        10584.2 ave       12373 max        9284 min
Histogram: 2 5 2 13 11 9 3 2 0 1

Total # of neighbors = 508043
Ave neighs/atom = 127.01075
Neighbor list builds = 908
Dangerous builds = 213

# Equilibrate just above the melting temperature to avoid step fn in T

fix 1 all npt temp 1.25 1.25 0.1 iso 5.68 5.68 0.5 mtk yes tchain 5 pchain 5
run 2000
Per MPI rank memory allocation (min/avg/max) = 3.644 | 3.646 | 3.650 Mbytes
Step Temp E_pair E_mol TotEng Press Volume 
   10000    2.4130644   -4.2881897            0  -0.66949793    5.6885321    3608.1051 
   11000    1.2444538   -6.3099152            0   -4.4437012    5.5537685    2770.3286 
   12000    1.2222444   -6.3050826            0   -4.4721744    6.1505384    2745.2554 
Loop time of 0.669084 on 48 procs for 2000 steps with 4000 atoms

Performance: 516526.875 tau/day, 2989.160 timesteps/s
99.6% CPU use with 48 MPI tasks x no OpenMP threads

MPI task timing breakdown:
Section |  min time  |  avg time  |  max time  |%varavg| %total
---------------------------------------------------------------
Pair    | 0.30866    | 0.32714    | 0.35527    |   1.8 | 48.89
Neigh   | 0.042744   | 0.044154   | 0.048066   |   0.5 |  6.60
Comm    | 0.21611    | 0.247      | 0.26739    |   2.4 | 36.92
Output  | 5.1675e-05 | 5.3167e-05 | 6.9284e-05 |   0.0 |  0.01
Modify  | 0.042632   | 0.04577    | 0.048619   |   0.8 |  6.84
Other   |            | 0.004967   |            |       |  0.74

Nlocal:        83.3333 ave          91 max          77 min
Histogram: 2 2 9 8 5 12 3 4 0 3
Nghost:        2121.88 ave        2135 max        2100 min
Histogram: 1 1 1 3 4 8 14 3 8 5
Neighs:        13917.6 ave       15451 max       12628 min
Histogram: 5 4 2 7 7 13 4 2 1 3

Total # of neighbors = 668046
Ave neighs/atom = 167.01150
Neighbor list builds = 143
Dangerous builds = 10

#############################
# L I N E A R  Q U E N C H  #
#############################

# Define solid atoms. This closely follows ten Wolde  Ruiz-Montero and Frenkel  Faraday Discuss  1996  104  93-110
# Compute components of the per-atom q6 vector
compute q6 all orientorder/atom degrees 1 6 components 6 nnn NULL cutoff 1.3 # compute the Q6 parameter.
                                                                             # Use all neighbours within 1.3 unit cell.

# get number of connections
compute coord_number all coord/atom orientorder q6 0.5

# An atom is solid if it has 8 or more connections (of a possible 14)
variable is_solid atom c_coord_number>=8
group solid dynamic all var is_solid    # Must be dynamic to update
dynamic group solid defined

# do clustering
compute cluster solid cluster/atom 1.3 # Create a cluster where all atoms within are solid and max 1.3 units from another member

# define chunks one chunk per cluster
compute clus_chunks solid chunk/atom c_cluster nchunk every compress yes  # Says which atoms are in which chunk

# count the size of each chunk
compute size_chunks solid property/chunk clus_chunks count


# Find the maximum entry in the vector of chunk sizes
variable max_n equal max(c_size_chunks)


# Thermo style which includes this variable
# thermo_style custom step temp pe vol v_max_n

thermo ${N}  # Print the thermo information every 100 steps
thermo 1000  

# Reset the npt fix at a lower temperature (below freezing)
fix 1  all npt temp  ${temp} ${temp}  0.1  iso  5.68  5.68  0.5  mtk yes tchain  5  pchain  5
fix 1  all npt temp  0.45 ${temp}  0.1  iso  5.68  5.68  0.5  mtk yes tchain  5  pchain  5
fix 1  all npt temp  0.45 0.45  0.1  iso  5.68  5.68  0.5  mtk yes tchain  5  pchain  5

dump dmp2 all dcd ${N} traj.dcd
dump dmp2 all dcd 1000 traj.dcd


compute msd all msd com yes
variable twopoint equal c_msd[4]/6/(step*dt+1.0e-6)
fix 9 all vector 10 c_msd[4]
variable fit equal slope(f_9)/6/(10*dt)
thermo_style custom step temp pe c_msd[4] v_twopoint v_fit v_max_n

fix 1 all npt temp 1.25 ${temp} 0.1 iso 5.68 5.68 0.5 mtk yes tchain 5 pchain 5
fix 1 all npt temp 1.25 0.45 0.1 iso 5.68 5.68 0.5 mtk yes tchain 5 pchain 5
run 2000000 # 5000000  # Run for this many steps
Neighbor list info ...
  update every 1 steps, delay 10 steps, check yes
  max neighbors/atom: 2000, page size: 100000
  master list distance cutoff = 3.8
  ghost atom cutoff = 3.8
  binsize = 1.9, bins = 8 8 8
  4 neighbor lists, perpetual/occasional/extra = 1 3 0
  (1) pair lj/cut, perpetual
      attributes: half, newton on
      pair build: half/bin/atomonly/newton
      stencil: half/bin/3d
      bin: standard
  (2) compute orientorder/atom, occasional
      attributes: full, newton on
      pair build: full/bin/atomonly
      stencil: full/bin/3d
      bin: standard
  (3) compute coord/atom, occasional
      attributes: full, newton on
      pair build: full/bin/atomonly
      stencil: full/bin/3d
      bin: standard
  (4) compute cluster/atom, occasional
      attributes: full, newton on
      pair build: full/bin/atomonly
      stencil: full/bin/3d
      bin: standard
Per MPI rank memory allocation (min/avg/max) = 9.847 | 9.852 | 9.856 Mbytes
Step Temp PotEng c_msd[4] v_twopoint v_fit v_max_n 
   12000    1.2222444   -6.3050826 4.1298841e-30 2.8679749e-32 8.3333333e+20            3 
   13000    1.2742698    -6.389019   0.51062797 0.0032732561  0.042591323            5 
   14000    1.2721713   -6.4330929   0.96792162  0.005761438  0.039591684            2 
   15000    1.2519308   -6.3823114    1.4717429 0.0081763489  0.039435454            2 
   16000    1.2479123   -6.3751214     1.921434  0.010007469  0.039601353            1 
   17000    1.2418423   -6.3704674     2.434644  0.011934529  0.039494264            1 
   18000    1.2615154   -6.3664467    2.9026934  0.013438395  0.039749454            2 
   19000    1.2590497   -6.4010113     3.432446  0.015054587  0.040073403            3 
   20000    1.2458871   -6.3756538    3.9090633  0.016287763  0.040372093            4 
   21000    1.2304001   -6.4241363    4.4034094  0.017473846  0.040518276            2 
   22000    1.2576098   -6.3547742    4.7939529  0.018158912  0.040501976            2 
   23000    1.2590981   -6.3992576    5.2516727  0.019027799  0.040227512            2 
   24000    1.2545946   -6.3986476    5.7748202  0.020051459  0.040038091            4 
   25000    1.2471041   -6.3749265    6.2643974  0.020881324  0.040037164            4 
   26000     1.233728   -6.3920031    6.6794463  0.021408481  0.039943273            5 
   27000    1.2415969   -6.4156824    7.1425152    0.0220448  0.039797202            1 
   28000    1.2307575   -6.3996341    7.6206756  0.022680582  0.039698693            2 
   29000    1.2346474   -6.4199212    8.1733776  0.023486717  0.039675459            2 
   30000    1.2222919   -6.4177811    8.7109245  0.024197012  0.039810926            3 
   31000    1.2316418   -6.4600377    9.0540179  0.024338757  0.039859437            3 
   32000    1.2658367   -6.4158701    9.4894686  0.024712157  0.039771544            3 
   33000    1.2292297   -6.4719298    9.8664766  0.024915345  0.039612193            1 
   34000    1.2490127   -6.3664947    10.460009  0.025637276  0.039532608            2 
   35000     1.247511    -6.383638    10.855841   0.02584724   0.03944945            1 
   36000     1.226331   -6.3559994    11.500084  0.026620564  0.039412815            3 
   37000    1.2411312   -6.4047431    12.020727  0.027073708  0.039497322            2 
   38000    1.2349729   -6.3917351    12.515286  0.027445803   0.03956949            4 
   39000    1.2512172   -6.4537008    12.992117  0.027760933  0.039662787            3 
   40000    1.2322107   -6.4349869    13.427907  0.027974807  0.039709226            2 
   41000    1.2285075   -6.4482443    13.865676  0.028182268   0.03974939            2 
   42000     1.219368   -6.3868214    14.421554  0.028614193   0.03976015            2 
   43000    1.2619868   -6.4010455    15.019759  0.029108059  0.039842817            4 
   44000    1.2410662   -6.4738149     15.43163  0.029226571  0.039902254            1 
   45000    1.2544285   -6.4097424    16.052132   0.02972617  0.039997879            1 
   46000    1.2114677   -6.4473887    16.616533  0.030102414  0.040102501            4 
   47000    1.2367373   -6.4226582    17.125468  0.030364305  0.040198357            2 
   48000    1.2526638   -6.4674318    17.399453  0.030207383  0.040266861            1 
   49000    1.2405139   -6.4113064    18.057041  0.030709253  0.040319578            4 
   50000    1.2212004   -6.4062464    18.397614   0.03066269  0.040337302            1 
   51000    1.2137427    -6.449233    18.846288  0.030794588  0.040340687            7 
   52000    1.2384331    -6.398361    19.210878  0.030786663  0.040326236            1 
   53000    1.2110006   -6.4430265    19.556913  0.030749863  0.040277321            2 
   54000    1.2208095   -6.4762692    20.051348  0.030943438  0.040220166            3 
   55000    1.2618077   -6.4298946     20.53109  0.031107711  0.040166328            1 
   56000    1.2134398   -6.4008653    21.061928  0.031342154  0.040122596            2 
   57000    1.2164356    -6.431158    21.398223  0.031283951  0.040078356            4 
   58000    1.2252046   -6.4661777    21.703426  0.031183084  0.040003804            2 
   59000    1.2402847   -6.4306989    22.280208   0.03146922  0.039929768            2 
   60000    1.2427271   -6.4513882    22.583444  0.031365894  0.039848098            1 
   61000    1.2417682   -6.4373732    23.046336  0.031484066  0.039773141            3 
   62000     1.246696   -6.4022966    23.538733  0.031638081  0.039701649            2 
   63000    1.2154352    -6.393348    24.007513   0.03175597  0.039641336            1 
   64000    1.2365346   -6.4636116    24.318214  0.031664341  0.039568595            3 
   65000    1.2383607   -6.4137834    24.959047  0.031998778  0.039502536            2 
   66000    1.2281565   -6.4358883    25.237281  0.031865254  0.039425963            2 
   67000    1.2590466   -6.4400035    25.807695  0.032099123  0.039352677            3 
   68000    1.2262609   -6.4170326    26.129475  0.032021415  0.039277613            2 
   69000    1.2394396   -6.4811876    26.505583  0.032011574  0.039209972            4 
   70000     1.219464   -6.3837186    26.949596  0.032082853  0.039136152            1 
   71000    1.1885729   -6.4427595    27.298833  0.032040884  0.039060314            3 
   72000    1.2192108   -6.4563659    27.841364  0.032223801    0.0389952            3 
   73000    1.2492194   -6.4334028    28.128928  0.032110648  0.038917589            2 
   74000     1.244774   -6.4693988    28.331881  0.031905271  0.038824205            3 
   75000    1.2159346   -6.4452196    28.943764  0.032159738  0.038732639            1 
   76000    1.2304226   -6.4420054    29.452551  0.032294464  0.038656525            3 
   77000    1.2274305   -6.4362964    29.910917  0.032371122  0.038587242            3 
   78000     1.204139   -6.4592064    30.424213  0.032504501  0.038536019            2 
   79000    1.2099207   -6.4230342    31.158955  0.032868096  0.038501299            4 
   80000    1.2296461   -6.4619831    31.447493  0.032757805  0.038472052            2 
   81000    1.2434944   -6.4088901    32.093424  0.033017926  0.038447664            2 
   82000     1.219674   -6.4592431    32.478757  0.033006866  0.038426321            2 
   83000    1.2110034   -6.4291232    32.951567  0.033083902  0.038408936            4 
   84000    1.2186246   -6.4881498    33.250238  0.032986347  0.038392801            2 
   85000    1.2440295   -6.4647098     33.61921   0.03296001  0.038362698            2 
   86000    1.2394631   -6.4576525     34.11033  0.033052645  0.038326594            4 
   87000    1.2331619   -6.4545574    34.475136   0.03302216  0.038295056            3 
   88000    1.2339161   -6.4712699    34.980689  0.033125652  0.038262859            2 
   89000    1.2317975   -6.4754181     35.39187  0.033138455  0.038233191            3 
   90000     1.249069   -6.5048212    35.665074  0.033023216  0.038198683            3 
   91000      1.21682   -6.4642039    36.172311  0.033124826  0.038160781            3 
   92000    1.2234794   -6.4522386    36.633542  0.033182556  0.038125365            3 
   93000    1.2279323   -6.4682517    37.120299  0.033261916  0.038105084            3 
   94000    1.1825305   -6.4419769     37.64314  0.033371577   0.03808524            4 
   95000    1.2032742   -6.4802411    38.064592  0.033389993  0.038057561            7 
   96000    1.2240271   -6.4728628    38.557295  0.033469874  0.038041632            1 
   97000     1.198706   -6.4537916    38.999767  0.033504955  0.038024456            2 
   98000    1.1958171   -6.4472511     39.57819  0.033654923  0.038008037            2 
   99000    1.2238541   -6.4502331     39.92873  0.033610042   0.03799814            5 
  100000    1.2451388   -6.4970163    40.340377  0.033616981  0.037984461            1 
  101000    1.2071543   -6.4939072    40.788035  0.033653494  0.037962357            3 
  102000    1.2103966   -6.4713735    41.358363  0.033789512  0.037949268            8 
  103000    1.2008426   -6.4919902    41.659254  0.033704898  0.037938404            2 
  104000    1.2114466   -6.4866679     42.31904  0.033909487  0.037935871            2 
  105000    1.2190687   -6.4731775    42.645367  0.033845529  0.037930676            2 
  106000     1.204248   -6.5112483    42.932787  0.033752191   0.03791683            2 
  107000    1.1871972   -6.4493909    43.502123  0.033880158  0.037901379            4 
  108000    1.2185773    -6.439169     43.90192  0.033874938  0.037889515            1 
  109000    1.1945309    -6.440897     44.29916  0.033867859  0.037872083            2 
  110000    1.2008117   -6.4799001    44.942728  0.034047521  0.037858024            3 
  111000    1.2183312   -6.4927437    45.332906  0.034033713  0.037846793            2 
  112000    1.2111286   -6.5057558    45.629174  0.033950278  0.037833984            6 
  113000    1.2110944   -6.5058243    46.220432  0.034085864  0.037817625            2 
  114000      1.20907   -6.4849036    46.622293  0.034080623  0.037818788            3 
  115000    1.2172798   -6.4955839    47.400495  0.034348184  0.037824043            3 
  116000    1.2081211    -6.469793    47.873654  0.034391993  0.037825689            3 
  117000    1.1798572   -6.5265017    48.042551  0.034218341  0.037827345            2 
  118000    1.1997964   -6.4990284    48.627844  0.034341698  0.037829114            3 
  119000    1.2176543   -6.4993057    49.193139  0.034448977  0.037830902            2 
  120000    1.1762266    -6.468747    49.780237  0.034569609  0.037833011            2 
  121000    1.2163363   -6.4450766    50.208144  0.034578612  0.037833694            3 
  122000    1.2222728   -6.5253699    50.362239  0.034400436  0.037832148            2 
  123000    1.2273106   -6.5704716    50.743878  0.034379321  0.037824327            2 
  124000    1.2195462   -6.4745308    51.517484  0.034621965  0.037820173            2 
  125000     1.222584   -6.4882718    51.667218  0.034444812  0.037813611            3 
  126000     1.182575   -6.5381799    52.172029   0.03450531  0.037810491            5 
  127000     1.216801    -6.446285    52.765046  0.034622733  0.037805663            2 
  128000    1.2165917   -6.5103777    53.167645  0.034614352  0.037806836            2 
  129000    1.2035267   -6.5033627    53.620396  0.034638499  0.037810251            4 
  130000    1.1728479   -6.4860724     54.01969  0.034628006  0.037809672            2 
  131000    1.2119467   -6.5219499    54.239118  0.034503255  0.037804021            2 
  132000    1.2101252   -6.4793911    55.231063  0.034868095  0.037802968            1 
  133000    1.2270902   -6.5347671    55.427561  0.034729048  0.037804722            6 
  134000    1.2169398   -6.4705244     56.04693  0.034855056  0.037807456            3 
  135000     1.200027   -6.5277357    56.427612  0.034831859  0.037809081            2 
  136000    1.2223075   -6.5271339    56.744854  0.034770131  0.037810918            7 
  137000    1.1842393    -6.486842    57.008419  0.034676654  0.037806177            3 
  138000     1.198582   -6.5042156    57.542639   0.03474797  0.037801176            3 
  139000    1.2049161   -6.5481308    57.394917  0.034409423  0.037790378            1 
  140000    1.1920736   -6.5108344    58.003266  0.034525754   0.03777366            2 
  141000    1.1836583   -6.5231102    58.600732  0.034634002   0.03775548            3 
  142000    1.1738387    -6.511582     58.91329  0.034573527  0.037737075            4 
  143000    1.2011615   -6.5451087    59.293428   0.03455328  0.037715256            3 
  144000    1.2161325   -6.5461459    59.529791  0.034450111  0.037689952            3 
  145000    1.1923127   -6.5335612    59.678432  0.034297949  0.037665814            3 
  146000    1.1795487    -6.473708    60.393656  0.034471265  0.037640322            1 
  147000     1.194931   -6.4751454    60.983183  0.034570965  0.037618729            2 
  148000    1.1921272   -6.5601609    60.962978  0.034326001  0.037594318            2 
  149000    1.1761297   -6.4924541    61.693601  0.034504251  0.037567349            3 
  150000    1.2231363   -6.5072714    61.963097  0.034423943  0.037546504            2 
  151000    1.1722755    -6.569783    62.294448  0.034378835  0.037521494            2 
  152000    1.2085445   -6.5276104    62.569941  0.034303696   0.03749449            4 
  153000    1.2077068   -6.5559561    62.952603   0.03428791   0.03746478            1 
  154000    1.1897165   -6.5228423    63.572145  0.034400512  0.037439908            3 
  155000     1.156318   -6.5397895    63.883487   0.03434596  0.037414641            1 
  156000    1.2168747    -6.460312    64.446457  0.034426526  0.037387683            1 
  157000    1.1882121   -6.5275978    64.547619  0.034260944  0.037358774            2 
  158000    1.1707043   -6.5069474    64.767776  0.034160219  0.037324147            2 
  159000    1.1998546   -6.5351331    65.185562   0.03416434  0.037289587            2 
  160000    1.1935099   -6.5366111    65.359588  0.034041452  0.037254942            2 
  161000    1.1881374   -6.5173669    66.027768  0.034175863  0.037219192            2 
  162000    1.1888064   -6.5455126    65.852172  0.033874574  0.037179539            4 
  163000    1.2029879   -6.5169887     66.69201   0.03409612  0.037140749            4 
  164000    1.1945926    -6.515698    67.448764  0.034272746  0.037110137            6 
  165000    1.1862894   -6.5219676    67.792504  0.034238638  0.037076537            5 
  166000    1.1844873   -6.5507749    68.112716   0.03419313   0.03704654            1 
  167000    1.1750146   -6.5705042    68.168926   0.03401643  0.037011376            1 
  168000    1.1682181   -6.5680315    68.529252  0.033992685  0.036975339            1 
  169000    1.1794219   -6.5162974     69.28817  0.034165764  0.036939717            2 
  170000    1.2042213   -6.5422638    69.520881  0.034078863  0.036907858            3 
  171000     1.183002    -6.518631    69.889223  0.034059075  0.036873154            3 
  172000    1.1624787    -6.513279    70.103349  0.033964801  0.036838481            2 
  173000    1.2045797   -6.5463958     70.51725  0.033967847   0.03680286            3 
  174000    1.1805018   -6.5588316     70.79886    0.0339075  0.036766412            3 
  175000    1.1873007   -6.5500781    71.404049  0.034001928  0.036730073            2 
  176000    1.2226703   -6.5140043    71.882476  0.034035263  0.036694892            3 
  177000    1.2002111   -6.5373393    72.121518  0.033955517   0.03666415            2 
  178000    1.1911982   -6.5763043    71.939291  0.033679443  0.036632389            1 
  179000    1.1927831   -6.5219408    72.811566  0.033897377  0.036600835            5 
  180000    1.1865218   -6.5171962    73.220336  0.033898304  0.036565272            3 
  181000    1.2138711   -6.5717678    73.346768   0.03376923  0.036530787            4 
  182000    1.1807664   -6.5582835     73.56397  0.033683136  0.036496247            2 
  183000    1.1700229    -6.568257    74.372916  0.033867448   0.03646227            6 
  184000    1.1820484    -6.511055    74.857693  0.033902941  0.036431028            3 
  185000    1.1876271   -6.6067811    75.066932  0.033813933  0.036400326            3 
  186000    1.1832896   -6.5689494    75.625794  0.033882524  0.036369011            3 
  187000    1.2117517   -6.5487679    76.023557   0.03387859   0.03633958            3 
  188000    1.1940342   -6.5168439    76.522069  0.033919357  0.036312055            2 
  189000    1.1786601   -6.5839338    76.640235  0.033791991  0.036281198            3 
  190000      1.15785    -6.570032    77.253379  0.033883061  0.036249387            2 
  191000    1.1954009   -6.5593685    77.348008  0.033746949  0.036218699            2 
  192000     1.173931   -6.5464805    77.869839  0.033797673  0.036187747            1 
  193000    1.1786556   -6.6011978    78.192049  0.033761679  0.036155957            2 
  194000    1.1518779   -6.5372493    78.551588  0.033742091  0.036124697            4 
  195000    1.1871035   -6.5827495    78.524568  0.033557508  0.036090133            1 
  196000    1.1532442   -6.5868348    78.874472  0.033535065  0.036054207            1 
  197000    1.1834819   -6.5883387    79.247941  0.033522818  0.036020116            2 
  198000    1.1717483   -6.5207963    79.971346  0.033657974  0.035987214            2 
  199000    1.1898935   -6.5359362    80.617644  0.033759482  0.035955933            4 
  200000    1.1338769   -6.5868431    80.728654  0.033636939  0.035927145            3 
  201000    1.1716754   -6.5663952    81.169005  0.033652158  0.035897307            2 
  202000    1.1777684   -6.5366657    81.918419  0.033794727  0.035870868            3 
  203000    1.1693111   -6.6041093    81.862775  0.033605408  0.035843813            3 
  204000    1.1935792   -6.5911299    82.537605  0.033716342  0.035816369            4 
  205000    1.1802333   -6.6112532    82.595043  0.033575221  0.035789905            4 
  206000    1.1473639   -6.5607693     83.19177  0.033653629  0.035763399            2 
  207000    1.1811961   -6.6253947    83.262551  0.033519545  0.035735525            2 
  208000    1.1746659   -6.5957785    84.075267  0.033684001  0.035708976            4 
  209000    1.1516953   -6.6051563    84.255086  0.033594532  0.035680557            2 
  210000    1.1536134   -6.5719524    84.656667  0.033593915   0.03565376            2 
  211000    1.1769851   -6.5931344    84.999229  0.033569996  0.035626634            2 
  212000    1.1698589   -6.6006241     85.37246  0.033558357   0.03559945            2 
  213000    1.1748834   -6.5557137    86.114733   0.03369121  0.035576484            2 
  214000    1.1568468   -6.6195641    86.152846  0.033548616  0.035552982            2 
  215000    1.1644323    -6.557831     87.04524  0.033738465  0.035529878            2 
  216000    1.1604249   -6.6149823    87.229416  0.033653324  0.035508417            3 
  217000    1.1524083   -6.5899845    87.416193  0.033569966  0.035485316            2 
  218000    1.1580264    -6.572742    88.119089  0.033684667  0.035463848            3 
  219000    1.1500038   -6.5758356    88.381843  0.033630838  0.035441826            2 
  220000    1.1730785   -6.5946417    88.828352  0.033647103  0.035420384            4 
  221000    1.1537327   -6.5923343    89.001637  0.033560195  0.035397621            1 
  222000    1.1635911   -6.6001021    89.503306  0.033597337    0.0353783            6 
  223000    1.1612406   -6.6003051    90.185356  0.033701553  0.035358929            2 
  224000    1.1749279   -6.6225201    90.315892  0.033599662  0.035338211            3 
  225000    1.1706297   -6.5907565    90.859361  0.033651615  0.035319616            3 
  226000    1.1598491   -6.6214529    90.635819  0.033420287   0.03529913            1 
  227000    1.1806458   -6.5969712    91.132177  0.033455278  0.035276082            4 
  228000    1.1688358   -6.6423713    91.534122  0.033455454  0.035251804            2 
  229000     1.172111   -6.6130671    91.667035  0.033357727  0.035228616            3 
  230000    1.1598456   -6.6497919    91.782842  0.033254653  0.035204485            3 
  231000    1.1613683   -6.6030877    93.042459  0.033565101  0.035181572            3 
  232000    1.1599954   -6.5900193    93.341593  0.033527871  0.035161665            1 
  233000    1.1815829   -6.6174194    93.726675  0.033521701  0.035141213            2 
  234000    1.1689764   -6.6163874    93.893112  0.033437718  0.035121148            5 
  235000    1.1808495   -6.6156051    93.969982  0.033322689  0.035099689            2 
  236000     1.130295   -6.5967709    94.641982  0.033418779  0.035077159            2 
  237000    1.1642584   -6.6100463     94.78018  0.033326364  0.035055033            2 
  238000    1.1417335   -6.6463075    94.898541   0.03322778  0.035031708            5 
  239000    1.1581759   -6.6032271    95.736235  0.033380835  0.035007782            2 
  240000    1.1486209   -6.5891289    96.264666  0.033425231  0.034985394            2 
  241000    1.1692447   -6.5978439    96.224974  0.033272812  0.034962143            2 
  242000     1.143567   -6.6195975    96.585275  0.033259392  0.034938799            3 
  243000     1.184565   -6.5942227    97.208595  0.033336281  0.034916728            2 
  244000    1.1387307   -6.6273035    97.298324  0.033230302  0.034893287            3 
  245000    1.1485996   -6.6397883    97.209612  0.033064494  0.034868862            3 
  246000    1.1471787   -6.5610885    98.096184  0.033230415  0.034846328            6 
  247000    1.1579759   -6.6598962    97.839245  0.033009192  0.034823716            4 
  248000    1.1575171   -6.5893615    98.943125  0.033247018  0.034799939            3 
  249000    1.1403731   -6.5858235    99.800311  0.033400372  0.034777489            3 
  250000    1.1798271   -6.6476704    99.816866  0.033272288  0.034756623            2 
  251000    1.1499379   -6.6239793    100.36301  0.033321052  0.034734427            2 
  252000    1.1319664    -6.635976    100.47688  0.033226481  0.034714468            7 
  253000    1.1524882   -6.6305694    100.74503  0.033183476  0.034695296            2 
  254000    1.1514095   -6.6629444    101.11289   0.03317352  0.034675404            2 
  255000    1.1575712   -6.6661895    101.31424  0.033109228  0.034654374            3 
  256000    1.1550428   -6.6566942    101.38239  0.033002081  0.034632006            2 
  257000    1.1689116   -6.5743763    102.38063   0.03319735  0.034610852            4 
  258000    1.1526138   -6.5757033    102.42416  0.033082738  0.034590194            4 
  259000    1.1462531   -6.6608869    102.47766  0.032972219  0.034568143            5 
  260000     1.171031   -6.6886499    102.81706  0.032954187  0.034545304            8 
  261000     1.156032   -6.6339661    103.39961  0.033013922  0.034523208            3 
  262000    1.1678515   -6.6451787    103.97648  0.033071401  0.034502164            3 
  263000    1.1367188   -6.6530761    104.21289  0.033020562  0.034481296            4 
  264000    1.1467533   -6.6380348    104.37805  0.032947618  0.034458381            4 
  265000    1.1572031   -6.6397947    104.46346  0.032850146  0.034433309            3 
  266000    1.1576624   -6.6051248    104.97139  0.032885775  0.034407028            4 
  267000    1.1668411   -6.6402533    105.02448  0.032779175  0.034381183            2 
  268000    1.1516268   -6.6692718     105.3235  0.032749845  0.034356694            3 
  269000    1.1575281   -6.6254417    105.78191  0.032770109  0.034331255            4 
  270000    1.1609298   -6.6643971     105.3155  0.032504783   0.03430415            3 
  271000    1.1462463   -6.6117173    106.26012  0.032675314  0.034276183            2 
  272000    1.1300252   -6.6372207    106.59914  0.032659051  0.034250016            3 
  273000    1.1745182   -6.6692289    106.74104  0.032582736  0.034224083            3 
  274000    1.1603584   -6.6671841    106.93959  0.032524205  0.034197609            2 
  275000    1.1266361   -6.6631134    107.23895   0.03249665  0.034170088            4 
  276000    1.1332431   -6.6799293    107.58239  0.032482606  0.034143076            4 
  277000    1.1504744    -6.610261    108.05293  0.032506898   0.03411418            3 
  278000    1.1464279   -6.6540035    108.11749  0.032409319  0.034085446            1 
  279000    1.1561624   -6.6276904    108.62356  0.032444312  0.034056799            4 
  280000    1.1414638   -6.6386222    108.97179  0.032432079  0.034028605            2 
  281000    1.1529089   -6.6830272    109.43751  0.032454777  0.034001872            3 
  282000    1.1421261   -6.6793934    109.96591  0.032495837  0.033975745            3 
  283000    1.1302983   -6.6774683    109.97782  0.032384516  0.033949051            6 
  284000    1.1409286   -6.6647604    110.28712  0.032361243  0.033921855            3 
  285000    1.0899544   -6.6634489    110.81925  0.032403288  0.033895292            6 
  286000    1.1472051   -6.6632268    111.05959  0.032360019  0.033868565            5 
  287000    1.1639591   -6.6756571    111.16057  0.032276587   0.03384244            3 
  288000    1.1513842   -6.7083511    111.46084    0.0322514  0.033816241            3 
  289000    1.1553957   -6.6768551    112.29749  0.032381053  0.033790129            2 
  290000     1.133789   -6.6740188    112.14649  0.032226003  0.033764249            2 
  291000    1.1455759   -6.6545726    112.76306  0.032291826  0.033738142            4 
  292000    1.1017203   -6.6534655    112.57327  0.032127076  0.033711664            6 
  293000    1.1399621   -6.6540471    113.47368  0.032273515  0.033684418            3 
  294000      1.11435   -6.6543552    113.70524  0.032229376  0.033657011            3 
  295000     1.153102   -6.6729875    113.49531  0.032060821  0.033629498            2 
  296000    1.1420193    -6.656062    114.38825    0.0322039  0.033602556            4 
  297000    1.1332655   -6.6680561     114.5964  0.032153873  0.033575724            5 
  298000    1.1366834   -6.6437468    114.88158   0.03212572  0.033549482            4 
  299000    1.1358958   -6.7212212    114.84787  0.032008882  0.033521367            8 
  300000    1.1493959   -6.7079388    115.09468  0.031970744  0.033493464            5 
  301000    1.1387844   -6.6738982    115.29248   0.03191929  0.033466082            1 
  302000    1.1322702   -6.6622926    116.16265  0.032053712  0.033439781            3 
  303000    1.1071904   -6.6745935    116.04194  0.031914724  0.033413325            6 
  304000    1.1173108    -6.685132     116.5608  0.031951973  0.033385167            1 
  305000    1.1314494   -6.6596305    116.45012  0.031816972    0.0333567            2 
  306000    1.1409182   -6.6941836    117.10032  0.031890065  0.033329104            6 
  307000    1.1103011   -6.6401048    117.03565  0.031768634  0.033299789            2 
  308000    1.1282958   -6.6841993    117.20117  0.031710273  0.033269954            4 
  309000    1.1243977   -6.6965046    117.38358  0.031656844  0.033240304            5 
  310000    1.1334196   -6.7002907    117.62789    0.0316204  0.033209248            4 
  311000    1.1273506    -6.730906    117.95676   0.03160685  0.033179537            3 
  312000    1.1223321   -6.6995859    118.77017  0.031722803  0.033150257            3 
  313000     1.119973   -6.6850024    118.84012  0.031640076  0.033120395            6 
  314000    1.1230206   -6.6800528    119.46989  0.031706446  0.033091041           10 
  315000    1.1495426   -6.6724733     119.5499  0.031626959  0.033062054            5 
  316000    1.1345455   -6.6623793    119.94745  0.031631713  0.033033246            6 
  317000    1.1317688    -6.647313    119.99999  0.031545738  0.033004455            4 
  318000    1.1422971   -6.7170608    119.89221  0.031418294  0.032974606            3 
  319000    1.1341297   -6.7125819    120.33692  0.031435977  0.032944518            7 
  320000    1.1328658   -6.7297008    120.34854  0.031340765  0.032914046            2 
  321000    1.1289798   -6.7258999    120.86097  0.031376161  0.032882686            5 
  322000    1.1152981   -6.6659764    121.33011  0.031400133  0.032852364            3 
  323000    1.1252464   -6.6929918    121.77663   0.03141812  0.032822749            2 
  324000    1.1348848   -6.7354345    122.03817  0.031388419  0.032793303            4 
  325000    1.1267995     -6.70942     122.0132  0.031285437  0.032763102           13 
  326000    1.1567001   -6.7083064    122.15454  0.031225598  0.032732063            5 
  327000     1.136102   -6.7184624    122.17057  0.031134192  0.032701154            5 
  328000    1.1192016   -6.7378678    122.04531  0.031007446  0.032668945            4 
  329000    1.1103357   -6.6866695    123.37191  0.031249217  0.032637736            3 
  330000    1.1040099   -6.7203781    123.71882  0.031242126  0.032607043            6 
  331000    1.1058236    -6.725517    123.51383   0.03109613  0.032576942            2 
  332000    1.1236066   -6.6944116    124.40081  0.031225104  0.032546591            3 
  333000    1.1026847    -6.700203    124.48124  0.031151462  0.032516292            5 
  334000     1.126446   -6.7222104    124.39347  0.031036294  0.032486145            3 
  335000    1.1095264   -6.6818837    124.54444  0.030981205  0.032455511            4 
  336000    1.1083363   -6.7042782    125.58761  0.031147722   0.03242658            2 
  337000    1.1157509   -6.6753804    125.90977  0.031134959  0.032398611            3 
  338000    1.1196607   -6.6913146    126.57918  0.031207885  0.032370507            8 
  339000    1.1378109   -6.7302752    126.69277   0.03114375  0.032343296            2 
  340000    1.1310059   -6.7225466    127.05833  0.031141749  0.032316264            3 
  341000     1.104671   -6.6899417    127.36332  0.031124957  0.032289223            5 
  342000    1.1237881   -6.7565106    127.40022  0.031042938  0.032262494            6 
  343000    1.1112769   -6.7782235    128.02916  0.031105237  0.032236192            3 
  344000    1.1115864   -6.7151934    128.77563  0.031195647  0.032209595            4 
  345000     1.168405   -6.7365886    128.36368  0.031005719  0.032184176            1 
  346000     1.122652   -6.7152743    129.03872   0.03107869  0.032158072            2 
  347000    1.1390891   -6.7890931    128.66741  0.030899953  0.032131278            2 
  348000    1.1282628   -6.7235663    129.47559  0.031004692  0.032105598            8 
  349000    1.1112219    -6.729364    129.87234  0.031010586  0.032081083            2 
  350000    1.1243358   -6.7348602     130.4582  0.031061476  0.032055924            4 
  351000    1.1277945    -6.700857     130.3792  0.030954226  0.032031141            9 
  352000    1.1038797   -6.7389365    130.48402  0.030891102  0.032006537            3 
  353000    1.1125888   -6.7342493    130.74578  0.030865387  0.031980835            3 
  354000     1.130241    -6.724424    131.56622  0.030971334  0.031955043            4 
  355000     1.093317   -6.7070334    131.65771  0.030905567  0.031930318            3 
  356000     1.101835    -6.690932    131.82722  0.030858431  0.031905271            2 
  357000    1.1287539   -6.7463852    132.42096  0.030910589  0.031880955            3 
  358000    1.1294483   -6.7145958    132.35067  0.030807885  0.031856117            2 
  359000    1.1340865   -6.6952014    133.24241  0.030929063  0.031831413            2 
  360000    1.1010771   -6.6805014    133.43761  0.030888336  0.031807962            4 
  361000    1.0909114   -6.7356684    133.51084  0.030819678  0.031784704            2 
  362000    1.1161851   -6.7620778    133.41514  0.030712509  0.031760261            2 
  363000    1.1017619   -6.7471477    134.48072  0.030872525  0.031736205            4 
  364000    1.1219948   -6.7650123    134.16795  0.030716105  0.031713503            2 
  365000    1.0980031   -6.7445654    134.31115  0.030664646  0.031690107            8 
  366000    1.1099196   -6.7581873    135.01771  0.030741737   0.03166713            2 
  367000    1.0933433    -6.739289    135.58863  0.030787609  0.031643688            3 
  368000    1.1038149   -6.7259539    135.52214   0.03068889  0.031620008            4 
  369000    1.1036332   -6.7382628    135.78388  0.030664834  0.031595911            4 
  370000    1.1100602   -6.7472876    136.08769   0.03065038  0.031571664            5 
  371000      1.09157   -6.7604417     136.2564  0.030605661   0.03154717            2 
  372000    1.1023124    -6.717719    136.79779  0.030644666  0.031523596            1 
  373000    1.0944176   -6.7534823    136.75898  0.030553838  0.031499692            2 
  374000     1.110913   -6.7319785    137.07691  0.030542983  0.031475235            4 
  375000    1.0931267   -6.7864947    137.17866  0.030484147  0.031451098            4 
  376000     1.102338   -6.7580968    137.84438  0.030550616  0.031426895            3 
  377000    1.1095924   -6.7529031    138.27826  0.030565486    0.0314031            2 
  378000    1.1112131   -6.7825429    137.68657  0.030354182   0.03137909            3 
  379000    1.0969251   -6.7593127    138.52343  0.030458098  0.031355116            1 
  380000    1.1132365   -6.7459885    138.84996  0.030449552  0.031331583            2 
  381000    1.1102799   -6.7390676    140.04558  0.030631143  0.031309432            4 
  382000    1.1093588   -6.8175323    139.28703  0.030385478  0.031286768           10 
  383000    1.1306451   -6.7068723    140.87637  0.030651951  0.031263885            9 
  384000     1.134186   -6.7474305    140.49639  0.030489669  0.031243048            2 
  385000    1.1260351   -6.7655848    141.26086  0.030575944  0.031222204           14 
  386000     1.088521   -6.7320794    141.72996  0.030598005  0.031202074            6 
  387000    1.1073552   -6.7732429    142.04732  0.030587279  0.031181866            2 
  388000     1.086224    -6.755821    142.06236  0.030511675   0.03116167            4 
  389000    1.1041146   -6.7806454    142.22695  0.030468499  0.031141611            3 
  390000     1.107179   -6.7768911    142.94549  0.030543907  0.031121851            2 
  391000    1.0889347   -6.7838973    143.07175  0.030492699  0.031102124            7 
  392000    1.1150709   -6.7979224    143.14039  0.030429504  0.031082203            2 
  393000    1.0740665    -6.751601     143.8764  0.030508143  0.031062374            3 
  394000    1.1234055   -6.7536022    144.07165  0.030472007  0.031044033            5 
  395000    1.0784782   -6.7604976    144.36376  0.030456489  0.031025547            3 
  396000    1.1067545   -6.7938875    144.69742  0.030449793   0.03100649            6 
  397000    1.0794099   -6.7639962    144.40357  0.030311413   0.03098673            2 
  398000    1.0954686   -6.8124571    144.68246  0.030293647  0.030966116            3 
  399000    1.0821524   -6.8065442     144.9698  0.030277736  0.030946002            2 
  400000    1.0794697   -6.8102615    145.77089  0.030368936  0.030927087            6 
  401000    1.0985043   -6.7977805    146.41895  0.030427878  0.030908703            4 
  402000     1.084573   -6.7410423     147.4018  0.030555929  0.030890735            4 
  403000    1.0719213   -6.7671955     147.2377  0.030446174  0.030873652            2 
  404000    1.1034755   -6.7738582    147.26375  0.030376187  0.030856054            6 
  405000     1.082882   -6.8019517    147.21922  0.030292021  0.030838485            6 
  406000    1.1279111    -6.793883    147.64107  0.030303997  0.030819904            2 
  407000    1.0944897   -6.7812975    148.05231  0.030313741  0.030801975            2 
  408000    1.0995767   -6.7805038    147.81101  0.030190157   0.03078328            4 
  409000    1.1203871   -6.8376081    148.15485  0.030186401   0.03076387            3 
  410000    1.0869866   -6.8244431     148.1886  0.030119635  0.030744354            5 
  411000    1.1129073   -6.7898298    148.74567    0.0301593  0.030724869            9 
  412000     1.056818   -6.7359017    149.30827  0.030199893  0.030704824            1 
  413000    1.0732305   -6.8005568     148.4026  0.029944028  0.030684719           11 
  414000     1.087865   -6.7900888    149.21816  0.030035862  0.030663662            2 
  415000    1.0639685   -6.7614155    149.93299  0.030107026  0.030643246            5 
  416000    1.0974717   -6.8110137    149.93883  0.030035823  0.030622927            4 
  417000    1.1034102    -6.827054    150.02003  0.029980022  0.030602327            3 
  418000    1.0942207   -6.8001651    149.98967  0.029902247  0.030581539            3 
  419000    1.1025782   -6.7818426    150.75667  0.029983427  0.030560815            2 
  420000    1.0829306   -6.7797155    150.99029  0.029958391  0.030540509            5 
  421000    1.0580477   -6.7514828    151.69763  0.030027243  0.030520699            2 
  422000    1.0765476   -6.7429606    151.87695  0.029991499  0.030500853            5 
  423000    1.0966928   -6.8034076    152.08684  0.029961946  0.030481007            3 
  424000    1.0734516   -6.7977121    152.05849   0.02988571    0.0304609            2 
  425000    1.1059375   -6.8063039    152.62874  0.029927205  0.030440881            4 
  426000     1.091708   -6.8024327    152.96294  0.029922327  0.030420432            3 
  427000    1.0716779   -6.8195261     152.8805  0.029836162   0.03040025            3 
  428000    1.0742041   -6.8069968    152.89561  0.029769395  0.030380245            1 
  429000    1.0832832   -6.7853428    153.32188  0.029782805   0.03035991            2 
  430000    1.0906084   -6.8452619    152.98817   0.02964887  0.030339292            5 
  431000    1.0911248   -6.8217537    153.59464  0.029697339  0.030318272            2 
  432000    1.0741534   -6.7732896    153.82039  0.029672144  0.030297145            2 
  433000    1.0677547   -6.7897143     154.1448  0.029666052  0.030275772            5 
  434000    1.0821384   -6.8006262    154.32998  0.029633252  0.030254391            2 
  435000    1.0663442   -6.8260117    154.54145  0.029605642  0.030232716            5 
  436000    1.0716673   -6.8026519    154.78746   0.02958476  0.030211701            4 
  437000    1.0881613   -6.8266129    155.20876  0.029597399  0.030190317            3 
  438000    1.0689195   -6.8300893    155.48937  0.029583213  0.030169124            3 
  439000    1.1013795   -6.8116902    156.01272  0.029615171   0.03014934            4 
  440000    1.0507972   -6.8145246    156.80561  0.029698033   0.03012926           10 
  441000    1.0669929   -6.8122948    156.36296  0.029547045  0.030108293            3 
  442000    1.0886123   -6.8545734    156.60441  0.029525717  0.030086947            3 
  443000    1.0808909   -6.8305204    156.98747  0.029531126  0.030066251            4 
  444000    1.0788671   -6.8182103      157.308  0.029524775  0.030045652            2 
  445000    1.0694998    -6.825736    157.37283  0.029470568  0.030024767            6 
  446000    1.0449316   -6.8164458    157.30604   0.02939201  0.030003409           14 
  447000    1.0473904   -6.8767784    156.93393  0.029256884  0.029981652            3 
  448000     1.057597    -6.882478    157.19073  0.029239347  0.029958987            2 
  449000     1.058248   -6.8611077    157.50556  0.029232657  0.029935964            2 
  450000    1.0888017   -6.8664634    157.43609  0.029154832  0.029913361            3 
  451000    1.0728296   -6.8404526    157.90719  0.029177234  0.029890723            5 
  452000    1.0966404   -6.8376818    158.20966  0.029168447  0.029867795            3 
  453000    1.0656045   -6.8489343    158.03414  0.029071769  0.029844911            5 
  454000    1.0635507    -6.840635    159.27276  0.029235088  0.029822858            2 
  455000    1.0648617   -6.8319925    159.22745  0.029162536  0.029800879            4 
  456000    1.0673674   -6.7999356    159.98629  0.029237261  0.029778723           10 
  457000    1.0910103   -6.8370875    159.63021  0.029108354  0.029756554            6 
  458000    1.0593983   -6.8623373    159.64681  0.029047818  0.029734441            2 
  459000    1.0923292   -6.8428422    160.56622  0.029151456  0.029712683            6 
  460000    1.0678112   -6.8184447    160.12765  0.029008632  0.029690461            2 
  461000    1.0735806   -6.8100801    160.72176  0.029053103  0.029668223            3 
  462000    1.1026947     -6.83424    161.00029  0.029040457  0.029645551            4 
  463000    1.0519317   -6.8003187    161.25903  0.029024303  0.029622832            4 
  464000    1.0655203   -6.8017742    161.02221  0.028919219  0.029600033            5 
  465000    1.0675682    -6.831764    160.97571  0.028848693   0.02957708            4 
  466000    1.0752499   -6.8233268    161.57571  0.028894082  0.029554168            5 
  467000    1.0356002   -6.8500643    161.45933  0.028811444  0.029530646            7 
  468000    1.0779688   -6.8246023    162.43775    0.0289241  0.029507576            3 
  469000    1.0529507   -6.8384402     162.6939  0.028907943  0.029485493            5 
  470000    1.0784264   -6.8671862    162.99077  0.028899073  0.029463772            3 
  471000    1.0498851   -6.8350327    162.84111  0.028811237  0.029441791            6 
  472000    1.0617243    -6.833124    163.37819   0.02884502  0.029419967            6 
  473000    1.0649109   -6.8655552    163.67231  0.028835854  0.029398463            5 
  474000    1.0777596    -6.847549    163.60087   0.02876246  0.029377109            5 
  475000    1.0699541   -6.8592419    163.94878  0.028762944  0.029355036            3 
  476000    1.0663519   -6.8482569    164.49338   0.02879786  0.029333151            4 
  477000    1.0645925   -6.9084687    164.12122   0.02867247  0.029310857            4 
  478000    1.0447086   -6.8752758    164.38901  0.028659173  0.029288594            5 
  479000    1.0665114   -6.8605638    164.82372  0.028674968  0.029266823            2 
  480000    1.0679776   -6.9006889    165.05651  0.028655644  0.029245078            3 
  481000    1.0541335   -6.8542407    165.11966   0.02860701  0.029223207            3 
  482000    1.0328306   -6.8808405    165.68737  0.028645811  0.029201287            2 
  483000    1.0659018   -6.8511203    166.09806  0.028657361   0.02917939            5 
  484000      1.09371   -6.8359487    165.87349  0.028559484  0.029158341            4 
  485000    1.0386502   -6.8458247    167.22263  0.028732411  0.029137003            3 
  486000    1.0681362   -6.8509055    166.83518  0.028606855  0.029116442            5 
  487000    1.0527615   -6.8527726    167.07432  0.028589035  0.029095385            2 
  488000    1.0414382   -6.8871987    166.71255  0.028468673  0.029073663            4 
  489000     1.086022   -6.8678818    167.15565  0.028485966  0.029052787            7 
  490000    1.0705682   -6.8716271    167.95452  0.028563694  0.029031593            4 
  491000    1.0383911   -6.8394962    168.30045  0.028564231  0.029011127            2 
  492000    1.0306888   -6.8775233    168.58014  0.028553547  0.028990978            3 
  493000    1.0548532   -6.9131176    168.12649  0.028418947  0.028970443            4 
  494000    1.0603428   -6.9133869    168.00486  0.028340901  0.028949137            2 
  495000     1.065334    -6.945444    168.14372  0.028307024  0.028927587            3 
  496000    1.0629931   -6.8518492    169.04745  0.028401789  0.028906269            1 
  497000    1.0351798    -6.829283    169.87199  0.028482896  0.028885489            2 
  498000    1.0744531     -6.87166    169.72943  0.028401846  0.028864713            2 
  499000    1.0592668   -6.8978552    170.20722   0.02842472   0.02884412            3 
  500000    1.0409224   -6.8883855    169.81671  0.028302785   0.02882306            3 
  501000    1.0772295    -6.871336    170.02577  0.028281067  0.028802052            3 
  502000    1.0350212   -6.9430666    170.22543  0.028257873  0.028780755            4 
  503000    1.0634478   -6.9140995    170.59238  0.028262488  0.028759324            2 
  504000    1.0572328    -6.883503    170.65026  0.028215982  0.028737995            4 
  505000    1.0412537   -6.8526029    170.94241  0.028208318  0.028716761            4 
  506000    1.0584845   -6.9534092    170.76437  0.028123249   0.02869529            3 
  507000    1.0649945   -6.8946761    171.49355  0.028187631  0.028673492            5 
  508000    1.0562714   -6.8804588     172.1308   0.02823668  0.028652228            3 
  509000    1.0584032   -6.8894581    171.69755  0.028110273   0.02863121            4 
  510000    1.0649695   -6.9138449    172.32335   0.02815741  0.028610811            3 
  511000    1.0225255    -6.883756    172.50769   0.02813237  0.028590262            4 
  512000    1.0545611   -6.8967981    173.11815  0.028176782  0.028569511            2 
  513000    1.0547948    -6.873924    173.00914  0.028104148  0.028549347            4 
  514000    1.0647428   -6.9343081    173.30512  0.028097458   0.02852871            2 
  515000    1.0546025   -6.8628856    173.93183  0.028144309  0.028508499            5 
  516000    1.0176144   -6.9328805    173.21907  0.027974656  0.028487825            3 
  517000    1.0528079     -6.88969    173.76185  0.028008035  0.028466847            5 
  518000     1.034365   -6.9050077     173.9684  0.027987194  0.028446232            4 
  519000      1.07691   -6.9136719    174.18945  0.027968762  0.028425462            3 
  520000    1.0512641    -6.902153    174.31123  0.027934493  0.028404376            6 
  521000    1.0328015   -6.9141753    174.82698  0.027963368  0.028383396            5 
  522000    1.0391655   -6.8889788    175.18278    0.0279666   0.02836262            1 
  523000    1.0472506   -6.9126618    174.90651  0.027869106  0.028341792            4 
  524000    1.0444626    -6.961168    174.98776  0.027828842  0.028320706            3 
  525000    1.0583639   -6.9279608     175.7711  0.027900175  0.028299976           10 
  526000    1.0284254   -6.9173375    175.99164  0.027882072  0.028279467            8 
  527000    1.0226289   -6.8948349    176.88833  0.027970956  0.028259236            2 
  528000    1.0517191   -6.9118621    176.46351  0.027850932  0.028239272            4 
  529000    1.0449704   -6.8647476    177.22374  0.027918043  0.028219685            2 
  530000    1.0268767   -6.9410286    176.67744  0.027779472  0.028199829            2 
  531000    1.0410365   -6.8916567    177.49112  0.027854853  0.028180352            3 
  532000    1.0298178   -6.8956466    178.29016  0.027927656  0.028160911            6 
  533000    1.0309501   -6.9172826     177.4554  0.027744747  0.028141085            4 
  534000     1.045778   -6.9117509     177.7937  0.027745583  0.028121089            6 
  535000     1.057857   -6.8982822    178.31118  0.027774328  0.028100979            4 
  536000     1.059304   -6.8950961    178.79649  0.027797961  0.028081685            5 
  537000    1.0238116   -6.9095539    179.05219  0.027785877  0.028062426            4 
  538000    1.0424198   -6.9187547     179.4633   0.02779791  0.028042706            2 
  539000     1.036199   -6.9100849     179.2073  0.027706757  0.028023467            5 
  540000    1.0391337    -6.916089    179.29241  0.027668582  0.028003871            4 
  541000    1.0385509   -6.9221225     179.1588  0.027596858  0.027983633            7 
  542000    1.0355717    -6.922901    179.62365  0.027617412  0.027963652            5 
  543000     1.011136    -6.949528    178.83115  0.027444927  0.027943209            4 
  544000     1.071048   -6.9641029    179.26098  0.027460321  0.027922414            8 
  545000    1.0423729   -6.9486791    179.67978  0.027473972  0.027901933            4 
  546000     1.045525   -6.9413439    180.23587  0.027508528  0.027880943            3 
  547000    1.0450485   -6.9418855    179.83211  0.027396726  0.027860038            2 
  548000    1.0544907   -6.9378138    179.59284  0.027310347  0.027838678            7 
  549000    1.0429479   -6.9424019    180.04322  0.027328964  0.027817301            5 
  550000    1.0526824   -6.9684857    180.36757  0.027328419  0.027795738            5 
  551000    1.0150774   -6.9506913    180.11531   0.02724067   0.02777425            2 
  552000    1.0223383   -6.9537604    180.27356  0.027215211  0.027753058            4 
  553000    1.0335968   -6.9612089    180.97557  0.027271786  0.027731091            5 
  554000    1.0216878   -6.9373458    180.74153  0.027187355  0.027709267            3 
  555000    1.0401948   -6.9307479    181.16596  0.027202095  0.027687489            4 
  556000    1.0475131   -6.9876746     181.1149  0.027145519  0.027665091            8 
  557000    1.0242252   -6.9850085    181.14245  0.027100905   0.02764223            7 
  558000    1.0435703   -6.9614693    181.12296  0.027049427  0.027619719            5 
  559000    1.0408934   -6.9257513    182.61677  0.027223728  0.027597771            3 
  560000    1.0244291   -6.9322103    182.56739  0.027167766  0.027576361            2 
  561000    1.0451841   -6.9401839    183.37147  0.027238781  0.027555414            1 
  562000    1.0161527   -6.9384473    183.03392  0.027140261  0.027534795            3 
  563000    1.0060245   -6.9372664     183.4119  0.027148002  0.027513707            3 
  564000    1.0220072   -6.9491266    183.33517  0.027088529  0.027492682            2 
  565000     1.036171    -6.930049    183.80398  0.027109732  0.027471459            2 
  566000    1.0399821   -6.9803296    183.59195  0.027030616  0.027450016            2 
  567000    1.0360385   -7.0130792    183.94246  0.027034459  0.027428914            2 
  568000    1.0247628   -6.9418245    184.27145   0.02703513  0.027407888            5 
  569000    1.0076581   -6.9971162    183.96506  0.026942744  0.027386672            6 
  570000    1.0167768   -6.9977449    183.91645   0.02688837  0.027365457            3 
  571000     1.042121   -6.9779895    184.76818  0.026965583  0.027344408            5 
  572000     1.007589   -6.9795832    185.50454   0.02702572   0.02732372            6 
  573000    1.0281556     -6.96979    185.42761  0.026967366  0.027303104            4 
  574000    1.0388262   -6.9829022     185.2952  0.026901161   0.02728266            4 
  575000    1.0393301   -6.9701896    186.38021  0.027011625  0.027262455            2 
  576000    1.0322851   -6.9774192    185.62615  0.026855635   0.02724203            4 
  577000    1.0138144   -6.9745927    186.44851  0.026927861   0.02722166            8 
  578000    1.0402357   -6.9808215    186.36829  0.026869708  0.027201341            4 
  579000    1.0251153   -7.0177333    185.92231  0.026759112  0.027180838            9 
  580000    1.0192972   -6.9830259    186.72549  0.026828375  0.027160153            7 
  581000   0.98724168   -6.9996554    186.19554  0.026706188  0.027139425            7 
  582000    1.0158976   -6.9826071    186.58589  0.026716193  0.027118642            3 
  583000    1.0118059   -6.9599145    186.85023  0.026708151  0.027097737            5 
  584000    1.0126633   -7.0395846    186.43317  0.026602907  0.027076518            8 
  585000    1.0103624   -6.9749291    187.70359  0.026738403  0.027055158            6 
  586000    1.0238254   -6.9730816    187.63278  0.026682704  0.027034371            3 
  587000     1.013087   -7.0035827    187.62251   0.02663579  0.027013483            7 
  588000    1.0191614   -6.9854813    188.15771  0.026666343  0.026992565            3 
  589000    1.0060611   -7.0160425     187.1825  0.026483092   0.02697157            4 
  590000    1.0189774   -6.9899516    188.65434  0.026646094  0.026950683            5 
  591000    1.0110994   -6.9907266    188.29302   0.02655006  0.026929559            8 
  592000    1.0153487   -6.9977085     188.7787  0.026573578  0.026908746            3 
  593000    1.0242197   -6.9717364    188.85602  0.026539632  0.026887987            5 
  594000    1.0114699   -6.9930733    188.98762  0.026513415  0.026867394            7 
  595000    1.0297083   -6.9915962    189.14249  0.026490545  0.026846584            5 
  596000    1.0317531   -6.9833144    189.07471  0.026436621  0.026825805            2 
  597000    1.0327717   -7.0067723    189.20418   0.02641041  0.026804787            4 
  598000    1.0126296   -7.0284375    189.27165  0.026375648  0.026783376           12 
  599000    1.0053312   -7.0012789    189.47586  0.026360025  0.026762125            6 
  600000   0.99818242   -7.0103836    189.37803  0.026302504   0.02674103            5 
  601000    1.0055617   -7.0296864    189.66014  0.026297856  0.026719753            3 
  602000    1.0217781   -7.0069282    190.23241   0.02633339  0.026698474            8 
  603000   0.98786357   -6.9824918    190.63245  0.026345005  0.026677262            4 
  604000    1.0006694   -7.0249243    189.95918  0.026208496   0.02665609            5 
  605000    1.0227942   -7.0000373    190.82809  0.026284861   0.02663491            6 
  606000    1.0100888    -7.009857    190.68122   0.02622129   0.02661391            6 
  607000   0.99436301   -6.9811647    191.66308  0.026312888  0.026592701            3 
  608000   0.98365703   -7.0010922    191.43336  0.026238125  0.026572031            4 
  609000    1.0163918   -7.0260051    191.33743  0.026181914  0.026550891            5 
  610000   0.99120886   -7.0049447    191.48475  0.026159119  0.026529946            6 
  611000    1.0197567   -7.0133126    191.86172   0.02616772  0.026508907            4 
  612000    1.0127854    -7.010882    191.77543  0.026113212  0.026487502            4 
  613000    1.0216304   -7.0438413    191.86294  0.026082509  0.026466453            4 
  614000    1.0020328   -7.0285546    192.12616  0.026075754  0.026445376            7 
  615000     1.026887   -7.0060942    192.85534  0.026132159  0.026424989            6 
  616000    1.0150168    -7.017611    193.21664  0.026138615  0.026404382            9 
  617000    1.0089072   -7.0373342    192.81987  0.026042662  0.026383638            5 
  618000   0.99559109   -7.0136581    193.45822  0.026086599  0.026362748            4 
  619000    1.0119699   -7.0462113    192.83992  0.025961217  0.026341453            5 
  620000    1.0325328   -6.9976802    192.96334  0.025935933  0.026320123            5 
  621000   0.96717742   -7.0061952    193.55822  0.025973996   0.02629863            5 
  622000    1.0274662   -7.0398137    193.31447   0.02589958  0.026277169            5 
  623000   0.99353375   -6.9752832    194.14773  0.025969467  0.026256206            3 
  624000   0.97998007   -7.0028916    193.87933  0.025892004  0.026235451            4 
  625000   0.98231959   -7.0333294    193.96919  0.025862559  0.026214502            3 
  626000     1.021031   -7.0072338    194.63365  0.025909697  0.026193628            3 
  627000    1.0092856   -7.0196795    194.17118  0.025806909  0.026172919            2 
  628000   0.99391342   -7.0395096     195.0431  0.025881516  0.026152452            6 
  629000    1.0064365   -7.0302123    194.70206  0.025795185  0.026131597            4 
  630000   0.99986845   -7.0099959    194.39266  0.025713314  0.026110914            8 
  631000   0.98910954   -7.0303545    194.76294  0.025721466  0.026090055            4 
  632000     1.009992   -7.0258174    195.44862  0.025771178  0.026069454            3 
  633000   0.98473031   -7.0443776    194.95037  0.025664872  0.026048586            8 
  634000   0.99024872   -7.0744889    195.05934  0.025638715  0.026027348            2 
  635000    1.0089124   -7.0594245    195.20699  0.025617715   0.02600606            9 
  636000   0.99262056   -7.0461551     195.9339  0.025672681  0.025985396            7 
  637000     1.008851   -7.0427226    196.14349  0.025659797  0.025964309            3 
  638000   0.97163795   -7.0459012     196.5009  0.025666262  0.025943518            3 
  639000    1.0123067   -7.0527547    196.59256   0.02563805  0.025922836            5 
  640000   0.99889204   -7.0430402    196.80172  0.025625224  0.025902519            6 
  641000    1.0123766   -7.0645575    196.86367  0.025593301  0.025882225            3 
  642000    1.0076968   -7.0340581    197.45325  0.025629965  0.025861648            2 
  643000    1.0029668   -7.0159365    197.10072  0.025544417  0.025841196            1 
  644000   0.97894515   -7.0901373    196.76845  0.025461756  0.025820708            8 
  645000    1.0018029   -7.0557315    197.70179  0.025542867  0.025799799            4 
  646000   0.97643809    -7.049158    196.79832  0.025386781  0.025778837            6 
  647000    1.0076105    -7.082681     197.6526  0.025457573  0.025758073            8 
  648000    1.0035802   -7.0510953    198.22142  0.025491437  0.025737377            1 
  649000    1.0029847   -7.0552017     197.5898  0.025371058  0.025717234            4 
  650000    1.0089201   -7.0333442    198.50697  0.025449611  0.025697025            3 
  651000   0.99195064    -7.084995     198.5734  0.025419022  0.025676962            2 
  652000   0.98665314   -7.0845036    198.65683    0.0253907  0.025656341            6 
  653000   0.99219048   -7.0507473    199.07541  0.025405234  0.025635939            7 
  654000   0.98170735   -7.0289684    198.62773  0.025309343  0.025615416            4 
  655000    1.0095828   -7.0112953    199.09587  0.025330264  0.025594996            8 
  656000   0.98109129   -7.0461791    199.37182  0.025326705  0.025574299            5 
  657000   0.98916695    -7.042171    199.75015  0.025336143  0.025553555            5 
  658000   0.99177748    -7.104385    198.49892  0.025139174  0.025532732            4 
  659000   0.99852436   -7.0713701    199.60074  0.025240356  0.025511741            4 
  660000    0.9847224   -7.1212367    198.78824  0.025099525  0.025490693            9 
  661000    1.0034647   -7.0713759    199.67088  0.025172829  0.025469822            6 
  662000   0.98705428   -7.0562188      199.767  0.025146904  0.025448972            5 
  663000    1.0060502   -7.0477179    200.50586  0.025201842  0.025427977            3 
  664000   0.98615682   -7.0230899    200.49804  0.025162906  0.025407271            8 
  665000   0.98956465   -7.0832847     200.1339  0.025079436  0.025386591           17 
  666000   0.97118769   -7.0999609    200.17402  0.025046799  0.025365857            3 
  667000   0.98398496   -7.0987198    200.18094  0.025010113  0.025345052            3 
  668000    0.9998746   -7.0623691    200.77183  0.025046386  0.025323817            4 
  669000   0.99045203   -7.1195218    200.46041  0.024970156  0.025302834            4 
  670000   0.99807717   -7.0592153    200.88964  0.024986274  0.025282097            4 
  671000   0.98745737   -7.0944929    201.17442  0.024984404  0.025261223            4 
  672000    1.0044791   -7.0574848    201.50436   0.02498814  0.025240682            2 
  673000   0.99180833   -7.0670044    201.38771  0.024936566  0.025219965            6 
  674000   0.96881578   -7.0417603    201.89239  0.024961966   0.02519954            8 
  675000   0.98549569   -7.0472143    202.21988  0.024965417  0.025179176            8 
  676000   0.96358318   -7.0993758    201.82967  0.024880383  0.025158609           16 
  677000   0.99413153   -7.0463163    202.86236  0.024970748  0.025138105           14 
  678000   0.98134329   -7.0716856     202.1045  0.024840769  0.025117597            5 
  679000    1.0054255   -7.0786832    202.71661  0.024879309  0.025097208            8 
  680000   0.99655494    -7.062433    202.79205  0.024851966  0.025077098            8 
  681000    0.9963721   -7.0749083    202.99149  0.024839879  0.025056835            4 
  682000   0.98279033   -7.0820629    202.90654  0.024793077  0.025036796            5 
  683000   0.99143183   -7.1096998    203.40572  0.024817682  0.025016366            4 
  684000   0.97647701   -7.1234239    202.97607  0.024729054  0.024995933            6 
  685000    1.0003183   -7.1205262    203.05349   0.02470237  0.024975436            4 
  686000   0.97682086   -7.0718284    203.73179   0.02474876  0.024954902            4 
  687000   0.98987566   -7.0884561    203.54062  0.024689547  0.024934695            4 
  688000    0.9748105   -7.1126764    203.42891  0.024640129  0.024914282            8 
  689000   0.97692018   -7.0990583    204.22657  0.024700842  0.024894028            9 
  690000    0.9938893   -7.1357857    203.16396   0.02453671  0.024873424            3 
  691000   0.99308107   -7.1461779    203.81256  0.024579422  0.024852569            6 
  692000      0.98056   -7.0901311     204.5832  0.024636705  0.024831992            4 
  693000    0.9755331   -7.1270955      204.617  0.024605218  0.024811649            6 
  694000   0.98625381   -7.1098317    204.38932  0.024542426  0.024791048            5 
  695000   0.98727949   -7.1323226    204.39082  0.024507292  0.024770495            6 
  696000   0.97626864    -7.153357    204.40114  0.024473317  0.024749771            4 
  697000   0.97355514   -7.1491539    204.52366  0.024452852  0.024729174            5 
  698000   0.94365538   -7.1684279    204.97575  0.024471794  0.024708299            5 
  699000   0.98834798    -7.155328    204.99218  0.024438743  0.024687591            8 
  700000   0.95562795   -7.1666544    205.01282  0.024406288  0.024667033            4 
  701000   0.96197295   -7.1161924     206.2568  0.024519353  0.024646896            2 
  702000   0.96683489   -7.0914347    206.52702  0.024516503  0.024626975            9 
  703000   0.95302013   -7.1367615    206.14161  0.024435942  0.024607245            5 
  704000   0.98507425   -7.0814889    206.69282   0.02446648  0.024587254            7 
  705000   0.97700005   -7.1495957    206.38773  0.024395713  0.024567689            5 
  706000   0.97376613   -7.1226075    207.05462  0.024439874  0.024548041            7 
  707000    1.0055839   -7.1068524    207.00946  0.024399983  0.024528732           10 
  708000   0.98397898   -7.1670144    206.28768  0.024280565  0.024509256            5 
  709000   0.95827756   -7.1294659    206.86652  0.024314354  0.024489689            7 
  710000   0.96821774   -7.1726853     206.9845  0.024293956  0.024469917            6 
  711000   0.97852461   -7.1185925    207.25615  0.024291625  0.024449915            4 
  712000   0.96732459   -7.1140047    207.20317  0.024251307   0.02442998            4 
  713000   0.97503809   -7.1503599    207.35526   0.02423507  0.024409892            4 
  714000   0.94796422   -7.1120209    207.46047  0.024213406  0.024389898            4 
  715000   0.97684663    -7.139365    207.52222  0.024186739  0.024370118            9 
  716000   0.96113033   -7.1586617    208.25037  0.024237706   0.02435027            4 
  717000   0.96975603   -7.1257459    208.68084  0.024253933  0.024330778            5 
  718000   0.96913779   -7.1096034     208.1877  0.024162918  0.024311196            3 
  719000   0.97683057   -7.1152679    208.72592  0.024191693  0.024291686            5 
  720000   0.95750113   -7.1029295    208.96764  0.024186069  0.024271868            5 
  721000   0.94578585   -7.1386372    208.89691  0.024144349  0.024252179            6 
  722000   0.97822741   -7.1174327    208.88262  0.024109259  0.024232536            4 
  723000   0.96427505   -7.1509631    208.86183  0.024073517  0.024212718            6 
  724000   0.98928518   -7.1359156    209.57146  0.024121945   0.02419308            3 
  725000   0.97775015   -7.1321471    209.69513  0.024102888  0.024173535            3 
  726000   0.96650658   -7.1106157    209.64967   0.02406447  0.024154143            6 
  727000   0.96139609   -7.1445047    209.41433  0.024004394   0.02413485            4 
  728000   0.96466576     -7.14708      209.529  0.023984547  0.024115501            6 
  729000   0.97937084   -7.1354973    210.17961  0.024026018  0.024095877           10 
  730000   0.96249195   -7.1563126    209.80627  0.023950487  0.024076402            2 
  731000   0.98589217   -7.1734809    209.50587  0.023883478  0.024056902            8 
  732000   0.96519377   -7.1108324    210.41638  0.023954506  0.024037446            2 
  733000   0.96141813   -7.1726438    209.53156  0.023821233  0.024017513            4 
  734000   0.97456282   -7.1579352    209.63437   0.02380045  0.023997655            9 
  735000   0.93783017   -7.1877654    209.91292  0.023799651  0.023977712            7 
  736000   0.95842146   -7.1446692    210.40626  0.023823173   0.02395807            4 
  737000   0.97233584   -7.1624187    210.67831  0.023821609  0.023938597            6 
  738000     0.972508   -7.1481317    210.92119  0.023816756  0.023918993            5 
  739000   0.94907748   -7.1462103     211.0099  0.023794531  0.023898997            4 
  740000   0.94600054   -7.1623609    210.90629  0.023750708  0.023879153           13 
  741000   0.97021555   -7.1818489    211.17827  0.023749243   0.02385932            3 
  742000   0.94658671    -7.163201    210.70322  0.023663884  0.023839615            3 
  743000   0.97207206   -7.1468597    211.51341  0.023722904  0.023819987            4 
  744000    0.9671104   -7.1879521    211.57968  0.023698441  0.023800374            6 
  745000   0.95218144   -7.2196621    211.03014  0.023605161  0.023780795            6 
  746000   0.95517268   -7.1723912    211.53868  0.023630326  0.023761155            5 
  747000   0.94828296   -7.1605758    212.78653  0.023737899  0.023741561            7 
  748000    0.9458517   -7.1633954    212.06535  0.023625819  0.023722096            5 
  749000   0.94931734   -7.1386504    212.49618  0.023642209  0.023703064            4 
  750000   0.95012827   -7.1719144    212.35843  0.023595381   0.02368431            8 
  751000   0.96953964   -7.1714554    212.94898  0.023629492  0.023665331            4 
  752000   0.95654489    -7.147302    213.58505  0.023668557  0.023646262           11 
  753000   0.96945257    -7.184724    212.53733  0.023521174  0.023627012            7 
  754000   0.94185273   -7.2069577    213.04741  0.023546354  0.023607785            6 
  755000   0.95236369   -7.1961017    213.08478  0.023519291  0.023588663            5 
  756000   0.93158418   -7.1879727    213.12883  0.023493037  0.023569485            6 
  757000   0.95939307   -7.1728978     213.4459  0.023496906  0.023550456           13 
  758000   0.95038929   -7.2011167    213.51322  0.023473309  0.023531636            6 
  759000   0.96296257   -7.2067254    213.84856  0.023479201  0.023512684            7 
  760000    0.9608541   -7.1740975     214.2943  0.023497182  0.023493734            4 
  761000   0.95480117   -7.2044214    214.49085  0.023487828  0.023475034            9 
  762000   0.93363873   -7.2368046    214.13056  0.023417603  0.023456234            7 
  763000    0.9446291   -7.1766522    215.05843  0.023488252  0.023437398            5 
  764000   0.95977707    -7.165556    215.65835  0.023522944  0.023419035            6 
  765000   0.95486829   -7.2297096    214.59358  0.023376207  0.023400513            8 
  766000   0.95402941    -7.172779    215.01476   0.02339151   0.02338183            6 
  767000   0.96126458   -7.2280633    214.95517  0.023354538  0.023362955            9 
  768000   0.93291316   -7.2272071    215.68056  0.023402839  0.023344091            3 
  769000   0.95370289   -7.2189676    214.85201  0.023282619  0.023325506            3 
  770000   0.94323896   -7.1884921    215.95583  0.023371843  0.023307116            8 
  771000    0.9437078   -7.2299592     215.2994  0.023270579  0.023288402            5 
  772000   0.96749087   -7.1945744    215.78928  0.023293316  0.023269678            5 
  773000   0.94969914   -7.1876072    216.52788  0.023342807  0.023251318            3 
  774000   0.95087743   -7.2097012      216.082  0.023264643  0.023232853            5 
  775000   0.93512578   -7.1776844    216.26645  0.023254457  0.023214436            7 
  776000   0.95834798   -7.2210004    216.16515  0.023213611  0.023195939           12 
  777000   0.93464821   -7.1859532    216.49492  0.023219103  0.023177573           11 
  778000   0.94515624   -7.1564763    216.50421  0.023190254  0.023159416            6 
  779000    0.9394524   -7.1870544    216.67936  0.023179221  0.023141187            4 
  780000   0.97292155   -7.2165325     216.3987  0.023119519  0.023122732           10 
  781000   0.92764536   -7.2285963    216.91987  0.023145526  0.023104233            5 
  782000   0.94748144   -7.2224551     216.9186  0.023115793  0.023085856            8 
  783000   0.94110728   -7.2196233    216.86826  0.023080913  0.023067382            8 
  784000   0.95648806   -7.2161712    217.43693  0.023111918  0.023049157            7 
  785000   0.94396767    -7.196611    217.81634  0.023122753  0.023030852            4 
  786000   0.95418359   -7.1738103    218.00911  0.023113773  0.023012737            6 
  787000    0.9270152   -7.2026759     217.9447  0.023077584  0.022994401            4 
  788000   0.92643925   -7.2060995    217.74705  0.023027395  0.022975915            9 
  789000   0.92222407   -7.2190117    217.36218  0.022957561  0.022957221            3 
  790000   0.92758682   -7.2128758    217.91838  0.022987171  0.022938556            4 
  791000   0.91515786   -7.1990367    218.76728  0.023047543  0.022920064            3 
  792000   0.93428883    -7.229297    218.10669  0.022948936  0.022901535            4 
  793000   0.92789544   -7.2276285      217.748  0.022882303  0.022882908            9 
  794000   0.94405264   -7.2294932    217.31313  0.022807843  0.022864181            4 
  795000   0.94203929   -7.1955773    218.24282  0.022876606  0.022845464            1 
  796000   0.92341618    -7.219668    218.36077  0.022860214  0.022826804            5 
  797000   0.92751549   -7.2280629    218.80226  0.022877694  0.022808219            2 
  798000   0.92276403    -7.188256    219.04776  0.022874661  0.022789848            6 
  799000   0.94939846    -7.222611    218.48138  0.022786961  0.022771475            4 
  800000   0.95647932   -7.2288469    218.50507  0.022760945  0.022752942            4 
  801000   0.94259938   -7.2456427    218.48622  0.022730568  0.022734215            4 
  802000   0.93339142    -7.259011     218.0849  0.022660526  0.022715298           11 
  803000   0.93971609   -7.2540006    217.82745  0.022605588  0.022696258            7 
  804000   0.93148933   -7.2949124    218.33608  0.022630191   0.02267723            6 
  805000   0.95049486   -7.2414727    219.12532  0.022683781  0.022658223            4 
  806000   0.93955684   -7.2137752    219.59207  0.022703895  0.022639594            6 
  807000   0.93177767   -7.2200901    220.00072   0.02271796  0.022620887            5 
  808000   0.91741579   -7.2401543    219.81251  0.022670432  0.022602248            5 
[...]
 1800000   0.53161483   -8.4678945    234.01749  0.010834143 0.0090217016         2313 
 1801000   0.54782584   -8.4525846    233.99748  0.010827202 0.0090132582         2209 
 1802000   0.53294188   -8.4473722    233.56823  0.010801343  0.009004821         2215 
 1803000   0.54027721   -8.4617147    233.56322   0.01079512 0.0089964038         2312 
 1804000   0.53187794   -8.4653737    233.66463   0.01079382 0.0089879805         2222 
 1805000   0.53040827   -8.4711512    233.91113  0.010799221 0.0089795823         2303 
 1806000   0.52805835   -8.4492632    233.64813  0.010781106 0.0089711887         2229 
 1807000   0.53246056   -8.4644279    233.45757  0.010766352 0.0089628078         2281 
 1808000   0.54646678   -8.4598656    233.65628  0.010769556 0.0089544401         2325 
 1809000   0.53545291   -8.4382948    234.02537  0.010780605 0.0089460836         2187 
 1810000   0.52886642   -8.4597372    233.76206  0.010762526 0.0089377416         2280 
 1811000   0.52388868   -8.4559965     233.7869  0.010757726 0.0089293999         2282 
 1812000   0.53816898   -8.4575458    233.54238  0.010740544 0.0089210645         2263 
 1813000   0.52821272   -8.4653265    233.44713  0.010730242 0.0089127454         2290 
 1814000   0.52640313   -8.4606892    233.72103  0.010736909 0.0089044289         2250 
 1815000   0.53769858   -8.4652082    233.69647  0.010729866 0.0088961247         2289 
 1816000   0.52610485   -8.4659119    233.78024  0.010727801 0.0088878388         2298 
 1817000   0.52413944   -8.4637444    233.65661  0.010716227 0.0088795547         2283 
 1818000    0.5277115   -8.4538963    233.68797   0.01071177 0.0088712857         2328 
 1819000   0.52935727   -8.4820374    233.62016  0.010702775 0.0088630251         2319 
 1820000   0.54355783   -8.4563385    233.30814  0.010682607 0.0088547774         2368 
 1821000   0.52427668   -8.4718062    233.56073    0.0106883 0.0088465301         2303 
 1822000   0.51701483   -8.4524342    233.77911  0.010692422 0.0088383015         2324 
 1823000   0.51952303   -8.4885314    233.71654  0.010683696 0.0088300808         2327 
 1824000   0.53067659   -8.4742392    233.39587  0.010663188 0.0088218743         2349 
 1825000   0.52214938   -8.4725191    233.93833  0.010682116 0.0088136713         2281 
 1826000   0.52307738   -8.4654959    233.42706  0.010652933 0.0088054723         2356 
 1827000    0.5170258   -8.4706463    233.65605  0.010657547 0.0087972981         2316 
 1828000   0.52978428   -8.4721596    233.71021  0.010654185 0.0087891275         2284 
 1829000   0.52073769   -8.4709416    233.77159  0.010651157 0.0087809676         2332 
 1830000   0.51349733   -8.4734971     233.8083  0.010647008 0.0087728208         2367 
 1831000   0.52491025   -8.4564205    233.56333  0.010630044 0.0087646753         2242 
 1832000   0.52930191   -8.4651336    233.26068  0.010610475 0.0087565396         2309 
 1833000   0.52682365   -8.4681721    233.61939  0.010620994 0.0087484155         2273 
 1834000   0.52146837   -8.4662011    233.54142   0.01061166 0.0087403035         2334 
 1835000   0.52461922   -8.4785568    233.54535  0.010606056 0.0087321992         2284 
 1836000   0.52893563   -8.4706067    233.75955  0.010610001 0.0087241014         2329 
 1837000   0.52841368   -8.4660016    233.18328  0.010578084 0.0087160197         2328 
 1838000   0.52501281   -8.4807517     233.7449  0.010597792 0.0087079418         2270 
 1839000   0.51964254   -8.4919022    233.42974  0.010577748 0.0086998741         2267 
 1840000   0.51527141   -8.4851748    233.82327  0.010589822 0.0086918126         2253 
 1841000   0.51176185   -8.4777821    233.67647  0.010577425 0.0086837517         2330 
 1842000   0.51742784   -8.4901118    233.36851   0.01055775 0.0086757249         2265 
 1843000    0.5231943    -8.463419    233.42978  0.010554792 0.0086676924         2330 
 1844000   0.51018545   -8.4985343     233.0621  0.010532452 0.0086596836         2350 
 1845000   0.52028429   -8.4916408    233.24486  0.010534998 0.0086516726         2261 
 1846000   0.52221497   -8.4867451    234.11999  0.010568797 0.0086436747         2291 
 1847000   0.51496395   -8.4863303    233.26876  0.010524669 0.0086356815         2325 
 1848000   0.52227267   -8.4983381    232.94749  0.010504486    0.0086277         2360 
 1849000   0.51069063   -8.4802219    232.96659  0.010499666 0.0086197211         2342 
 1850000   0.50985331   -8.4847161    233.02569  0.010496653 0.0086117604         2325 
 1851000   0.51702527   -8.4836265    233.21451  0.010499483 0.0086038003         2312 
 1852000   0.52205354   -8.4719999    233.31519  0.010498344 0.0085958585         2201 
 1853000   0.51380464   -8.4875678    233.14033  0.010484814 0.0085879308         2295 
 1854000   0.52546006   -8.4824489     233.0583  0.010475472 0.0085800037         2358 
 1855000   0.51319242   -8.4881258    233.24539   0.01047823 0.0085720859         2242 
 1856000   0.51082569   -8.4867788     233.2676  0.010473581 0.0085641761         2298 
 1857000   0.51293535    -8.489905     233.4921  0.010478015 0.0085562852         2259 
 1858000   0.51406369   -8.4984659    232.91123  0.010446323 0.0085483988         2295 
 1859000   0.51359142   -8.4893155    233.01445  0.010445331 0.0085405193         2258 
 1860000   0.52194197    -8.481799    233.03072  0.010440445 0.0085326518         2229 
 1861000   0.50329626   -8.5011027    233.65883  0.010462961  0.008524795         2315 
 1862000   0.50031931   -8.4949919    233.04287  0.010429774 0.0085169443         2307 
 1863000   0.50907189   -8.4993812    233.09002  0.010426285 0.0085090978         2215 
 1864000   0.50967015   -8.5182658    233.06382   0.01041952 0.0085012708         2362 
 1865000    0.5073099   -8.5005073    233.01119  0.010411581 0.0084934479         2300 
 1866000   0.50107882   -8.4985709     233.2441  0.010416403 0.0084856434         2315 
 1867000    0.5034384    -8.499256    233.29824   0.01041324 0.0084778514         2311 
 1868000   0.50604782   -8.4927718    233.10789  0.010399174 0.0084700675         2332 
 1869000    0.4978634    -8.486875    233.07102  0.010391967  0.008462292         2342 
 1870000   0.50760299   -8.4931623    233.10422  0.010387888 0.0084545324         2268 
 1871000   0.51721118   -8.4980832    232.74393  0.010366289 0.0084467771         2328 
 1872000    0.5031146   -8.4897196    233.45607  0.010392453 0.0084390306         2313 
 1873000   0.50129117   -8.5011935    233.76286  0.010400554 0.0084312943         2263 
 1874000   0.50329684   -8.5009597    233.13475  0.010367074 0.0084235633         2266 
 1875000   0.49644974   -8.4923379    233.47468  0.010376653 0.0084158355         2311 
 1876000   0.50515403   -8.5088538    232.91007  0.010346041 0.0084081262         2396 
 1877000   0.49794653    -8.495905    233.18274  0.010352635 0.0084004224         2345 
 1878000   0.51044551    -8.499909    233.20466  0.010348095 0.0083927312         2308 
 1879000   0.50408247   -8.5088211    233.18778  0.010341839 0.0083850484         2384 
 1880000   0.50319274   -8.4795852    232.99537  0.010327809 0.0083773725         2290 
 1881000   0.50564955   -8.5126501    233.06807  0.010325539 0.0083697089         2386 
 1882000   0.49944785   -8.5148311     232.5786  0.010298379  0.008362044         2349 
 1883000   0.50113664   -8.5149347    233.01035  0.010312017 0.0083543975         2389 
 1884000   0.50026629    -8.499845    233.42611  0.010324934 0.0083467595         2343 
 1885000   0.50708885   -8.4995279    233.22231  0.010310447 0.0083391355         2364 
 1886000   0.49999398   -8.4983448     233.3689  0.010311457 0.0083315123         2294 
 1887000   0.48969661    -8.525129    233.03608  0.010291295 0.0083239043         2279 
 1888000    0.4892029   -8.4991099    233.46645   0.01030484 0.0083163023         2361 
 1889000   0.49620108   -8.4927298    233.15485  0.010285639 0.0083087087         2321 
 1890000   0.49143752   -8.5136021    232.97104  0.010272092 0.0083011282         2349 
 1891000   0.50146661   -8.5025122    232.99577  0.010267749 0.0082935574         2368 
 1892000   0.49815334   -8.5176046    232.97175  0.010261264 0.0082859918         2350 
 1893000   0.50096239   -8.5233338    232.60346  0.010239631 0.0082784346         2451 
 1894000   0.49488511   -8.5162504    232.63699    0.0102357 0.0082708843         2343 
 1895000   0.49162886   -8.5262535    232.94176  0.010243701 0.0082633465         2301 
 1896000   0.49385084   -8.5188387    233.48914  0.010262357 0.0082558158         2466 
 1897000   0.48833504   -8.5214935    232.98001  0.010234581  0.008248286         2362 
 1898000   0.49799821    -8.514592    233.28633  0.010242638 0.0082407703         2321 
 1899000   0.50055048   -8.5280363    232.82926  0.010217187 0.0082332733         2397 
 1900000   0.50005308   -8.5125709    232.82663  0.010211694 0.0082257762         2408 
 1901000   0.49326051   -8.5220897    232.75957  0.010203383  0.008218287         2316 
 1902000   0.48232479   -8.5208134    233.22414  0.010218373 0.0082108123         2366 
 1903000     0.502647   -8.5176911    233.02312    0.0102042 0.0082033444         2403 
 1904000   0.49389528   -8.5213048    233.11915  0.010203044 0.0081958876         2401 
 1905000   0.48966871   -8.5453077    232.69396  0.010179088 0.0081884389         2426 
 1906000   0.48534298   -8.5295812    232.55011  0.010167459 0.0081809928         2327 
 1907000   0.49230585   -8.5190141    232.58726   0.01016375 0.0081735565         2418 
 1908000   0.47355138   -8.5314965    232.85538  0.010170134 0.0081661283         2449 
 1909000   0.48170433   -8.5189669    233.12201  0.010176445 0.0081587081         2288 
 1910000   0.49525001   -8.5264838    233.06048  0.010168433  0.008151301         2383 
 1911000   0.48147124   -8.5213999    232.90757  0.010156444 0.0081439001         2341 
 1912000   0.48626583   -8.5232351    232.90838  0.010151167 0.0081365137         2382 
 1913000   0.49042603   -8.5277451    232.45198  0.010125979 0.0081291332         2357 
 1914000   0.48794852   -8.5393157    232.55046  0.010124976 0.0081217603         2394 
 1915000   0.48449396   -8.5292797    232.66227  0.010124555  0.008114392         2392 
 1916000   0.49000482   -8.5295544    233.00865  0.010134336 0.0081070304         2346 
 1917000   0.48604093   -8.5224281    232.61483   0.01011193 0.0080996763         2334 
 1918000   0.47931864   -8.5271648    232.70997  0.010110791 0.0080923368         2259 
 1919000   0.49780166   -8.5401804    232.66693  0.010103654 0.0080850041         2369 
 1920000    0.4852478   -8.5406877    232.85788  0.010106679 0.0080776794         2334 
 1921000   0.48695757   -8.5174367    232.64283  0.010092089 0.0080703649         2382 
 1922000   0.48802714   -8.5351708    232.86704  0.010096559 0.0080630576         2376 
 1923000   0.47861659   -8.5334408    232.69593  0.010083894 0.0080557528         2420 
 1924000   0.48820593    -8.522429    232.78498   0.01008251 0.0080484671         2376 
 1925000   0.49110728   -8.5310472    232.77269   0.01007674 0.0080411882         2335 
 1926000   0.47777669   -8.5349438    232.74052  0.010070116 0.0080339182         2336 
 1927000   0.48893429   -8.5455218    233.10275  0.010080555 0.0080266539         2445 
 1928000     0.486966   -8.5361001    232.86561  0.010065077 0.0080193958         2433 
 1929000   0.48616577   -8.5340422    232.54498  0.010046007 0.0080121504         2405 
 1930000   0.49219103   -8.5277774    232.61683  0.010043904 0.0080049081         2431 
 1931000   0.46878204    -8.542741    232.36861  0.010027991 0.0079976727         2432 
 1932000    0.4841867   -8.5420441    232.88337  0.010045004 0.0079904541         2429 
 1933000   0.48024936   -8.5645435    233.09879  0.010049094 0.0079832352         2399 
 1934000   0.47426852   -8.5473698    232.55199  0.010020337 0.0079760253         2318 
 1935000   0.47638368   -8.5514625    232.52015  0.010013788 0.0079688306         2415 
 1936000   0.47705946   -8.5392072    232.77562  0.010019612 0.0079616427         2354 
 1937000   0.47588791   -8.5470054    232.68674  0.010010615 0.0079544568         2419 
 1938000   0.48148515   -8.5428413    232.69048  0.010005611 0.0079472879         2370 
 1939000   0.48010871   -8.5484537     232.7935  0.010004878  0.007940129         2466 
 1940000   0.48018881   -8.5308201      232.544 0.0099890035 0.0079329749         2441 
 1941000    0.4790494    -8.540493    232.77229 0.0099936583 0.0079258344         2400 
 1942000   0.47091143    -8.539425    232.39804 0.0099724527 0.0079186958         2372 
 1943000   0.47634185   -8.5362461    232.81877  0.009985365 0.0079115692         2435 
 1944000   0.48106998   -8.5425599    232.40718 0.0099625848 0.0079044557         2410 
 1945000   0.48501581    -8.551326    232.46089 0.0099597637 0.0078973426         2317 
 1946000   0.48006239   -8.5451461    232.54122  0.009958086 0.0078902369         2418 
 1947000   0.49152786   -8.5225733    232.30241   0.00994275 0.0078831436         2397 
 1948000   0.46857566   -8.5624514    232.75049 0.0099568143 0.0078760596         2450 
 1949000   0.47873802   -8.5621847    232.81201  0.009954336 0.0078689812         2396 
 1950000   0.47505161   -8.5511451    232.68495 0.0099438014 0.0078619112         2456 
 1951000   0.47813289   -8.5358383    232.82111 0.0099445204 0.0078548537         2411 
 1952000   0.48754178   -8.5436495    232.54735 0.0099277387 0.0078478032         2408 
 1953000   0.47835018   -8.5520174    232.60753 0.0099252231 0.0078407665         2357 
 1954000   0.47148081   -8.5563556    232.70968 0.0099245001 0.0078337315         2336 
 1955000   0.47284953   -8.5431781    232.42468 0.0099072752 0.0078266978         2417 
 1956000   0.47042153   -8.5549704    232.45515 0.0099035086 0.0078196813         2416 
 1957000   0.47239624   -8.5560819    232.49986 0.0099003516 0.0078126683         2421 
 1958000   0.47961871   -8.5494623     232.5692 0.0098982463 0.0078056659         2394 
 1959000   0.47148448   -8.5560312    232.37886 0.0098850971  0.007798671         2413 
 1960000   0.47854266   -8.5542729    232.31327 0.0098772649 0.0077916879         2421 
 1961000   0.46306462   -8.5489308    232.29327 0.0098713782 0.0077847147         2397 
 1962000   0.47337673   -8.5647551    232.24039 0.0098641006 0.0077777465         2463 
 1963000   0.47065304   -8.5598731    232.49972 0.0098700848 0.0077707862         2505 
 1964000   0.46590025   -8.5581347    232.49593 0.0098648987 0.0077638283         2368 
 1965000   0.47116294   -8.5688603     232.6452 0.0098662087 0.0077568775         2348 
 1966000   0.47289388   -8.5668074    232.37946 0.0098499262 0.0077499404         2418 
 1967000   0.46743552   -8.5616447    231.98213 0.0098280855 0.0077430014         2416 
 1968000   0.45987608   -8.5616376    232.45381 0.0098430646 0.0077360716         2399 
 1969000    0.4673104   -8.5721715    232.52125 0.0098409196 0.0077291521         2439 
 1970000   0.46423595   -8.5704594    232.43568 0.0098323047 0.0077222429         2416 
 1971000   0.46294145    -8.566499    232.64101 0.0098359974 0.0077153387         2398 
 1972000   0.46613987   -8.5792048    232.51134 0.0098255301 0.0077084484         2429 
 1973000   0.46340997   -8.5683492    232.65497 0.0098266162 0.0077015687         2429 
 1974000    0.4687204   -8.5495628     232.5628 0.0098177473 0.0076946911         2405 
 1975000   0.46783726   -8.5575184     232.3156  0.009802346 0.0076878207         2432 
 1976000   0.47109724   -8.5621462     232.2314 0.0097938342 0.0076809548         2467 
 1977000   0.45537523   -8.5713448    232.05204   0.00978132 0.0076740986         2444 
 1978000   0.46757905   -8.5778248    232.04559 0.0097761034 0.0076672499         2417 
 1979000   0.46903389   -8.5515751    232.18509 0.0097770378 0.0076604114         2471 
 1980000   0.46080323   -8.5748502    232.15423  0.009770801 0.0076535821         2415 
 1981000   0.45509235   -8.5841933    232.07104 0.0097623691 0.0076467538         2435 
 1982000   0.46310094   -8.5732505    232.12243 0.0097596043 0.0076399348         2436 
 1983000   0.46640752   -8.5645469    232.29444 0.0097619113 0.0076331263         2502 
 1984000   0.45992085   -8.5825645    232.32806 0.0097584031 0.0076263227         2453 
 1985000    0.4628376   -8.5693141    232.59903 0.0097648627 0.0076195237         2435 
 1986000   0.47367018   -8.5696689    232.43149 0.0097529158 0.0076127369         2479 
 1987000   0.46027021   -8.5814405    232.03344 0.0097313137 0.0076059582         2440 
 1988000   0.45762701   -8.5779786    231.81299 0.0097171777 0.0075991876         2454 
 1989000   0.46030808   -8.5964151    232.17703 0.0097275446 0.0075924216         2444 
 1990000   0.46520802   -8.5747484    232.00821 0.0097155868  0.007585664         2432 
 1991000   0.45474011   -8.5893078    232.43961 0.0097287631 0.0075789104         2482 
 1992000   0.45466833   -8.5902616    232.18441 0.0097132032 0.0075721644         2478 
 1993000   0.45458142   -8.5608394    232.54416 0.0097233717 0.0075654305         2426 
 1994000   0.45368082   -8.5755408    232.46118 0.0097150274 0.0075587032         2525 
 1995000    0.4594526   -8.5810982    232.12415 0.0096960796 0.0075519862         2565 
 1996000   0.45120549   -8.5817387    232.15367 0.0096924544 0.0075452677         2468 
 1997000   0.46110329   -8.5723934    232.08036 0.0096845419 0.0075385622         2476 
 1998000   0.46871383   -8.5740847    232.03142 0.0096776533 0.0075318588         2446 
 1999000   0.46091465   -8.5798213    231.82809  0.009664336 0.0075251707         2501 
 2000000   0.45487405   -8.5853526      232.013 0.0096672084 0.0075184881         2434 
 2001000    0.4573185   -8.6041784    232.40384 0.0096786538 0.0075118174         2479 
 2002000   0.45729438   -8.5983479    232.11941   0.00966198  0.007505149         2408 
 2003000    0.4485352   -8.5804721    231.73923 0.0096413393   0.00749849         2480 
 2004000   0.44246364   -8.5741736    232.33498 0.0096613014  0.007491845         2450 
 2005000   0.45703901   -8.5969013    232.03914 0.0096441869 0.0074851963         2494 
 2006000   0.44631385   -8.5944007     232.2783 0.0096493144 0.0074785536         2501 
 2007000   0.45920622   -8.5872466    232.20895 0.0096416272 0.0074719249         2536 
 2008000   0.44144586   -8.5967938    232.09849 0.0096322416 0.0074653002         2521 
 2009000   0.44634857   -8.5758366    232.22505 0.0096326965 0.0074586801         2464 
 2010000   0.44768694   -8.5858522    231.77048  0.009609058 0.0074520703         2543 
 2011000   0.44418768   -8.5930014    231.78899 0.0096050469  0.007445461         2486 
 2012000   0.45313741   -8.5896424    232.15486 0.0096154267  0.007438867         2529 
Loop time of 5246.73 on 48 procs for 2000000 steps with 4000 atoms

Performance: 65869.573 tau/day, 381.190 timesteps/s
99.4% CPU use with 48 MPI tasks x no OpenMP threads

MPI task timing breakdown:
Section |  min time  |  avg time  |  max time  |%varavg| %total
---------------------------------------------------------------
Pair    | 381.82     | 403.77     | 442.58     |  68.3 |  7.70
Neigh   | 37.244     | 38.494     | 40.229     |  10.9 |  0.73
Comm    | 322.6      | 362.22     | 389.54     |  78.3 |  6.90
Output  | 5.639      | 5.6413     | 5.6955     |   0.3 |  0.11
Modify  | 4370.3     | 4387.5     | 4405.7     |   9.8 | 83.62
Other   |            | 49.1       |            |       |  0.94

Nlocal:        83.3333 ave          90 max          78 min
Histogram: 3 4 5 7 7 12 3 4 0 3
Nghost:        2439.48 ave        2453 max        2412 min
Histogram: 1 0 2 4 4 7 5 6 11 8
Neighs:        16922.5 ave       19593 max       15074 min
Histogram: 5 9 7 3 7 7 3 2 3 2
FullNghs:      33845.0 ave       36713 max       31264 min
Histogram: 2 3 5 10 8 9 3 3 3 2

Total # of neighbors = 1624559
Ave neighs/atom = 406.13975
Neighbor list builds = 106564
Dangerous builds = 0

#clear
#
#next RN
#
#jump SELF
Total wall time: 1:27:30
