
units lj                  # Use reduced LJ style units
atom_style atomic         # Uncharged point particles
atom_modify map hash      # Needed for indexing of clusters etc
                          # Used to be able to find where atoms are in relation to each other.

# Define a lattice with which to populate the simulation cell. With units
# set to 'lj' the second argument to the lattice command is the reduced
# density rho* and the spacings are multiples of that required to acheive
# that density. Also define a simulation cell called 'box' in lattice units
# and fill it with atoms. Here we're creating a box which is ten lattice
# constants in each direction.
lattice fcc 1.0 spacing 1 1 1                 # All equal sizes - gives the right reduced density.
Lattice spacing in x,y,z = 1.5874011 1.5874011 1.5874011

region box block 0 10 0 10 0 10 units lattice # Defines a region, "box", in lattice units
create_box 1 box                              # Creates a simulation box as specified above,
Created orthogonal box = (0.0000000 0.0000000 0.0000000) to (15.874011 15.874011 15.874011)
  2 by 3 by 4 MPI processor grid
                                              # with one type of atom
create_atoms 1 box                            # Creates particles on lattice points
Created 4000 atoms
  using lattice units in orthogonal box = (0.0000000 0.0000000 0.0000000) to (15.874011 15.874011 15.874011)
  create_atoms CPU = 0.004 seconds


# Set the mass of the first (and only) atom type.
mass 1 1.0

# Lennard-Jones interactions between particles, 3.5 sigma cut-off. Apply
# long range tail corrections to energy and pressure and set all coefficients
# to unity since we work in reduced units here. Note that this doesn't shift
# the potential such that it goes to zero at the cutoff. That would require
# pair_modify('shift', 'yes').
pair_style lj/cut  3.5      # non-GPU version
pair_modify tail  yes
pair_coeff 1  1  1.0  1.0   # Intearaction between 1 and 1 set with epsilon = 1 and sigma = 1

write_data data.*
System init for write_data ...
Neighbor list info ...
  update every 1 steps, delay 10 steps, check yes
  max neighbors/atom: 2000, page size: 100000
  master list distance cutoff = 3.8
  ghost atom cutoff = 3.8
  binsize = 1.9, bins = 9 9 9
  1 neighbor lists, perpetual/occasional/extra = 1 0 0
  (1) pair lj/cut, perpetual
      attributes: half, newton on
      pair build: half/bin/atomonly/newton
      stencil: half/bin/3d
      bin: standard

#############################
#   M E L T   S Y S T E M   #
#############################

velocity all create 2.4 1741580 mom yes dist gaussian # Assign velocities
                                                    # Temperature 2.4, random number seed, zero linear momentum
						                                                        # Gaussian distribution

timestep 0.002   # simulation timestep
thermo 100       # output thermodynamic data every 100 steps

# Define a fix  in this case with index 1 applied to all
# particles in the simulation. This fix is for simulations
# in the anisotropic NPT ensemble. Note that we use the MTK
# correction.
fix 1 all npt temp 2.4 2.4 0.1 iso 5.68 5.68 0.5 mtk yes tchain 5 pchain 5 # Use NPT ensemble
                                                                         # Set temperature and pressure and damping
                                                                         # Numbers of thermostats in chain and in barostat
run 1000         # run for 10000 steps
Per MPI rank memory allocation (min/avg/max) = 3.676 | 3.679 | 3.684 Mbytes
Step Temp E_pair E_mol TotEng Press Volume 
       0          2.4   -8.3859253            0   -4.7868253   -2.2405722         4000 
     100    1.2552531   -6.5115672            0   -4.6291582     5.497081    4088.0579 
     200    1.4628633    -6.289567            0   -4.0958206    6.0903972    4138.0466 
     300    1.5904925   -6.0345783            0   -3.6494359    5.7376042    4272.4771 
     400    1.6850752   -5.7072351            0   -3.1802542    5.9705826    4399.2373 
     500    1.7895599   -5.4225046            0   -2.7388358     5.865757    4546.8704 
     600    1.8965854   -5.1442855            0   -2.3001186     5.865539    4691.2751 
     700    2.0304439     -4.92263            0   -1.8777256    5.8141752    4830.4151 
     800    2.1710171   -4.7567122            0   -1.5010006    5.6106115    4968.6247 
     900    2.2247838   -4.5230698            0   -1.1867284    5.8051376    5086.8715 
    1000     2.364264   -4.4348938            0  -0.88938446    5.9115751    5144.0032 
Loop time of 0.320433 on 24 procs for 1000 steps with 4000 atoms

Performance: 539270.225 tau/day, 3120.777 timesteps/s
99.4% CPU use with 24 MPI tasks x no OpenMP threads

MPI task timing breakdown:
Section |  min time  |  avg time  |  max time  |%varavg| %total
---------------------------------------------------------------
Pair    | 0.17665    | 0.18635    | 0.19701    |   1.1 | 58.15
Neigh   | 0.033751   | 0.035242   | 0.037337   |   0.5 | 11.00
Comm    | 0.063711   | 0.074287   | 0.083856   |   2.0 | 23.18
Output  | 0.00021052 | 0.00021516 | 0.00028049 |   0.0 |  0.07
Modify  | 0.019468   | 0.022143   | 0.024386   |   1.1 |  6.91
Other   |            | 0.0022     |            |       |  0.69

Nlocal:        166.667 ave         176 max         152 min
Histogram: 1 0 2 0 3 4 6 4 3 1
Nghost:        1840.88 ave        1857 max        1826 min
Histogram: 3 1 3 4 1 2 4 4 0 2
Neighs:        14784.9 ave       15702 max       13755 min
Histogram: 2 1 1 5 1 3 5 0 4 2

Total # of neighbors = 354837
Ave neighs/atom = 88.709250
Neighbor list builds = 86
Dangerous builds = 16

# Equilibrate just above the melting temperature to avoid step fn in T

fix 1 all npt temp 1.25 1.25 0.1 iso 5.68 5.68 0.5 mtk yes tchain 5 pchain 5
run 1000
Per MPI rank memory allocation (min/avg/max) = 3.677 | 3.680 | 3.685 Mbytes
Step Temp E_pair E_mol TotEng Press Volume 
    1000     2.364264   -4.4348938            0  -0.88938446    5.9115751    5144.0032 
    1100    1.9499649   -4.6617779            0   -1.7375618    5.8205171    4978.7844 
    1200    1.7213197   -4.9482774            0   -2.3669434    5.7402188    4808.4294 
    1300    1.5721809   -5.1954201            0   -2.8377383    5.7003773    4667.9329 
    1400    1.4692769   -5.4052033            0   -3.2018389    5.6740098     4560.708 
    1500    1.3897296   -5.5637068            0   -3.4796336    5.6667574    4476.2103 
    1600    1.2963572   -5.6470084            0   -3.7029588    5.6441736    4434.9383 
    1700    1.2716936   -5.7363737            0   -3.8293102    5.7159049    4387.6158 
    1800    1.2561313   -5.8008832            0   -3.9171572    5.6027564    4366.0004 
    1900     1.242552   -5.8327759            0   -3.9694139    5.6800198    4347.3872 
    2000    1.2686809   -5.8614487            0   -3.9589031    5.5394068    4347.1855 
Loop time of 0.313196 on 24 procs for 1000 steps with 4000 atoms

Performance: 551730.788 tau/day, 3192.887 timesteps/s
99.7% CPU use with 24 MPI tasks x no OpenMP threads

MPI task timing breakdown:
Section |  min time  |  avg time  |  max time  |%varavg| %total
---------------------------------------------------------------
Pair    | 0.1808     | 0.18517    | 0.19455    |   0.8 | 59.12
Neigh   | 0.03065    | 0.031261   | 0.032341   |   0.2 |  9.98
Comm    | 0.064319   | 0.072898   | 0.078942   |   1.4 | 23.28
Output  | 0.00020793 | 0.0002154  | 0.00027964 |   0.0 |  0.07
Modify  | 0.019783   | 0.021181   | 0.022339   |   0.5 |  6.76
Other   |            | 0.002465   |            |       |  0.79

Nlocal:        166.667 ave         176 max         159 min
Histogram: 1 1 7 1 4 5 1 3 0 1
Nghost:        2035.25 ave        2048 max        2013 min
Histogram: 1 0 2 0 4 2 5 1 6 3
Neighs:        17526.7 ave       18387 max       16728 min
Histogram: 3 2 3 3 2 3 1 2 2 3

Total # of neighbors = 420641
Ave neighs/atom = 105.16025
Neighbor list builds = 76
Dangerous builds = 5


# Small amount of linear quench

fix 1 all npt temp 1.25 ${temp} 0.1 iso 5.68 5.68 0.5 mtk yes tchain 5 pchain 5
fix 1 all npt temp 1.25 2 0.1 iso 5.68 5.68 0.5 mtk yes tchain 5 pchain 5
run 2000
Per MPI rank memory allocation (min/avg/max) = 3.677 | 3.680 | 3.685 Mbytes
Step Temp E_pair E_mol TotEng Press Volume 
    2000    1.2686809   -5.8614487            0   -3.9589031    5.5394068    4347.1855 
    2100    1.2794819   -5.8119666            0   -3.8932235    5.7203926    4352.4018 
    2200     1.299419   -5.7897525            0   -3.8411112    5.6702452    4371.0945 
    2300    1.3256693   -5.7416449            0   -3.7536381    5.5894507    4401.8846 
    2400    1.3700036   -5.6792582            0   -3.6247666    5.7541532    4413.6805 
    2500    1.3957711   -5.6297133            0     -3.53658    5.5897638    4455.6863 
    2600    1.4474622   -5.5934879            0   -3.4228374    5.6650192    4468.6446 
    2700    1.4636436   -5.5098235            0   -3.3149069    5.8424632    4489.8391 
    2800     1.528484    -5.491505            0   -3.1993523    5.6641026    4519.3112 
    2900    1.5499581    -5.452688            0   -3.1283321    5.5057198    4553.7294 
    3000    1.5967757   -5.4009291            0   -3.0063644    5.5987411    4576.2116 
    3100    1.6231708   -5.3465736            0   -2.9124261    5.4023632    4625.8785 
    3200    1.6494932   -5.2843789            0   -2.8107578    5.3330169    4666.7365 
    3300    1.7056542    -5.233616            0   -2.6757743    5.5513564    4673.3285 
    3400    1.7352553   -5.1481026            0   -2.5458702    5.8351401    4687.7427 
    3500    1.8053618   -5.1318377            0   -2.4244721    5.7472651    4711.8865 
    3600    1.7785406   -5.0362144            0   -2.3690705    5.7149389    4762.6024 
    3700    1.8557202    -5.011736            0   -2.2288515    5.6695587    4787.6797 
    3800    1.8978643   -4.9668868            0    -2.120802     5.651646    4821.3555 
    3900    1.9489754   -4.9401489            0   -2.0174166    5.6875283    4842.1635 
    4000     1.961065   -4.8704478            0   -1.9295857    5.5039226    4900.4883 
Loop time of 0.62472 on 24 procs for 2000 steps with 4000 atoms

Performance: 553207.593 tau/day, 3201.433 timesteps/s
99.7% CPU use with 24 MPI tasks x no OpenMP threads

MPI task timing breakdown:
Section |  min time  |  avg time  |  max time  |%varavg| %total
---------------------------------------------------------------
Pair    | 0.36043    | 0.36887    | 0.38085    |   0.8 | 59.05
Neigh   | 0.061536   | 0.062389   | 0.063612   |   0.2 |  9.99
Comm    | 0.13579    | 0.14455    | 0.15693    |   1.4 | 23.14
Output  | 0.00041445 | 0.0004242  | 0.00056327 |   0.0 |  0.07
Modify  | 0.039902   | 0.043445   | 0.046299   |   1.0 |  6.95
Other   |            | 0.005045   |            |       |  0.81

Nlocal:        166.667 ave         179 max         154 min
Histogram: 1 2 2 2 2 5 6 2 1 1
Nghost:        1901.79 ave        1925 max        1881 min
Histogram: 2 1 3 3 3 5 4 0 2 1
Neighs:        15521.6 ave       17102 max       14022 min
Histogram: 1 1 4 1 2 7 5 2 0 1

Total # of neighbors = 372519
Ave neighs/atom = 93.129750
Neighbor list builds = 150
Dangerous builds = 1

#############################
# F R E E Z E  S Y S T E M  #
#############################

# Define solid atoms. This closely follows ten Wolde  Ruiz-Montero and Frenkel  Faraday Discuss  1996  104  93-110
# Compute components of the per-atom q6 vector
compute q6 all orientorder/atom degrees 1 6 components 6 nnn NULL cutoff 1.3 # compute the Q6 parameter.
                                                                             # Use all neighbours within 1.3 unit cell.

# get number of connections
compute coord_number all coord/atom orientorder q6 0.5

# An atom is solid if it has 8 or more connections (of a possible 14)
variable is_solid atom c_coord_number>=8
group solid dynamic all var is_solid    # Must be dynamic to update
dynamic group solid defined

# do clustering
compute cluster solid cluster/atom 1.3 # Create a cluster where all atoms within are solid and max 1.3 units from another member

# define chunks one chunk per cluster
compute clus_chunks solid chunk/atom c_cluster nchunk every compress yes  # Says which atoms are in which chunk

# count the size of each chunk
compute size_chunks solid property/chunk clus_chunks count


# Find the maximum entry in the vector of chunk sizes
variable max_n equal max(c_size_chunks)


# Thermo style which includes this variable
thermo_style custom step temp pe vol v_max_n

thermo ${N}  # Print the thermo information every 100 steps
thermo 100  

# Reset the npt fix at a lower temperature (below freezing)
fix 1  all npt temp  ${temp} ${temp}  0.1  iso  5.68  5.68  0.5  mtk yes tchain  5  pchain  5
fix 1  all npt temp  2 ${temp}  0.1  iso  5.68  5.68  0.5  mtk yes tchain  5  pchain  5
fix 1  all npt temp  2 2  0.1  iso  5.68  5.68  0.5  mtk yes tchain  5  pchain  5

dump dmp2 all dcd ${N} traj_${rand}.dcd
dump dmp2 all dcd 100 traj_${rand}.dcd
dump dmp2 all dcd 100 traj_462431.dcd


# fix rnuntil all halt ${N} v_max_n >= 3980 error soft message no   # Stop when solidified


run 100000 # 5000000  # Run for this many steps
Neighbor list info ...
  update every 1 steps, delay 10 steps, check yes
  max neighbors/atom: 2000, page size: 100000
  master list distance cutoff = 3.8
  ghost atom cutoff = 3.8
  binsize = 1.9, bins = 9 9 9
  4 neighbor lists, perpetual/occasional/extra = 1 3 0
  (1) pair lj/cut, perpetual
      attributes: half, newton on
      pair build: half/bin/atomonly/newton
      stencil: half/bin/3d
      bin: standard
  (2) compute orientorder/atom, occasional
      attributes: full, newton on
      pair build: full/bin/atomonly
      stencil: full/bin/3d
      bin: standard
  (3) compute coord/atom, occasional
      attributes: full, newton on
      pair build: full/bin/atomonly
      stencil: full/bin/3d
      bin: standard
  (4) compute cluster/atom, occasional
      attributes: full, newton on
      pair build: full/bin/atomonly
      stencil: full/bin/3d
      bin: standard
Per MPI rank memory allocation (min/avg/max) = 9.438 | 9.447 | 9.451 Mbytes
Step Temp PotEng Volume v_max_n 
    4000     1.961065   -4.8704478    4900.4883            1 
    4100     1.983933   -4.8010128    4906.5497            1 
    4200      2.00162   -4.7501007    4922.9964            1 
    4300    1.9820458   -4.7852734    4942.9485            1 
    4400    2.0102634   -4.8643695    4880.1158            1 
    4500    1.9972592   -4.8368793    4927.8699       -1e+20 
    4600    1.9862657   -4.8126672    4905.3283            2 
    4700    2.0485638   -4.7948218    4906.4292            1 
    4800    1.9885944   -4.8297246    4959.0847            1 
    4900     2.013919   -4.8230408    4922.9647       -1e+20 
    5000    2.0044967   -4.7758824    4896.2709            1 
    5100    1.9925216   -4.8511902    4925.5204            1 
    5200     1.998775   -4.8117462    4898.9589            1 
    5300    2.0093576   -4.7702164    4920.7101       -1e+20 
    5400    2.0073979    -4.803502     4920.663       -1e+20 
    5500    1.9796287   -4.7799556    4928.0038            1 
    5600    2.0614815   -4.8080958    4922.7109            1 
    5700    1.9885875   -4.8185698    4897.7558            1 
    5800    1.9970937   -4.7958419    4928.8948            1 
    5900     2.012319   -4.7594479    4921.5486            1 
    6000    1.9988683   -4.8219671     4921.176            1 
    6100    1.9844433   -4.8117039    4923.1308            1 
    6200    2.0075886   -4.7956501    4903.8877            2 
    6300    1.9997871   -4.7453528    4912.6451            1 
    6400    1.9637215   -4.8142027    4892.9055            1 
    6500    2.0096551   -4.8253886    4895.6122            1 
    6600    1.9812113   -4.8222114    4912.7583            1 
    6700    2.0254738   -4.8200041    4911.6694            1 
    6800    1.9896676   -4.7373338    4944.4084            1 
    6900    2.0190375   -4.8150618    4937.4506            1 
    7000    2.0260005   -4.8045792    4917.3823            1 
    7100    1.9370062    -4.810071    4927.2739       -1e+20 
    7200    2.0332462   -4.8341386     4900.996            1 
    7300    1.9643717   -4.7956923      4919.02            1 
    7400     2.013569   -4.7691226    4928.1021            1 
    7500     2.011713   -4.7977132    4904.3773       -1e+20 
    7600    1.9548917   -4.8353913    4920.5917            1 
    7700    2.0450871   -4.8613005    4883.8098            1 
    7800    1.9929077   -4.8472225    4874.4817       -1e+20 
    7900     1.992805   -4.8153853    4941.4219            1 
    8000    2.0116497   -4.7828599    4922.4894            1 
    8100    1.9833375    -4.842196    4907.7762            2 
    8200    1.9888634   -4.8055004    4914.6133            1 
    8300    2.0151946    -4.813071    4916.1907            1 
    8400    2.0047315   -4.8296534    4921.8715       -1e+20 
    8500    1.9930664   -4.7925746    4924.9174            1 
    8600       2.0104   -4.7810593    4901.7578            1 
    8700    1.9598446   -4.8190647    4921.8082            1 
    8800    2.0225269     -4.79562    4910.0685            1 
    8900    1.9782142   -4.8131296    4921.2381            1 
    9000    2.0322721   -4.7827441    4934.8996            1 
    9100    2.0440925   -4.7056941    4948.8198            2 
    9200    1.9949862   -4.7669105    4965.1287            1 
    9300    2.0215204    -4.800843    4924.1106            1 
    9400    1.9833795   -4.7935135    4924.6958            1 
    9500    1.9623953    -4.735966    4932.9186            1 
    9600    2.0795746   -4.8279739    4902.5541            1 
    9700    1.9293754   -4.7650798    4929.5639            1 
    9800    2.0425896   -4.8361102    4910.6509            1 
    9900    1.9974928   -4.8319416    4903.6583       -1e+20 
   10000    2.0193566   -4.8088919    4915.4138            1 
   10100     1.989008   -4.7596537    4964.1767            1 
   10200    2.0588618   -4.7920889    4941.7672            1 
   10300    2.0176496   -4.8095099    4908.2329            1 
   10400    1.9519889   -4.8262188      4921.97            2 
   10500     2.022166   -4.8162214    4902.0239            1 
   10600    1.9735647   -4.8027415    4905.3486       -1e+20 
   10700    2.0249608   -4.7622496    4911.7251            1 
   10800    1.9667802   -4.7996648    4917.0007            1 
   10900    2.0284602   -4.8168622    4943.8938            2 
   11000    2.0258622   -4.7403852    4944.5688            1 
   11100    1.9506611   -4.7710664     4940.473            1 
   11200    2.0088915   -4.8107164    4925.7189       -1e+20 
   11300    1.9916584   -4.8396176    4885.8278            1 
   11400    1.9695157   -4.8509287    4908.8194            1 
   11500    2.0205507   -4.7928373    4900.8303            1 
   11600    1.9606724   -4.7565483    4939.2478            1 
   11700    2.0088064   -4.7633405    4956.0286            1 
   11800    1.9900944   -4.7737184    4905.3941            1 
   11900    1.9259783   -4.7874072    4900.9765            1 
   12000    1.9977728    -4.805642    4943.2245       -1e+20 
   12100    2.0387196   -4.7793749     4903.416            1 
   12200    1.9644184   -4.7903119    4906.0688            1 
   12300    1.9651266   -4.7939274    4911.1504            4 
   12400    1.9822077   -4.8266871    4862.6866            1 
   12500     1.966921   -4.8502326     4921.995            1 
   12600    2.0128498   -4.7846017    4917.3417            1 
   12700    1.9998812   -4.7235172    4932.7392            1 
   12800    1.9963661   -4.7527745    4966.0004            3 
   12900    2.0070017   -4.8008116    4903.1665            1 
   13000    1.9946084   -4.8419584    4898.6279            1 
   13100    1.9727122   -4.7691593    4955.9888       -1e+20 
   13200    2.0375925   -4.7752996    4925.6289            1 
   13300    1.9885886   -4.8015954    4920.1998            1 
   13400    1.9401636   -4.8231282    4920.6067            1 
   13500    2.0246577   -4.7995115    4889.3902            1 
   13600    1.9757624   -4.8020402    4902.0421            1 
   13700    1.9663663   -4.7968124    4921.5063            1 
   13800    2.0390596   -4.8040662    4928.5831            1 
   13900    2.0050403   -4.8304396    4901.1109            1 
   14000    1.9890502   -4.8585796    4909.3941       -1e+20 
   14100    2.0286326   -4.8241806    4899.5278            2 
   14200     1.930663   -4.8069856    4900.7629            1 
   14300    2.0147738   -4.8344335    4915.0351            1 
   14400    2.0395127   -4.8285019    4892.4638            1 
   14500    1.9473462    -4.814481       4922.4            1 
   14600     2.044864   -4.8193286    4916.0287            1 
   14700    1.9915922   -4.8314301    4914.8499       -1e+20 
   14800    2.0264072   -4.8295359    4911.7294            1 
   14900    1.9930178   -4.7945769    4917.1209            3 
   15000    1.9794735   -4.8049327    4891.1116       -1e+20 
   15100    2.0263955   -4.8240622    4907.3884            1 
   15200    1.9886287   -4.8223749    4935.6561            2 
   15300    2.0280091   -4.8048803    4901.4323            1 
   15400    1.9702918    -4.809124    4946.0813            1 
   15500    1.9744583   -4.8448307    4893.6527            1 
   15600    2.0029701    -4.772843    4879.4577            1 
   15700    1.9964168    -4.821216    4940.5509            1 
   15800    2.0123469   -4.7934842    4917.2679       -1e+20 
   15900    2.0033263   -4.8123683    4902.9701            1 
   16000     1.975891   -4.8384911     4922.782            1 
   16100    2.0393978   -4.8460825    4881.7731            1 
   16200     2.004426   -4.8142858    4951.1993            1 
   16300    1.9995565   -4.7670997    4938.3597            1 
   16400    1.9908817   -4.7592774    4913.0799            1 
   16500    1.9756127   -4.7676745    4942.6955            1 
   16600    2.0494107   -4.7887194    4916.4403            1 
   16700    1.9842682   -4.8212295    4915.1647            1 
   16800    2.0220855   -4.8230288     4920.622            1 
   16900    1.9793284   -4.8337343    4899.4467            1 
   17000    2.0239798   -4.7996292     4897.119            1 
   17100    2.0060457   -4.8098776     4968.106       -1e+20 
   17200    2.0328225   -4.7962082    4929.7087            1 
   17300    1.9937748   -4.7873285      4923.24            1 
   17400    1.9698883   -4.7738685    4915.3846            1 
   17500    2.0317956   -4.7738073    4932.4479            1 
   17600    2.0138135   -4.7734017    4916.1767            1 
   17700    1.9824191   -4.8001536    4936.7679            1 
   17800    2.0147455   -4.7488262    4917.1671            1 
   17900    1.9837037   -4.7800826    4922.9475            1 
   18000    1.9948763   -4.8542447    4892.7936            1 
   18100    1.9931721   -4.8229627    4913.8779            1 
   18200     1.982852   -4.7778822    4960.3255            1 
   18300    2.0276198   -4.7734808    4925.4956            1 
   18400    1.9863745   -4.8113651    4918.2479            2 
   18500    2.0357863   -4.8352839     4925.242            1 
   18600    1.9772791   -4.7640007    4916.3356            1 
   18700    1.9889983   -4.7816072    4935.5026            1 
   18800    1.9941537   -4.7874377    4966.8162       -1e+20 
   18900    2.0538766   -4.7438915    4914.6684            1 
   19000    1.9658723   -4.7053457    4985.7498            1 
   19100    2.0329989   -4.7764826    4967.5847       -1e+20 
   19200     2.034898   -4.8028716    4911.8695            3 
   19300    1.9857236   -4.8210099    4895.6269            1 
   19400     1.984341   -4.8073455    4916.2125            1 
   19500    1.9866134   -4.7355615    4942.1187            1 
   19600    1.9844174   -4.7918176    4933.2958            2 
   19700    2.0103152   -4.8288268    4890.9559            1 
   19800    1.9389522   -4.8001239     4909.527            1 
   19900    1.9829508   -4.7672772     4945.914            2 
   20000    2.0377555   -4.7720195    4932.2408       -1e+20 
   20100    2.0031781    -4.810274     4910.772            1 
   20200     1.976627   -4.8016359    4929.5803            1 
   20300     2.023556   -4.7687106    4940.9563            1 
   20400    1.9787081   -4.7630741    4906.2416            1 
   20500    2.0457802    -4.836314    4909.8521            1 
   20600    1.9701035   -4.8332436     4941.444            1 
   20700    2.0620485    -4.844017    4891.9514            1 
   20800    2.0174094   -4.8686071    4906.4186            1 
   20900    1.9462709   -4.8145248    4926.8444            1 
   21000     2.040957   -4.7952224    4926.3603            1 
   21100    1.9972649    -4.776598    4904.1152            2 
   21200    1.9618612   -4.8304678    4906.9412            1 
   21300    1.9974292   -4.7818081    4908.3244       -1e+20 
   21400    2.0300326   -4.7884609    4931.9735            1 
   21500    2.0056147   -4.7595913    4958.8069            1 
   21600    2.0095047   -4.7837968    4931.1379            1 
   21700    1.9995077   -4.7810853    4909.9022            1 
   21800    2.0118506   -4.8286848    4950.5121       -1e+20 
   21900      1.98781   -4.8120896     4890.413            1 
   22000    2.0281904   -4.7723003    4917.5778            2 
   22100    1.9886145    -4.803047    4943.4873       -1e+20 
   22200    1.9585876   -4.8735184    4902.3421            2 
   22300    1.9826709   -4.8152054    4880.4798            1 
   22400    2.0149309    -4.818703    4905.9936            1 
   22500     2.010396   -4.8186708    4932.8422            1 
   22600     1.968479   -4.8178242    4883.8377            1 
   22700    1.9863746   -4.7885802    4893.0863       -1e+20 
   22800    1.9884632   -4.7780705    4946.9441            2 
   22900    2.0189061   -4.7835792    4923.7151            2 
   23000    2.0129988   -4.8218656    4936.2094            1 
   23100    2.0404189    -4.839159    4923.3245            1 
   23200    2.0047526   -4.8487862    4883.8496            1 
   23300    2.0405691   -4.8471266    4918.2526            1 
   23400    1.9871848   -4.8046358    4927.3469            1 
   23500    2.0419083   -4.7410044    4920.9556            1 
   23600    2.0027974   -4.7641762    4976.5362            1 
   23700    2.0070233    -4.812747    4908.4463            1 
   23800    2.0056621   -4.8353442    4904.1378            2 
   23900    1.9776659   -4.8207529     4902.923       -1e+20 
   24000     2.023101   -4.8407027    4900.1158            1 
   24100    2.0107424   -4.8157121    4928.0924       -1e+20 
   24200    2.0051148   -4.8176701    4916.5473            1 
   24300    1.9898025   -4.8453182    4910.9787            1 
   24400    2.0136658    -4.807235     4932.029            1 
   24500    1.9896232   -4.7692482    4898.0022            1 
   24600    2.0145633   -4.7703744    4927.6642            1 
   24700    2.0000862    -4.790456    4935.2035            2 
   24800    1.9828249   -4.8221708    4916.7605            2 
   24900    2.0415012   -4.8113707     4893.139            1 
   25000    1.9550498   -4.8130021    4935.6943            1 
   25100    2.0035918   -4.7830999     4921.509            1 
   25200    2.0438023   -4.7672438    4936.4055            1 
   25300    2.0054406   -4.7970806    4935.2835            1 
   25400    2.0037252   -4.8107737    4935.6737            1 
   25500    2.0131884   -4.7884036    4919.7876            1 
   25600    1.9567619   -4.7766602    4924.2285            2 
   25700    2.0278195   -4.8014481    4958.1204            1 
   25800     1.992859   -4.7374773    4929.6505            1 
   25900    2.0240154   -4.7620056    4938.9138            2 
   26000    1.9620701   -4.7633024    4955.1487            1 
   26100    2.0365061   -4.7917447    4889.5866            1 
   26200    1.9877501   -4.8240465     4904.325            2 
   26300    1.9548188   -4.8107681    4913.1044            2 
   26400    2.0345283   -4.7864218     4894.787            2 
   26500    1.9736415   -4.8004831    4949.6278            1 
   26600    2.0330481   -4.8092902    4932.1511            2 
   26700    2.0213811   -4.7991731    4930.0588       -1e+20 
   26800    1.9474176   -4.8046029    4935.5242            1 
   26900    2.0248767   -4.8229631     4877.321            1 
   27000     1.974014   -4.8124141    4918.4661            1 
   27100     1.992166   -4.7927206    4942.8171            1 
   27200    1.9726218   -4.7827362    4910.3021            2 
   27300    2.0258356   -4.8387669    4879.5364            1 
   27400    1.9665408   -4.8545454    4909.2048            1 
   27500    2.0021124   -4.7841314    4893.8405            1 
   27600    2.0189315   -4.8015389    4914.9637            1 
   27700    1.9628497   -4.7923358    4926.4326            1 
   27800    2.0016168   -4.8715092    4867.5005            1 
   27900     2.004429   -4.8439719    4901.2645            1 
   28000    1.9871341   -4.8256404    4927.7704            1 
   28100    2.0468848   -4.7996193    4928.1174            1 
   28200    2.0028688    -4.785568    4938.4016            2 
   28300    2.0124704   -4.8173998     4935.135       -1e+20 
   28400    2.0311434   -4.8008248    4936.0257            1 
   28500    2.0317922   -4.7754524    4970.1265            1 
   28600    2.0072833   -4.7733572    4919.8265            1 
   28700    2.0004328   -4.7953094     4924.157            1 
   28800    2.0050032   -4.9098552    4903.8512            2 
   28900     2.010085   -4.8713467    4866.8298            1 
   29000    1.9643484     -4.77201    4931.7114       -1e+20 
   29100    2.0289978   -4.8112622     4948.462            1 
   29200    1.9742556   -4.8158854    4908.3942            1 
   29300    2.0050757   -4.8298398    4907.9174            1 
   29400    1.9869543   -4.7434866     4926.882       -1e+20 
   29500    1.9975708    -4.782382    4940.7858            1 
   29600    1.9935411   -4.8149549    4860.0479            1 
   29700    1.9824065   -4.8122452    4912.2206       -1e+20 
   29800    1.9658598   -4.7958312     4913.418            1 
   29900     2.047752    -4.763085    4901.3625            1 
   30000    2.0037718   -4.7728758    4947.8793            1 
   30100       1.9672   -4.8046316    4948.9815       -1e+20 
   30200     2.045892   -4.7861316    4907.3864            1 
   30300    1.9901784   -4.7815387    4948.2639            1 
   30400    1.9661825   -4.8230218    4907.1165            1 
   30500    1.9982341   -4.8124186    4888.4194            2 
   30600    1.9747664    -4.782779    4924.9799            1 
   30700    2.0111775   -4.7857815    4922.3968       -1e+20 
   30800    1.9972558   -4.8061819    4920.9224            2 
   30900    2.0432632   -4.7705678    4924.5288            1 
   31000    2.0082578    -4.774771    4977.6959            1 
   31100    2.0073187   -4.8261754    4931.3949            1 
   31200    1.9726898   -4.7735977    4893.1197            2 
   31300    2.0296689   -4.8277628    4906.1522       -1e+20 
   31400    1.9729173   -4.8068523    4928.4158            2 
   31500    2.0389738   -4.8329892    4902.5275       -1e+20 
   31600    1.9670333   -4.8281712    4926.9314            1 
   31700    1.9939835   -4.7792395    4935.9513       -1e+20 
   31800    2.0119734    -4.812251    4894.0695       -1e+20 
   31900    1.9570644   -4.8245616    4889.2938            1 
   32000    2.0088519   -4.8294835    4938.8924            1 
   32100    2.0226969   -4.7957679      4915.39            1 
   32200    1.9715716   -4.8342471    4922.3473            1 
   32300    2.0082561   -4.7924259    4910.6534            1 
   32400    2.0214234   -4.8262196    4909.8353            1 
   32500    1.9478571   -4.8162777    4912.5881            1 
   32600    2.0288076   -4.8269909    4911.2857            1 
   32700     1.997924    -4.795514    4914.1123            2 
   32800    2.0265673   -4.7973257    4921.9844       -1e+20 
   32900    1.9757272   -4.8003145    4935.3785            1 
   33000    2.0183745   -4.8021384    4908.2547            1 
   33100    2.0335899   -4.8046951    4930.8802            1 
   33200    1.9702315   -4.8164554    4939.0245            1 
   33300    2.0087558   -4.8182695    4910.4415            1 
   33400    2.0304615   -4.7802594    4923.4371            1 
   33500    1.9731721   -4.8176192    4905.2026            1 
   33600    2.0153725   -4.8083033    4925.0557            1 
   33700    2.0401992   -4.7671913    4931.4372       -1e+20 
   33800    1.9916166   -4.8149352    4940.7025       -1e+20 
   33900     2.010921   -4.8131158    4917.3343            1 
   34000    1.9591568   -4.8069039    4889.9612            2 
   34100    1.9989564    -4.788073    4924.4166            1 
   34200     1.999681   -4.7829171    4928.5325            1 
   34300    1.9919106   -4.7760144    4903.0071            1 
   34400    1.9502642   -4.8206406    4920.0522            1 
   34500    2.0149168   -4.8115685    4920.0314            1 
   34600    1.9664009   -4.7553704    4891.7569            1 
   34700    1.9826024   -4.8192534    4920.5766            2 
   34800      1.98551   -4.8210651    4933.1702            1 
   34900    2.0573017   -4.8155072    4898.0784            1 
   35000    1.9720781   -4.8266096    4924.1791            1 
   35100    2.0085872   -4.8623647    4908.4532            1 
   35200    2.0390483   -4.8082772    4906.3873            1 
   35300    2.0020039   -4.8672146     4941.611            1 
   35400    2.0299472   -4.8138152    4900.4676       -1e+20 
   35500    1.9739912    -4.770856    4914.9201            1 
   35600    1.9891993   -4.8079215    4947.6563            1 
   35700    1.9837817   -4.7914778     4885.128            1 
   35800    1.9901838   -4.8452863    4889.1288            2 
   35900    1.9815263   -4.7887094     4942.701            4 
   36000    2.0001735   -4.7747547     4917.181            1 
   36100    2.0165972   -4.8550768    4917.8373            1 
   36200    1.9887523   -4.7621216    4933.9767            1 
   36300    2.0540858   -4.8331425    4924.5183            1 
   36400    1.9884049   -4.8312948    4914.1363       -1e+20 
   36500    1.9939141   -4.7505853    4917.7814            1 
   36600    2.0490313   -4.7323318    4952.1434            1 
   36700    2.0279706    -4.802455    4921.8823            1 
   36800     1.988545   -4.8323201    4898.5243            1 
   36900     1.990453   -4.7807674    4915.1099            1 
   37000    1.9888437   -4.7804249    4929.9007            1 
   37100     2.008391   -4.7670757    4930.0708            1 
   37200    1.9870376   -4.7973869    4915.1531       -1e+20 
   37300    1.9769633   -4.8247515    4903.4327            1 
   37400    2.0049939   -4.8399008    4894.2114            1 
   37500    2.0105614   -4.8233209      4938.74            1 
   37600    2.0244148   -4.8123127    4928.6251            1 
   37700    1.9700106   -4.8461829     4905.571            1 
   37800    1.9852597   -4.8100222    4910.2935            1 
   37900    2.0249769   -4.8116008    4907.8426            1 
   38000    1.9580975   -4.8346028    4937.0061            1 
   38100    2.0373697   -4.8158102    4916.0111            1 
   38200    2.0055529   -4.7789226    4905.9029       -1e+20 
   38300    2.0144159   -4.8677499    4947.9823            2 
   38400    1.9945837   -4.8297371    4877.8853            1 
   38500    1.9780818   -4.7953956    4891.7219            1 
   38600    1.9882866   -4.8181542    4899.4562            1 
   38700    1.9623994   -4.7741195    4911.3192            1 
   38800    1.9938387    -4.780979    4942.4809            1 
   38900    2.0047814   -4.7146025    4939.1541            1 
   39000      1.97603   -4.7617595    4940.5816            1 
   39100    1.9630165   -4.8111574     4905.647            1 
   39200    1.9994485   -4.7909627    4921.1534            1 
   39300    1.9842234    -4.813824    4911.3936            1 
   39400    2.0160899   -4.8595938    4892.2712            1 
   39500    1.9809845   -4.8041057    4909.7921            1 
   39600    2.0198867   -4.7943883    4929.8489            1 
   39700    1.9870985   -4.8217614    4908.1544            1 
   39800    2.0143832   -4.8088889     4908.737            1 
   39900    2.0016256   -4.7828841    4953.3366            2 
   40000    1.9944739   -4.8341741    4914.1372            1 
   40100    2.0194002   -4.8566237    4909.8705            1 
   40200    1.9899501   -4.8165042    4906.0356            2 
   40300    2.0578764   -4.8134506    4900.0371            1 
   40400    1.9790433   -4.8109078     4934.751            1 
   40500     2.018492   -4.7834644    4952.0571            2 
   40600    2.0091498   -4.7661627    4922.2645       -1e+20 
   40700     1.980788   -4.7883599    4909.9946            1 
   40800     2.013489   -4.7853248    4918.3852            1 
   40900    1.9551896   -4.8022941    4920.2513            1 
   41000    2.0009427   -4.7900479    4897.5731            2 
   41100      1.99041   -4.7613796    4922.8026            1 
   41200    2.0067253   -4.7668714    4942.1386            1 
   41300    1.9903435   -4.7970289    4907.3154            1 
   41400     1.999985   -4.7753214    4928.2471            3 
   41500    2.0472187   -4.8156693    4930.9218            1 
   41600    2.0082008   -4.8451974    4898.4237            1 
   41700    1.9982063   -4.8101847    4908.1908       -1e+20 
   41800    1.9826831   -4.7635658     4968.285            1 
   41900    2.0161194   -4.7852994     4916.506            2 
   42000    1.9957703   -4.8007689    4913.1373            1 
   42100    1.9947164   -4.7988282    4937.4351            1 
   42200    2.0336739   -4.8015316    4902.0009            2 
   42300    1.9339361   -4.8094056    4935.2047            1 
   42400    2.0030171   -4.8090761    4898.7464            2 
   42500    2.0165389    -4.761385    4920.1099            1 
   42600    1.9780306   -4.8137542    4910.3577            1 
   42700    1.9784429   -4.7797564    4906.0102            1 
   42800    1.9993252   -4.7566162    4948.6705            1 
   42900    1.9901281   -4.7973679    4927.7951            1 
   43000    2.0067786    -4.822459     4898.773            1 
   43100    2.0239205   -4.8076062    4920.3104            1 
   43200    1.9284039    -4.784263    4940.4878            1 
   43300    2.0381394   -4.7816131     4904.488       -1e+20 
   43400    2.0036959   -4.8301174    4945.5183            1 
   43500     2.005688    -4.784809    4926.5245       -1e+20 
   43600    2.0280651   -4.8189716    4895.4971       -1e+20 
   43700    1.9618939   -4.8397179     4902.649            2 
   43800    1.9856694    -4.824172    4893.7978            1 
   43900    1.9949548    -4.797733    4913.4479       -1e+20 
   44000    2.0200258   -4.8222896    4932.3313            1 
   44100    1.9900244   -4.8423851     4868.519       -1e+20 
   44200     2.001624   -4.8497285    4951.2871       -1e+20 
   44300    2.0495284   -4.8395479    4914.0142       -1e+20 
   44400    1.9979223   -4.8467773    4901.5554            1 
   44500    2.0072856   -4.7975482     4927.068       -1e+20 
   44600    2.0053458   -4.7836772    4931.0883            1 
   44700    1.9578706   -4.7957663    4907.0981            1 
   44800    2.0194141   -4.8090751    4883.7432            1 
   44900    2.0052823   -4.8141482    4949.5942            1 
   45000    2.0623795   -4.7865515    4952.0641            1 
   45100     2.033458   -4.8228412    4925.4328            1 
   45200     1.971484   -4.7870397    4912.7513            1 
   45300    2.0398403   -4.8218226    4916.7043            1 
   45400    1.9912426   -4.8051501     4911.711            1 
   45500    2.0279104   -4.8153527    4910.2221            1 
   45600    1.9737338   -4.8231546    4934.0948            1 
   45700    2.0265803   -4.7734194    4913.7089            1 
   45800    2.0378507   -4.8276352    4898.7971            1 
   45900    1.9912663   -4.8663667    4923.1976            1 
   46000    2.0316015   -4.8205415    4910.2109       -1e+20 
   46100     2.002582   -4.8068491    4914.6735            1 
   46200     1.933582   -4.8055132    4909.2581       -1e+20 
   46300    2.0159594   -4.8041942    4880.2404            1 
   46400    1.9741645   -4.8057414    4930.8056       -1e+20 
   46500    1.9852615   -4.7617072      4946.82            1 
   46600    2.0192209   -4.7434647    4928.9061            1 
   46700    1.9954641   -4.7568421      4965.13            1 
   46800    2.0033655   -4.7848842    4930.8129            1 
   46900    1.9846621   -4.8161523    4915.0824            1 
   47000    1.9954904   -4.8638465    4888.4725       -1e+20 
   47100    1.9662437    -4.877689    4879.2412            1 
   47200    1.9743151   -4.7942453     4931.764            1 
   47300    2.0352061    -4.822379    4903.4161            2 
   47400    1.9980932   -4.8485784    4897.4312            1 
   47500    1.9972651   -4.8187315    4924.9089            1 
   47600    2.0143404   -4.7942664    4945.3556            1 
   47700    2.0286837   -4.7865208    4925.2712            1 
   47800    2.0042631   -4.8219504    4920.6889            1 
   47900     1.999046   -4.8075161    4933.8988            1 
   48000    2.0552361   -4.7944567    4909.1153            1 
   48100    1.9785692   -4.7923596    4949.9133            4 
   48200    1.9875401   -4.7824829     4947.068            1 
   48300    2.0433014   -4.7513381    4893.7304            1 
   48400    1.9830086   -4.7945997    4951.9572            1 
   48500    2.0043763    -4.817401    4919.1966            1 
   48600    1.9819183   -4.8157837    4883.2362            1 
   48700    2.0002891   -4.7746607    4923.1669            1 
   48800    2.0082712   -4.7654754    4948.5614            1 
   48900    1.9996531   -4.7900748    4922.0592       -1e+20 
   49000    1.9859125    -4.795647    4905.1005            1 
   49100    1.9551716   -4.8075155    4902.9428            1 
   49200    2.0127478   -4.8156445    4898.3068            1 
   49300    2.0011376   -4.7858629    4959.5313            1 
   49400      1.96332   -4.7618423    4936.6242       -1e+20 
   49500    2.0189425   -4.7915424    4888.7226       -1e+20 
   49600    1.9697818   -4.8013358    4931.8021            1 
   49700    2.0107437   -4.7859483    4933.6966            1 
   49800    2.0151277   -4.7874735    4902.7429            1 
   49900    1.9868913   -4.8246628    4952.2844            1 
   50000    1.9774103   -4.7977903    4914.0914            1 
   50100    2.0378234   -4.7879136    4906.8774            1 
   50200    1.9898362   -4.8321442    4949.3449            1 
   50300    2.0242735   -4.7897713     4931.114            1 
   50400    2.0155336   -4.7698712    4932.9357            1 
   50500    1.9927771   -4.8246358    4903.5221            1 
   50600    1.9975379   -4.8400011    4910.6232       -1e+20 
   50700    2.0492601   -4.8241008    4935.5054            1 
   50800    1.9914524   -4.8019981    4920.8501       -1e+20 
   50900    2.0174495   -4.8136556    4915.0429            2 
   51000      2.01381   -4.7425826    4963.0344            1 
   51100    2.0449978   -4.8273001    4911.0231       -1e+20 
   51200    1.9617561   -4.7974853    4909.2123       -1e+20 
   51300    2.0545362   -4.8002075    4913.2604            2 
   51400    1.9842296   -4.7789093    4955.6456            1 
   51500    1.9975927   -4.8316294    4913.3606       -1e+20 
   51600     2.010858   -4.8350183    4894.8646            1 
   51700     1.971448    -4.800818    4910.9941            1 
   51800    1.9994305   -4.7848391    4922.5922            1 
   51900    1.9649633   -4.7986956    4904.3741            2 
   52000    2.0361197   -4.8126887    4885.2987            1 
   52100    1.9710859   -4.8479957    4940.8429            1 
   52200    1.9898829   -4.8618439     4872.113            1 
   52300     1.992008   -4.8082633    4883.2187            1 
   52400    1.9798056   -4.8053299    4927.3853            1 
   52500    2.0310175   -4.7812224    4935.1943            1 
   52600    2.0068791   -4.8000923    4907.6434            1 
   52700    1.9856631    -4.816501    4930.4419            1 
   52800    1.9946016   -4.7867973       4921.9            1 
   52900    2.0114886   -4.7457708    4930.4881            1 
   53000    1.9869026    -4.829554    4919.0756            1 
   53100    2.0071933   -4.8291752      4910.85       -1e+20 
   53200    2.0452237   -4.7733107     4925.173            1 
   53300    1.9931452   -4.7968275    4919.8395            2 
   53400    1.9969611   -4.7854698    4934.9818            2 
   53500    2.0354437    -4.804222    4932.8601            1 
   53600    2.0068571   -4.8372995    4894.6231            1 
   53700    2.0187774   -4.8215853    4934.9261            1 
   53800    2.0340334   -4.8035507    4943.4896            1 
   53900    1.9936135    -4.794992    4908.8071            1 
   54000    1.9582339   -4.8356897    4925.5094            1 
   54100    2.0028579   -4.7945135    4924.2266            1 
   54200     2.011881    -4.742995    4911.4111            1 
   54300    1.9791383   -4.7866725    4958.0826            1 
   54400    1.9977352   -4.8170084    4903.6903            1 
   54500    1.9632707   -4.7993363     4898.251            1 
   54600    2.0294589   -4.8111906    4928.8214            1 
   54700    2.0084819   -4.8210964    4930.3015            2 
   54800    2.0311637   -4.7515656    4946.9338            2 
   54900    1.9997605   -4.7695947    4941.5772            2 
   55000    1.9668681   -4.7863776    4903.0869            1 
   55100    1.9802954   -4.8126153    4916.8266            1 
   55200    1.9994656    -4.775966    4919.8159            1 
   55300    2.0329552   -4.7713294    4944.8911            1 
   55400    1.9865338   -4.7863395    4983.6589            1 
   55500    2.0178339   -4.7786568    4887.9584            2 
   55600    2.0026178   -4.8330727    4899.3224            3 
   55700    1.9883224   -4.7945306    4947.4249            1 
   55800    1.9857211    -4.785246    4933.3856       -1e+20 
   55900    2.0040995   -4.8152739    4880.8009            1 
   56000    1.9621507   -4.8386422    4908.6897            1 
   56100    1.9906489   -4.8008204    4924.6844            1 
   56200    2.0225789   -4.7871732    4940.5572            2 
   56300    1.9762872   -4.8149981    4908.4693            1 
   56400    2.0148622   -4.8646099    4903.4844       -1e+20 
   56500     2.019055   -4.7891258    4944.3636            3 
   56600     1.992809   -4.7884912    4930.9516            1 
   56700    2.0259132   -4.8041503    4924.0045            1 
   56800    2.0046992   -4.8052277    4941.1485            1 
   56900    2.0281329   -4.8341217    4887.5345            1 
   57000    1.9988221   -4.8197965    4913.0099            1 
   57100     1.980269   -4.7926791    4929.5192            2 
   57200    1.9796498    -4.780878    4897.7102            1 
   57300    1.9928759   -4.7815947    4909.3015            1 
   57400    1.9756419   -4.7888097    4933.3246            1 
   57500    1.9537603   -4.8324737    4880.7688            1 
   57600    2.0100153   -4.8569537    4909.8048            2 
   57700    2.0052226   -4.8143194    4899.6625            1 
   57800    2.0355233   -4.7987576    4912.6566            1 
   57900    1.9609341   -4.8103848     4959.797            1 
   58000    2.0112344   -4.7806602    4893.5653            1 
   58100    2.0226459   -4.7909599    4927.0927       -1e+20 
   58200    1.9683251   -4.7905935    4937.7872            2 
   58300    1.9976551    -4.777263    4915.3105            2 
   58400    1.9758106    -4.800253    4921.8026            1 
   58500    1.9760856   -4.8192364    4895.9116            1 
   58600    2.0163065   -4.8311808    4913.9198       -1e+20 
   58700    2.0221932   -4.8140058    4940.6813            1 
   58800    1.9823236   -4.8568997    4915.3937            1 
   58900    2.0018605   -4.8337758    4899.5063            1 
   59000    2.0012086   -4.8135574    4931.3447            1 
   59100    2.0190015   -4.7674895    4971.4952       -1e+20 
   59200    2.0019703   -4.7922547    4909.6803            1 
   59300    1.9698861   -4.8083621    4905.3199       -1e+20 
   59400    2.0317992    -4.808223      4924.37            1 
   59500    1.9862461    -4.791505    4949.4261            1 
   59600    2.0183183    -4.745389    4940.2038            1 
   59700    1.9879905   -4.7268484    4952.8734       -1e+20 
   59800    1.9937592   -4.7774419    4953.9041       -1e+20 
   59900    2.0105074   -4.7777399    4920.6818       -1e+20 
   60000    1.9797396   -4.8006465     4934.385            1 
   60100    1.9790398   -4.7846337    4898.5505            2 
   60200    1.9963854   -4.7966366    4902.5701            1 
   60300    1.9662492   -4.8010479     4926.691            1 
   60400    2.0236144   -4.7626169    4911.4623            1 
   60500    1.9909388   -4.7595539    4936.1028            1 
   60600    1.9565593   -4.7990878    4932.7514            1 
   60700    2.0068074    -4.810433    4864.1897            1 
   60800    2.0163078   -4.8120108    4927.3087            1 
   60900    1.9866772   -4.8095852    4935.4537       -1e+20 
   61000    2.0035951   -4.8404239    4876.7947            2 
   61100    1.9704452   -4.8282745    4890.7694            2 
   61200    2.0001261   -4.8314917    4937.8596            1 
   61300    2.0116272   -4.7949872    4927.9047            1 
   61400    2.0505409   -4.7713354    4931.9209            1 
   61500    1.9717837   -4.7938855    4948.9371       -1e+20 
   61600    2.0212274   -4.8047964    4923.2835            1 
   61700     1.959096   -4.7693813      4905.56       -1e+20 
   61800     2.001227   -4.7796938    4934.1439            1 
   61900    1.9912649   -4.7641173    4946.6155            1 
   62000    2.0307236   -4.7770345    4940.9662            1 
   62100    1.9759159   -4.7975172    4928.3582            1 
   62200    2.0093465   -4.7647803    4919.2467            1 
   62300    2.0021586   -4.7152098    4960.0807            1 
   62400    2.0045138   -4.7404313    4953.3798            1 
   62500    2.0030563    -4.769625    4922.7071            1 
   62600    2.0053613    -4.789383    4949.6626            2 
   62700    2.0192405   -4.7886436    4935.2674            2 
   62800    2.0009363   -4.7717479     4899.623            1 
   62900    1.9495907   -4.8292697    4911.2835            1 
   63000    2.0243473    -4.845139    4906.8569            1 
   63100    2.0382552   -4.7864444    4926.8329            1 
   63200    1.9844643   -4.7855155    4953.4464            1 
   63300    2.0248335   -4.8260237    4895.3805            1 
   63400    2.0131819   -4.7918978    4922.0884            2 
   63500    1.9858831   -4.8178035    4938.7378            1 
   63600    2.0139001   -4.8151906    4889.2784            1 
   63700    1.9827925   -4.8418654    4884.7013            1 
   63800    1.9927957   -4.8500026    4905.0872            2 
   63900     2.013874      -4.7995     4907.204            1 
   64000    1.9989774   -4.7760345    4927.8603            2 
   64100    2.0012176   -4.8011402    4930.7278            1 
   64200    1.9711755   -4.8130002    4910.9484            2 
   64300     1.971269   -4.7820605     4897.316            1 
   64400    2.0090927   -4.7718883    4939.1326            1 
   64500    1.9513121   -4.7749362    4934.1914       -1e+20 
   64600    2.0279987   -4.8001173    4924.8004       -1e+20 
   64700    1.9618225   -4.7786932    4926.8532            1 
   64800    2.0118156   -4.7868352    4894.9782            2 
   64900    1.9643266   -4.8154553    4903.7481            1 
   65000    1.9884604   -4.7830974    4908.8948            2 
   65100    2.0138101    -4.808482    4916.3159            1 
   65200    2.0053207   -4.8398078     4919.676            1 
   65300     2.014599   -4.7699211    4951.0212            1 
   65400    1.9773736   -4.7617895    4913.8514            1 
   65500    2.0058537   -4.8460629    4899.4963            1 
   65600    2.0506627   -4.8436451    4921.5999            1 
   65700     1.996468   -4.8144539    4916.4431            1 
   65800    2.0190734   -4.8283572    4902.9593            1 
   65900    2.0023898   -4.7398334    4950.2182       -1e+20 
   66000    1.9806386   -4.7821674    4929.7195            1 
   66100    1.9778411   -4.7924492    4908.7515            1 
   66200    2.0023156   -4.7767567    4935.5331       -1e+20 
   66300    1.9728654    -4.777513    4885.0203            1 
   66400    2.0209852   -4.8371648    4913.8522            1 
   66500    2.0158499   -4.7986116    4951.9122       -1e+20 
   66600    1.9841444   -4.8130681    4896.3083            1 
   66700    2.0225171    -4.827409    4920.6221            1 
   66800    2.0031677   -4.8058422    4914.8984            1 
   66900    1.9840219   -4.8166879    4916.8143       -1e+20 
   67000    2.0392157   -4.8122536    4932.0373            1 
   67100    1.9745505   -4.7843153    4909.6719       -1e+20 
   67200    1.9967643   -4.8786239    4926.7564            1 
   67300    2.0101008     -4.80475    4910.3087            2 
   67400    2.0164896   -4.7931182     4908.252            1 
   67500    1.9407239   -4.7906853    4905.9871            1 
   67600    2.0361397   -4.8352476    4902.1912            2 
   67700    1.9985511    -4.772585    4935.4291            2 
   67800    1.9767118   -4.7730298    4935.0043            1 
   67900    2.0411871   -4.8285153    4887.3897            1 
   68000     1.977673   -4.8182336    4935.1759            2 
   68100    2.0011291    -4.814461    4910.8396            2 
   68200    1.9896322   -4.7958498    4906.5872            1 
   68300    2.0074802    -4.803519    4956.9567            1 
   68400    2.0077059   -4.7722005    4920.2778            1 
   68500    2.0033029   -4.8119839    4928.0802            1 
   68600    1.9961012   -4.8141002    4919.8032            1 
   68700     2.017009   -4.8100506    4923.1237            1 
   68800    2.0091046   -4.8280319    4904.6389            1 
   68900    2.0056622   -4.8281731     4894.664            1 
   69000    1.9440235   -4.8752676    4891.1344            4 
   69100    2.0004493   -4.8448866    4892.9672            1 
   69200    2.0028806   -4.7827617    4930.4647            1 
   69300    1.9774225   -4.7796684     4950.058       -1e+20 
   69400    2.0711451   -4.7604708    4912.7001            1 
   69500    1.9728893   -4.7567851    4941.8423       -1e+20 
   69600    1.9653001   -4.7809099    4941.6379       -1e+20 
   69700    2.0525904   -4.8083002    4902.6171            1 
   69800    1.9924957   -4.8426891    4925.5929            1 
   69900     2.014933   -4.8298173    4898.4741            1 
   70000    1.9570457   -4.8127728    4885.8466            1 
   70100    1.9910506   -4.8254067     4933.703            1 
   70200    1.9922474    -4.786301    4919.4013            2 
   70300    2.0148831   -4.7910657    4914.3922       -1e+20 
   70400    2.0096947   -4.7935376     4936.189            2 
   70500    2.0219724   -4.8679175    4900.0743       -1e+20 
   70600    1.9998667   -4.8089953    4928.1768            1 
   70700    2.0117569   -4.7803839    4961.4311            2 
   70800    2.0089839     -4.79726    4902.3722       -1e+20 
   70900    1.9879872   -4.8052365    4901.3384            2 
   71000    2.0397349   -4.7993923    4927.3465            1 
   71100    2.0171767   -4.7392762    4971.6628       -1e+20 
   71200    2.0111303   -4.7508707     4917.246            1 
   71300    2.0043259   -4.7834397    4924.3239       -1e+20 
   71400    1.9680829   -4.7809284    4938.0774            1 
   71500    2.0566175    -4.836054    4895.5326            2 
   71600    1.9499584   -4.8262236    4926.6897            1 
   71700    2.0027619   -4.8225409      4908.31            1 
   71800    2.0143037   -4.7702765     4918.476            1 
   71900     1.996723   -4.7518106     4970.811            1 
   72000     2.030953    -4.795799    4944.0937            1 
   72100    1.9988976   -4.7998996     4908.561       -1e+20 
   72200    1.9733692   -4.7603813    4923.0125            1 
   72300    1.9780718    -4.799229    4922.1518            2 
   72400    2.0381346    -4.778573    4929.4461       -1e+20 
   72500    1.9891787     -4.80413    4923.8096            1 
   72600    1.9989153    -4.862428    4907.2418            1 
   72700    2.0079356    -4.813057    4912.3742            1 
   72800    1.9819224   -4.7962154    4918.6483       -1e+20 
   72900    1.9788491   -4.8091525    4904.8823            1 
   73000    2.0369293   -4.8010342     4912.185            1 
   73100    1.9592961   -4.8028454    4907.8737            1 
   73200    1.9848282   -4.8157901    4894.7429            1 
   73300    2.0284398   -4.8253098    4900.0552            1 
   73400    1.9681605   -4.8359357     4944.803       -1e+20 
   73500    2.0187064   -4.7598241    4927.1756            1 
   73600    2.0056655   -4.7653092    4933.6832            1 
   73700    1.9921019   -4.7509508    4960.2008            1 
   73800    1.9933502    -4.770077    4909.2513            2 
   73900    1.9444048   -4.7886537    4920.9434       -1e+20 
   74000    2.0238849   -4.8148527    4917.6834            1 
   74100    1.9762618   -4.8321258    4892.5178            1 
   74200    2.0165429   -4.8355905    4908.5721            1 
   74300    1.9840649   -4.7813292    4943.1058            1 
   74400    2.0158882   -4.8352312    4903.8542            2 
   74500    1.9886862   -4.8112097    4905.8712            1 
   74600    2.0167983   -4.8153439    4920.1285            1 
   74700    1.9823685     -4.80092    4918.9322            1 
   74800    2.0166749   -4.7649136    4922.3216            1 
   74900    2.0030894   -4.7786183    4937.6314            1 
   75000    1.9666767   -4.8079249     4942.755       -1e+20 
   75100    2.0130198   -4.8682423    4849.9807            1 
   75200    1.9669517   -4.8258611    4900.7106            1 
   75300    1.9846004   -4.7888515    4917.4365            1 
   75400     2.063967   -4.8047605    4914.0757            1 
   75500    1.9786297   -4.8190509    4933.7092            1 
   75600    2.0188178   -4.8105353     4917.014            1 
   75700     1.979031   -4.8292831    4910.7776            1 
   75800    2.0233324   -4.7982364    4920.4535            1 
   75900    2.0586365   -4.7544697    4952.5837       -1e+20 
   76000    1.9595473   -4.7420136    4957.2776            1 
   76100    2.0197203   -4.7946364     4919.642            1 
   76200    1.9786134   -4.7867344    4926.2944            1 
   76300    2.0036738   -4.7821016    4938.7107       -1e+20 
   76400    2.0007208     -4.81205    4897.3328            1 
   76500     2.000349   -4.7500441    4938.4717       -1e+20 
   76600    2.0372964   -4.7987751    4939.6992       -1e+20 
   76700    1.9919165   -4.8041628    4928.7404            1 
   76800    2.0203515   -4.8296027    4906.0162            1 
   76900    2.0105113   -4.7867491     4915.847            2 
   77000    1.9731323   -4.8030512    4943.2034            1 
   77100    2.0037404   -4.7939172    4909.2866            1 
   77200     2.041956   -4.8204841    4946.8926            1 
   77300    2.0225984    -4.754616    4934.5638       -1e+20 
   77400    2.0057591   -4.8025521    4917.9005            1 
   77500    1.9418258   -4.8009281    4904.9507            1 
   77600    2.0262612   -4.8185814    4900.8061            1 
   77700    2.0073442   -4.7865488    4948.1695       -1e+20 
   77800    1.9997405   -4.8041762    4938.4399            1 
   77900    2.0255306   -4.7564967    4932.2667       -1e+20 
   78000    1.9899728   -4.8114469    4933.6606            3 
   78100    1.9776237   -4.7771013    4916.1561       -1e+20 
   78200    2.0253801    -4.789539    4940.6673            1 
   78300    2.0163387   -4.8181645    4927.1437       -1e+20 
   78400    1.9802008   -4.8015254    4895.5384            2 
   78500    2.0124963    -4.818888    4921.0753            1 
   78600    1.9375827   -4.7061961    4917.5193            1 
   78700    2.0146107    -4.779407    4908.3776            1 
   78800    1.9798264   -4.7913596    4945.2954            1 
   78900    1.9905607   -4.8253736    4887.5423            1 
   79000    2.0147141   -4.8433065    4909.6249            1 
   79100    1.9940397    -4.821277    4926.8329            1 
   79200     1.990136   -4.7721108    4884.1201       -1e+20 
   79300    1.9563978   -4.7937633     4906.209            1 
   79400     2.006574   -4.8237006    4916.2539            1 
   79500    2.0162526    -4.795282    4908.1644            1 
   79600    1.9740105   -4.8277885    4937.6953            1 
   79700    2.0390394   -4.7830238    4911.4363            2 
   79800    1.9689638    -4.770287    4921.6859            1 
   79900     1.997842     -4.81895    4940.1443            1 
   80000    2.0244095   -4.7922894    4913.2568            2 
   80100    1.9850282   -4.8119845    4924.3349            1 
   80200    2.0438085   -4.8357792    4931.8927            1 
   80300    1.9831356   -4.7854082    4935.4314            2 
   80400    2.0205367   -4.8637981    4892.5872            1 
   80500    1.9474398   -4.8088633    4913.9019            1 
   80600    2.0091443   -4.7940298    4918.1718            1 
   80700    2.0331156    -4.779116    4970.3115            1 
   80800    1.9948125   -4.7867482    4942.7383            2 
   80900    2.0397279   -4.7929735    4907.2274            1 
   81000    1.9716863   -4.8370429    4933.3845            1 
   81100    2.0098032   -4.7996746    4910.8948       -1e+20 
   81200     2.031054   -4.7780907      4952.95            4 
   81300    1.9999811   -4.7749484    4926.7267            1 
   81400    2.0134282    -4.800025    4914.9151            1 
   81500    1.9978672   -4.7975489    4932.7033       -1e+20 
   81600    1.9710983   -4.7841248    4914.2278            1 
   81700     2.022446   -4.7929573    4913.2254            1 
   81800    1.9940295   -4.8108653    4914.5271            2 
   81900    1.9780325   -4.8567628     4918.101            3 
   82000    2.0125632   -4.8365684    4881.6638            1 
   82100    2.0100504   -4.7994711    4917.9131            1 
   82200    1.9879782   -4.8665815    4922.4336            2 
   82300    2.0073556   -4.8229134    4914.9928            1 
   82400    2.0208446   -4.7630839    4926.1873            1 
   82500    1.9540045   -4.7846336    4941.9611            2 
   82600    2.0459664   -4.8316409    4910.0085       -1e+20 
   82700    1.9672253   -4.8010767      4933.93            1 
   82800    1.9872613   -4.7500057    4936.1473            1 
   82900    2.0143443   -4.8217154    4916.0912            1 
   83000    1.9573888    -4.829875    4894.2004            1 
   83100    2.0084152   -4.8397979     4930.869            2 
   83200    2.0227687   -4.7865528     4912.717            1 
   83300    1.9431412   -4.7819776    4908.9221            1 
   83400    2.0102714   -4.8229806     4938.008       -1e+20 
   83500    1.9776932   -4.8067831    4910.9544       -1e+20 
   83600    2.0072406   -4.7971935    4896.4218            1 
   83700    1.9608348   -4.7926416    4941.3686            1 
   83800    2.0131676    -4.755865    4913.5122            1 
   83900    1.9804797   -4.7498172    4901.5814       -1e+20 
   84000    2.0075053    -4.852415    4936.2441       -1e+20 
   84100    2.0051277   -4.8058146    4933.5994            1 
   84200    1.9955272   -4.7569577    4926.7216            1 
   84300    2.0228746   -4.8092038    4947.1941            1 
   84400    1.9796979    -4.814176    4911.1253            1 
   84500    2.0194681   -4.8464886    4890.3612            1 
   84600    1.9768043   -4.7576503    4936.1352            1 
   84700    2.0087853   -4.7770127    4913.2202            1 
   84800    1.9923943   -4.7980216    4958.1606       -1e+20 
   84900    2.0303175   -4.8035659    4942.7264            1 
   85000    2.0142986   -4.7515715    4879.2211            1 
   85100    1.9698712   -4.8135839    4932.6111            1 
   85200     2.020512   -4.8379853    4916.6416            1 
   85300    2.0055723   -4.7905075    4907.0796            1 
   85400    1.9819172   -4.8281894    4933.2852            1 
   85500    2.0532376   -4.8005011     4909.072            2 
   85600    1.9769464   -4.7687439    4941.0851            1 
   85700    2.0102644   -4.7658756    4952.2607            1 
   85800    2.0208052   -4.7987899    4906.3115            1 
   85900    1.9677814   -4.8231122    4922.5668            1 
   86000    2.0213753   -4.8207904    4914.5224            1 
   86100    1.9920717   -4.8195359    4891.4948            1 
   86200    1.9836932   -4.7705055    4948.0155            1 
   86300    2.0078835   -4.7562589    4926.2037            1 
   86400    1.9881252   -4.7730339    4921.0146            1 
   86500    1.9985967   -4.8430628    4910.8045            1 
   86600    2.0157878    -4.861797    4889.3683            1 
   86700    1.9934732    -4.781029    4954.8008            1 
   86800    2.0148173   -4.7545732    4929.5526            2 
   86900    1.9982156   -4.8051372    4928.6799            1 
   87000    1.9708622   -4.8205585    4922.0972            1 
   87100    2.0441015   -4.8280633    4894.2902            1 
   87200    1.9426427   -4.8052052    4937.9428       -1e+20 
   87300    2.0451172   -4.8278526    4907.1605            1 
   87400    2.0231623   -4.7946662    4953.7948            1 
   87500    2.0130447   -4.7818144    4987.2975            1 
   87600    2.0130127   -4.7830798    4917.7098            1 
   87700    2.0321327   -4.8227977    4935.0426            2 
   87800    1.9476731    -4.768869    4941.5236            1 
   87900    2.0568759   -4.8044044    4902.4986            1 
   88000     1.974723   -4.7917616     4940.772            1 
   88100    1.9848642   -4.7824555    4934.0664            1 
   88200    2.0533758   -4.7648384    4914.4201            1 
   88300    1.9877652   -4.8071973     4954.837            1 
   88400    2.0120761   -4.7987327    4910.9054       -1e+20 
   88500    2.0006991   -4.8240738    4895.1351       -1e+20 
   88600    1.9952008   -4.8262045    4933.5251            1 
   88700    2.0147339   -4.7744995    4936.5776            1 
   88800    1.9971109   -4.7646967    4917.9028            1 
   88900    2.0065743   -4.7829434     4942.502            1 
   89000    1.9863818   -4.7931959     4941.027            1 
   89100    1.9860719   -4.8045193    4889.4813            1 
   89200    1.9910923   -4.8093362    4920.7414            1 
   89300    1.9842069   -4.7840155    4943.5462            3 
   89400    2.0525034   -4.7429292    4916.7027       -1e+20 
   89500    1.9660749   -4.7720717    4931.7227            1 
   89600     2.039101   -4.8395617    4952.0392            1 
   89700    1.9716445   -4.7946182    4897.6253            1 
   89800    1.9745848   -4.7521291     4921.557            1 
   89900    1.9904803    -4.767495    4919.0238            1 
   90000    2.0290931   -4.8508937    4932.4654            1 
   90100    1.9775679   -4.7834817    4914.9402            2 
   90200    2.0102885   -4.7734078    4929.1903            1 
   90300    2.0210822   -4.8412494    4943.7894            1 
   90400    1.9754228   -4.8233003    4901.6089            1 
   90500     2.017562   -4.7760647    4911.8817            1 
   90600    1.9946656   -4.8106963    4926.7963            1 
   90700    1.9792272   -4.8424258     4907.382            2 
   90800    2.0349103   -4.8004572     4903.701            1 
   90900    2.0079727   -4.8240448     4927.893            2 
   91000    1.9562903   -4.8323011     4883.601            2 
   91100    1.9976068   -4.8244638    4924.7571            1 
   91200    2.0178386   -4.7902809    4912.2161            1 
   91300    1.9759811   -4.8130982    4912.7051            1 
   91400    2.0316372   -4.8304368    4908.0995            1 
   91500    1.9681224   -4.8311691    4892.7716            1 
   91600    2.0037268   -4.8348739    4922.8588            1 
   91700    2.0360262   -4.8159695    4931.8811            1 
   91800    1.9667449   -4.8147016    4898.3076            1 
   91900    2.0094106   -4.8493259    4897.5578            2 
   92000    2.0351783   -4.8202666    4920.4908            2 
   92100     1.979448   -4.7998226      4937.61            1 
   92200    2.0439452   -4.7759186    4899.3056            1 
   92300    1.9917438   -4.8209935    4914.1562            1 
   92400    1.9799939    -4.850317     4920.003            1 
   92500    2.0407021   -4.8230087    4885.0366            1 
   92600    1.9574557   -4.8021791    4939.0746            1 
   92700    2.0102591   -4.8016298    4932.6542            1 
   92800    2.0045585   -4.8013578    4892.0487            2 
   92900    1.9639705   -4.8416818     4902.396            1 
   93000    2.0087706    -4.841214    4888.8028            1 
   93100    1.9952282   -4.7873885    4912.3281            2 
   93200    1.9804058   -4.7849515    4920.4858            1 
   93300    2.0296054   -4.8014883    4909.8618            1 
   93400     1.992698   -4.7832007    4953.4905            1 
   93500    1.9984044   -4.8373278    4892.1307            1 
   93600    1.9779434   -4.8122491    4878.9704            1 
   93700    1.9779636   -4.7741442    4943.3273            1 
   93800    2.0429268   -4.8336148    4922.8834            1 
   93900    1.9985336   -4.8299582    4899.0211            1 
   94000    1.9857407   -4.8105396    4926.1293            1 
   94100    2.0052145   -4.8089016    4915.3029            2 
   94200    1.9918951   -4.7735622    4896.0669            1 
   94300     1.975675   -4.7975766     4935.303            3 
   94400    1.9778155   -4.7770431    4914.3867            1 
   94500    2.0569154     -4.79117     4911.266            1 
   94600     1.965098   -4.8037408    4947.6239            1 
   94700    2.0017617   -4.8382235    4896.9004            1 
   94800    1.9563002   -4.7682976    4879.5869       -1e+20 
   94900    1.9857008   -4.7704264    4925.3114       -1e+20 
   95000    1.9494202   -4.7771501    4921.8398            1 
   95100    1.9988477   -4.7630626     4895.837            1 
   95200    1.9850769    -4.793865    4934.2448       -1e+20 
   95300    2.0400878   -4.7549543    4945.6616            1 
   95400     1.981102   -4.7770107    4929.5791            1 
   95500    1.9871593   -4.8483907    4924.3251            1 
   95600    2.0068399   -4.8531531    4871.6273            1 
   95700    1.9778888   -4.7980277    4927.5511       -1e+20 
   95800    1.9996218   -4.7456304    4942.1095            1 
   95900    1.9944396   -4.7593514     4921.569            2 
   96000    1.9635726   -4.8019048    4913.6721            1 
   96100    2.0020963   -4.7751104     4917.549            1 
   96200    2.0277115   -4.7963053    4949.1463            1 
   96300    2.0008338    -4.746919    4941.9055            1 
   96400    2.0069083   -4.7848397    4904.5241       -1e+20 
   96500    1.9725022   -4.8271691    4905.4551       -1e+20 
   96600    2.0074808   -4.7894661    4918.4786            1 
   96700    2.0111484   -4.8084808    4901.7063            1 
   96800    1.9717757   -4.8790026    4906.1218            1 
   96900    2.0266743    -4.833669    4897.5056            1 
   97000    2.0033009    -4.807653    4958.7678            2 
   97100    1.9831939   -4.7439511    4934.5294       -1e+20 
   97200    2.0326731   -4.7830324    4915.1411            1 
   97300    1.9663157   -4.8133093    4937.3119            1 
   97400    2.0028036   -4.7824056    4915.0098            1 
   97500    2.0211689   -4.8138231    4910.9502            1 
   97600    1.9689186   -4.8280975    4909.1138            2 
   97700    2.0086401   -4.7935131    4927.5057            1 
   97800    2.0089561   -4.7911769     4914.748            1 
   97900    1.9494265   -4.8177421    4911.1555            1 
   98000    2.0089882   -4.8042314    4935.6273            1 
   98100    2.0582844   -4.7816043    4924.2815            1 
   98200    2.0007186   -4.8152619    4951.7549            1 
   98300    1.9681471   -4.7780368    4887.7424            1 
   98400    1.9940917   -4.7872731    4911.8145            1 
   98500    1.9861107   -4.7552345    4947.2015            1 
   98600    1.9979474    -4.787255     4913.342            1 
   98700    2.0109493    -4.801929    4917.8382            1 
   98800    1.9980223   -4.8279895    4931.9061            1 
   98900    2.0163318   -4.8373182    4889.0439            1 
   99000    1.9937114   -4.7670673     4952.664            1 
   99100    2.0011032   -4.7508501    4930.8598            1 
   99200    1.9911989   -4.8051671     4889.976       -1e+20 
   99300    1.9697104   -4.8352912    4910.7715            1 
   99400    1.9818231      -4.7653    4918.7641            1 
   99500    2.0465247    -4.818798    4925.4633            1 
   99600    1.9745965   -4.8360095    4916.6475            1 
   99700     2.017739   -4.8065905    4902.8027            1 
   99800    1.9934002   -4.7288889    4947.1137       -1e+20 
   99900     1.995506   -4.7649908    4925.4441            1 
  100000     1.976123   -4.7675295    4922.1446            1 
  100100    2.0569061   -4.7830362    4935.7263            1 
  100200    1.9860096   -4.8041042    4956.4034            1 
  100300    2.0140938   -4.8310879    4927.0993            1 
  100400    1.9886817    -4.809679    4870.7429            1 
  100500    2.0000513   -4.7955997    4933.6005            1 
  100600    2.0063383   -4.7813551    4958.8149            1 
  100700    2.0282406   -4.7993816    4885.7648            1 
  100800    2.0221807   -4.8508526    4922.2262            1 
  100900    1.9804297   -4.8138771    4926.7494            1 
  101000    2.0397323   -4.8366568    4894.1823       -1e+20 
  101100    1.9632542   -4.8033373    4922.9256            1 
  101200    2.0589259   -4.8482292    4892.6487            1 
  101300     1.930088   -4.8383528    4943.3879            1 
  101400    2.0444772   -4.8191188    4885.4901            1 
  101500    1.9737756   -4.7788762    4925.3731            2 
  101600    2.0060077   -4.8139563     4921.783            1 
  101700     1.996543   -4.7884378    4893.7572            1 
  101800    1.9840561   -4.7742565    4948.3222            1 
  101900    2.0002415   -4.7539071    4935.2823            1 
  102000    2.0141236   -4.7737684    4905.9604            1 
  102100    1.9523631   -4.8225387    4932.3162            1 
  102200    1.9951719   -4.7739266    4903.7602            1 
  102300    2.0330972   -4.7920349    4946.1653            1 
  102400    1.9996496   -4.7825918    4944.2175            1 
  102500    1.9968618   -4.7830469    4900.6314            1 
  102600    1.9894649   -4.7965459    4929.8171            1 
  102700    2.0142446   -4.8274909    4937.4327            1 
  102800    1.9980291   -4.7975432     4915.562            1 
  102900    2.0171714   -4.8062099    4913.5654            1 
  103000    1.9860334   -4.7761541    4934.5609            1 
  103100    2.0074247   -4.7639297    4938.2858            1 
  103200    1.9764088   -4.7372354    4947.2828       -1e+20 
  103300    2.0042472   -4.7589711    4899.0043            1 
  103400    1.9711055   -4.8242998    4926.3331       -1e+20 
  103500    2.0118006   -4.8568065    4894.6945            2 
  103600    2.0242036   -4.8396631    4897.0096            1 
  103700    1.9839194   -4.8151786    4917.0246            1 
  103800     1.981672   -4.7883245     4897.255            1 
  103900    1.9969436   -4.8168287    4892.3627            1 
  104000    2.0012361   -4.7873062    4944.1692            1 
Loop time of 159.831 on 24 procs for 100000 steps with 4000 atoms

Performance: 108114.286 tau/day, 625.661 timesteps/s
99.6% CPU use with 24 MPI tasks x no OpenMP threads

MPI task timing breakdown:
Section |  min time  |  avg time  |  max time  |%varavg| %total
---------------------------------------------------------------
Pair    | 17.218     | 17.592     | 18.381     |   6.4 | 11.01
Neigh   | 3.3899     | 3.4277     | 3.4792     |   1.3 |  2.14
Comm    | 9.0674     | 10.044     | 11.167     |  20.8 |  6.28
Output  | 4.8853     | 4.8861     | 4.8981     |   0.1 |  3.06
Modify  | 121.42     | 122.53     | 124.12     |   8.4 | 76.66
Other   |            | 1.353      |            |       |  0.85

Nlocal:        166.667 ave         176 max         158 min
Histogram: 3 1 2 3 2 3 6 2 1 1
Nghost:        1884.88 ave        1904 max        1869 min
Histogram: 1 3 2 3 5 2 6 1 0 1
Neighs:        15400.3 ave       16178 max       14268 min
Histogram: 2 0 1 2 5 2 1 5 1 5
FullNghs:      30803.2 ave       32350 max       28849 min
Histogram: 1 2 1 1 6 3 2 2 4 2

Total # of neighbors = 739278
Ave neighs/atom = 184.81950
Neighbor list builds = 8352
Dangerous builds = 310

#clear
#
#next RN
#
#jump SELF
Total wall time: 0:02:41
