
units lj                  # Use reduced LJ style units
atom_style atomic         # Uncharged point particles
atom_modify map hash      # Needed for indexing of clusters etc
                          # Used to be able to find where atoms are in relation to each other.

lattice fcc 1.0 spacing 1 1 1
Lattice spacing in x,y,z = 1.5874011 1.5874011 1.5874011
region box block 0 10 0 10 0 10 units lattice
create_box 2 box
Created orthogonal box = (0.0000000 0.0000000 0.0000000) to (15.874011 15.874011 15.874011)
  3 by 4 by 4 MPI processor grid
create_atoms 1 box
Created 4000 atoms
  using lattice units in orthogonal box = (0.0000000 0.0000000 0.0000000) to (15.874011 15.874011 15.874011)
  create_atoms CPU = 0.019 seconds
set type 1 type/fraction 2 0.81 78393
Setting atom values ...
  3229 settings made for type/fraction
mass 1 1.0
mass 2 1.0
pair_style lj/cut  3.5
pair_modify tail  yes
pair_coeff 1  1  1.0  1.0   # Intearaction between 1 and 1 set with epsilon = 1 and sigma = 1
pair_coeff 1  2  1.5  0.8
pair_coeff 2  2  0.5  0.88

write_data data.0
System init for write_data ...
Neighbor list info ...
  update every 1 steps, delay 10 steps, check yes
  max neighbors/atom: 2000, page size: 100000
  master list distance cutoff = 3.8
  ghost atom cutoff = 3.8
  binsize = 1.9, bins = 9 9 9
  1 neighbor lists, perpetual/occasional/extra = 1 0 0
  (1) pair lj/cut, perpetual
      attributes: half, newton on
      pair build: half/bin/atomonly/newton
      stencil: half/bin/3d
      bin: standard
WARNING: Not all mixed pair coeffs generated from mixing. Use write_data with 'pair ij' option to store all pair coeffs. (../write_data.cpp:312)


#############################
#   M E L T   S Y S T E M   #
#############################

velocity all create 2.4 6229865 mom yes dist gaussian # Assign velocities
                                                    # Temperature 2.4, random number seed, zero linear momentum
                                                                                # Gaussian distribution

timestep 0.002   # simulation timestep
thermo 1000       # output thermodynamic data every 1000 steps bf 100

# Define a fix  in this case with index 1 applied to all
# particles in the simulation. This fix is for simulations
# in the anisotropic NPT ensemble. Note that we use the MTK
# correction.
fix 1 all npt temp 2.4 2.4 0.1 iso 5.68 5.68 0.5 mtk yes tchain 5 pchain 5 # Use NPT ensemble
                                                                         # Set temperature and pressure and damping
                                                                         # Numbers of thermostats in chain and in barostat
run 10000          # run for 10000 steps
Per MPI rank memory allocation (min/avg/max) = 3.642 | 3.644 | 3.648 Mbytes
Step Temp E_pair E_mol TotEng Press Volume 
       0          2.4   -3.6458899            0 -0.046789881   -3.2123361         4000 
    1000    2.3816078   -2.9793486            0   0.59217002    5.7212159    3810.2468 
    2000    2.4095629   -3.0295672            0   0.58387353    5.5618887    3787.1194 
    3000    2.3510847   -2.9847904            0   0.54095499    5.4486673    3836.0086 
    4000    2.4718569   -3.0622039            0   0.64465455    5.7940489    3745.0083 
    5000    2.4242123   -2.9418838            0   0.69352556    6.0232112    3805.8365 
    6000    2.3452382   -2.9757949            0   0.54118294    5.5010155     3819.438 
    7000    2.4260922   -2.9449239            0    0.6933046    5.4526579    3866.2939 
    8000    2.4023056   -2.9921061            0   0.61045147    5.7243741    3799.7472 
    9000    2.3792738    -2.996478            0    0.5715405    5.6551885    3805.5423 
   10000    2.3550428   -2.9594493            0    0.5722318    5.6871187     3805.758 
Loop time of 2.73194 on 48 procs for 10000 steps with 4000 atoms

Performance: 632518.420 tau/day, 3660.408 timesteps/s
99.4% CPU use with 48 MPI tasks x no OpenMP threads

MPI task timing breakdown:
Section |  min time  |  avg time  |  max time  |%varavg| %total
---------------------------------------------------------------
Pair    | 1.1471     | 1.2018     | 1.2725     |   2.8 | 43.99
Neigh   | 0.20638    | 0.21757    | 0.22475    |   0.8 |  7.96
Comm    | 0.79792    | 0.89645    | 0.96788    |   4.6 | 32.81
Output  | 0.00024704 | 0.00025538 | 0.00040542 |   0.0 |  0.01
Modify  | 0.34698    | 0.40064    | 0.46868    |   5.4 | 14.67
Other   |            | 0.01517    |            |       |  0.56

Nlocal:        83.3333 ave          97 max          68 min
Histogram: 1 1 3 7 5 15 11 4 0 1
Nghost:        1698.52 ave        1723 max        1677 min
Histogram: 1 5 5 11 4 6 10 3 0 3
Neighs:        10029.2 ave       12223 max        8358 min
Histogram: 3 3 6 8 9 11 6 1 0 1

Total # of neighbors = 481400
Ave neighs/atom = 120.35000
Neighbor list builds = 904
Dangerous builds = 206

# Equilibrate just above the melting temperature to avoid step fn in T

fix 1 all npt temp 1.25 1.25 0.1 iso 5.68 5.68 0.5 mtk yes tchain 5 pchain 5
run 2000
Per MPI rank memory allocation (min/avg/max) = 3.643 | 3.645 | 3.649 Mbytes
Step Temp E_pair E_mol TotEng Press Volume 
   10000    2.3550428   -2.9594493            0    0.5722318    5.6871187     3805.758 
   11000    1.2684697   -4.4050722            0   -2.5028433    5.8225029    2922.1288 
   12000     1.271225   -4.3854948            0   -2.4791341    5.8626984    2927.7803 
Loop time of 0.626091 on 48 procs for 2000 steps with 4000 atoms

Performance: 551996.603 tau/day, 3194.425 timesteps/s
99.7% CPU use with 48 MPI tasks x no OpenMP threads

MPI task timing breakdown:
Section |  min time  |  avg time  |  max time  |%varavg| %total
---------------------------------------------------------------
Pair    | 0.27834    | 0.30541    | 0.33414    |   2.4 | 48.78
Neigh   | 0.039853   | 0.042437   | 0.045993   |   0.6 |  6.78
Comm    | 0.20016    | 0.23192    | 0.26203    |   3.0 | 37.04
Output  | 4.9263e-05 | 5.2643e-05 | 0.00015173 |   0.0 |  0.01
Modify  | 0.038609   | 0.041536   | 0.044123   |   0.7 |  6.63
Other   |            | 0.004741   |            |       |  0.76

Nlocal:        83.3333 ave          93 max          77 min
Histogram: 5 6 4 12 3 9 5 1 1 2
Nghost:        2025.79 ave        2059 max        1993 min
Histogram: 1 2 3 6 11 13 7 3 1 1
Neighs:        13035.0 ave       15288 max       11389 min
Histogram: 3 2 6 9 13 9 4 0 0 2

Total # of neighbors = 625678
Ave neighs/atom = 156.41950
Neighbor list builds = 143
Dangerous builds = 9

#############################
# L I N E A R  Q U E N C H  #
#############################

# Define solid atoms. This closely follows ten Wolde  Ruiz-Montero and Frenkel  Faraday Discuss  1996  104  93-110
# Compute components of the per-atom q6 vector
compute q6 all orientorder/atom degrees 1 6 components 6 nnn NULL cutoff 1.3 # compute the Q6 parameter.
                                                                             # Use all neighbours within 1.3 unit cell.

# get number of connections
compute coord_number all coord/atom orientorder q6 0.5

# An atom is solid if it has 8 or more connections (of a possible 14)
variable is_solid atom c_coord_number>=8
group solid dynamic all var is_solid    # Must be dynamic to update
dynamic group solid defined

# do clustering
compute cluster solid cluster/atom 1.3 # Create a cluster where all atoms within are solid and max 1.3 units from another member

# define chunks one chunk per cluster
compute clus_chunks solid chunk/atom c_cluster nchunk every compress yes  # Says which atoms are in which chunk

# count the size of each chunk
compute size_chunks solid property/chunk clus_chunks count


# Find the maximum entry in the vector of chunk sizes
variable max_n equal max(c_size_chunks)


# Thermo style which includes this variable
# thermo_style custom step temp pe vol v_max_n

thermo ${N}  # Print the thermo information every 100 steps
thermo 1000  

# Reset the npt fix at a lower temperature (below freezing)
fix 1  all npt temp  ${temp} ${temp}  0.1  iso  5.68  5.68  0.5  mtk yes tchain  5  pchain  5
fix 1  all npt temp  0.45 ${temp}  0.1  iso  5.68  5.68  0.5  mtk yes tchain  5  pchain  5
fix 1  all npt temp  0.45 0.45  0.1  iso  5.68  5.68  0.5  mtk yes tchain  5  pchain  5

dump dmp2 all dcd ${N} traj.dcd
dump dmp2 all dcd 1000 traj.dcd


compute msd all msd com yes
variable twopoint equal c_msd[4]/6/(step*dt+1.0e-6)
fix 9 all vector 10 c_msd[4]
variable fit equal slope(f_9)/6/(10*dt)
thermo_style custom step temp pe c_msd[4] v_twopoint v_fit v_max_n

fix 1 all npt temp 1.25 ${temp} 0.1 iso 5.68 5.68 0.5 mtk yes tchain 5 pchain 5
fix 1 all npt temp 1.25 0.45 0.1 iso 5.68 5.68 0.5 mtk yes tchain 5 pchain 5
run 2000000 # 5000000  # Run for this many steps
Neighbor list info ...
  update every 1 steps, delay 10 steps, check yes
  max neighbors/atom: 2000, page size: 100000
  master list distance cutoff = 3.8
  ghost atom cutoff = 3.8
  binsize = 1.9, bins = 8 8 8
  4 neighbor lists, perpetual/occasional/extra = 1 3 0
  (1) pair lj/cut, perpetual
      attributes: half, newton on
      pair build: half/bin/atomonly/newton
      stencil: half/bin/3d
      bin: standard
  (2) compute orientorder/atom, occasional
      attributes: full, newton on
      pair build: full/bin/atomonly
      stencil: full/bin/3d
      bin: standard
  (3) compute coord/atom, occasional
      attributes: full, newton on
      pair build: full/bin/atomonly
      stencil: full/bin/3d
      bin: standard
  (4) compute cluster/atom, occasional
      attributes: full, newton on
      pair build: full/bin/atomonly
      stencil: full/bin/3d
      bin: standard
Per MPI rank memory allocation (min/avg/max) = 9.835 | 9.839 | 9.846 Mbytes
Step Temp PotEng c_msd[4] v_twopoint v_fit v_max_n 
   12000     1.271225   -4.3854948 4.2923894e-30 2.9808258e-32 8.3333333e+20            1 
   13000    1.2581273   -4.4113031   0.80303539 0.0051476626  0.067369363            3 
   14000    1.2495314   -4.4182179    1.6475952 0.0098071139  0.068797747            3 
   15000     1.233858     -4.41804     2.501638  0.013897988  0.069708073            3 
   16000    1.2745861   -4.4143806    3.4293422  0.017861157  0.071366939            2 
   17000    1.2784006   -4.4265225     4.165513  0.020419181  0.071113933            2 
   18000    1.2262388   -4.3922703    4.9532082  0.022931519  0.070066061            3 
   19000    1.2270665   -4.4095253    5.8324864   0.02558108  0.069364526            2 
   20000     1.262339   -4.3986737    6.7107642  0.027961517  0.069646447            2 
   21000    1.2522684    -4.441716    7.4868285  0.029709636  0.069792058            4 
   22000    1.2479438   -4.4357579     8.374643  0.031722132  0.069716243            1 
   23000    1.2550154   -4.4457675    9.1573691  0.033178873  0.069778549            3 
   24000    1.2590993   -4.4623918    10.031625  0.034832029  0.069713693            1 
   25000    1.2517668   -4.4337323    10.905396   0.03635132  0.069867539            1 
   26000    1.2478781   -4.4266181    11.634013  0.037288501  0.069794015            1 
   27000    1.2437662   -4.4328836    12.410902  0.038305253  0.069593819            3 
   28000    1.2079525   -4.4611453    13.118853  0.039044204  0.069245907            3 
   29000    1.2286386   -4.4337667    13.985611  0.040188536  0.068962522            2 
   30000    1.2403819   -4.4000901    14.757364  0.040992678  0.068698064            2 
   31000    1.2547831   -4.4135927    15.597717  0.041929345  0.068503761            1 
   32000    1.2509589    -4.400636    16.511565  0.042998867  0.068385315            2 
   33000    1.2503818   -4.4431621    17.276335  0.043627108  0.068315611            3 
   34000    1.2521107   -4.4395888    18.115519  0.044400782  0.068323311            2 
   35000    1.2462272   -4.3781421    18.977329  0.045184117  0.068319581            1 
   36000    1.2475966   -4.4535995     19.68093  0.045557707  0.068265341            1 
   37000    1.2233021   -4.4209821    20.601736  0.046400306  0.068245016            2 
   38000    1.2199875   -4.4405133    21.518561  0.047189826   0.06829451            1 
   39000    1.2384519   -4.4262578    22.283077  0.047613411  0.068334076            2 
   40000    1.2407557   -4.4253086    22.874133  0.047654443  0.068316165            1 
   41000    1.2376525   -4.4365733    23.684533  0.048139294  0.068246709            2 
   42000    1.2039879   -4.3855862    24.460688  0.048533111  0.068164613            4 
   43000    1.2676583   -4.4215746    25.242564  0.048919697  0.068088558            3 
   44000    1.2343535   -4.4620938    25.974943  0.049194967  0.067981036            4 
   45000    1.2415215   -4.4400709    26.518434  0.049108211  0.067841681            4 
   46000    1.2364264    -4.464282    27.299857  0.049456263  0.067680188            2 
   47000    1.2582307   -4.4225037    28.163017  0.049934427  0.067511686            2 
   48000    1.2499196    -4.454575    28.867925  0.050117925  0.067342391            1 
   49000     1.233492    -4.442238    29.832237  0.050735097  0.067216896            2 
   50000    1.2246444   -4.4590901    30.496835  0.050828058  0.067093169            2 
   51000    1.2465328   -4.3771393    31.251429  0.051064426  0.066975219            3 
   52000    1.2420885   -4.4383695    32.056517  0.051372623  0.066869942            2 
   53000    1.2410346   -4.4417698    33.008008  0.051899383  0.066781735            2 
   54000    1.2403907    -4.432432    33.839967  0.052222171   0.06672605            2 
   55000    1.2362574   -4.4609898    34.715035  0.052598538  0.066714256            1 
   56000    1.2078929   -4.4449279    35.402224   0.05268188  0.066717211            2 
   57000    1.2333262   -4.4432997    36.647158  0.053577716  0.066744195            2 
   58000    1.2299815   -4.4340088    37.637273  0.054076541  0.066821683            3 
   59000    1.2272873   -4.4638976    38.524354  0.054412929  0.066937534            2 
   60000    1.2188428   -4.4841616    39.407617  0.054732801  0.067058613            3 
   61000    1.2354375   -4.4625791    40.299237  0.055053602  0.067184022            1 
   62000     1.194543   -4.4430265    41.504694  0.055785878  0.067342646            2 
   63000    1.2301361   -4.4416084    42.391303  0.056073152  0.067518637            2 
   64000    1.2315964   -4.4492628    43.005925  0.055997298   0.06767344            4 
   65000        1.265   -4.4673048    43.895542  0.056276336  0.067799794            2 
   66000    1.2437068   -4.4107062    45.095886  0.056939249   0.06794007            2 
   67000    1.2320277   -4.4584812    45.418893  0.056491161   0.06807253            2 
   68000    1.2347238   -4.4816214    46.351682  0.056803531  0.068173274            1 
   69000     1.208303   -4.4676782      47.0358  0.056806521   0.06826254            2 
   70000    1.2339978   -4.4273877    48.085709  0.057244892  0.068334881            2 
   71000    1.2371808   -4.4884363    48.987662  0.057497255   0.06841547            2 
   72000    1.2244402   -4.4570521    50.181857  0.058080853   0.06852408            3 
   73000    1.2426278   -4.4396927    51.230446  0.058482244   0.06864739            1 
   74000    1.2069423   -4.4722431    51.813194  0.058348191  0.068769498            2 
   75000    1.2452142    -4.467595    52.860145  0.058733494  0.068904494            1 
   76000    1.2075759   -4.4165415    54.570246  0.059835796  0.069041311            4 
   77000    1.2241964   -4.4971426    54.741965   0.05924455  0.069163269            5 
   78000    1.2163207     -4.45524    55.697538  0.059505917  0.069276619            2 
   79000    1.2163942   -4.4394143    55.952332  0.059021447  0.069379673            1 
   80000    1.2422433    -4.423738    57.027285  0.059403421  0.069439462            2 
   81000    1.2337767   -4.4446229     57.31103  0.058961964   0.06948475            2 
   82000    1.1994158   -4.4603884    58.113854  0.059058795  0.069508388            2 
   83000    1.2487413   -4.5098166    58.619279  0.058854697  0.069509517            4 
   84000    1.2062126    -4.460898    59.468692  0.058996718   0.06948678            2 
   85000    1.2163862   -4.4634252    60.076249  0.058898283  0.069460319            1 
   86000    1.2165506   -4.4295614    61.049328  0.059156325  0.069437251            2 
   87000    1.2179324    -4.436444     61.62393  0.059026753  0.069405896            1 
   88000    1.2330962   -4.4534902    62.866156  0.059532344  0.069377748            2 
   89000    1.2153327    -4.454912    63.606848  0.059556974  0.069349442            3 
   90000    1.2272496   -4.4734529    64.692492  0.059900455  0.069338814            3 
   91000    1.2007541   -4.4381182    65.542201   0.06002033  0.069325876            4 
   92000    1.1941973   -4.4607399    66.123583  0.059894549  0.069314584            2 
   93000    1.1970425   -4.4610051    67.632308  0.060602426  0.069306315            2 
   94000    1.2290871   -4.4702028    68.114548  0.060385238  0.069320085            3 
   95000    1.2150585   -4.4707256    68.954125  0.060486074  0.069320062            2 
   96000    1.2043966   -4.4788803     69.71327  0.060514991  0.069329206            2 
   97000    1.2068157   -4.4658735    70.612626  0.060663767   0.06933143            2 
   98000    1.2055137    -4.416395    71.408943   0.06072189  0.069350053            3 
   99000    1.1887162   -4.4770112    72.349342   0.06090012  0.069368695            2 
  100000    1.2344086   -4.4140972    73.471041  0.061225867  0.069385759            3 
  101000    1.2049912    -4.423966    74.465874   0.06144049  0.069409066            1 
  102000    1.2043065   -4.4325766     75.08217  0.061341642  0.069422111            2 
  103000    1.2179411   -4.4315683    75.993592  0.061483488  0.069448148            3 
  104000    1.1917525   -4.4092249    76.704601   0.06146202  0.069463579            1 
  105000    1.2142805   -4.4459168     77.75658  0.061711571  0.069471063            3 
  106000    1.2326386   -4.4889545    77.652672  0.061047698  0.069475129            2 
  107000    1.2440543   -4.5020541      78.3044  0.060984735  0.069458625            2 
  108000    1.2230802   -4.4492377    78.978894  0.060940504  0.069425108            2 
  109000    1.2136841   -4.4808297    79.808718   0.06101584  0.069391453            1 
  110000     1.189633   -4.4788646    80.148048  0.060718218  0.069345339            4 
  111000    1.2036125   -4.4725775    81.125671  0.060905158  0.069293961            2 
  112000    1.2014206   -4.4652044    81.751131  0.060826734  0.069228342            2 
  113000    1.1905237   -4.4381001    82.337539  0.060720899  0.069161781            4 
  114000    1.2071676   -4.4462657    83.571772  0.061090476  0.069101706            4 
  115000    1.1961125   -4.4518553    84.108212  0.060947979  0.069041711            5 
  116000    1.2209542   -4.5052266    84.352992  0.060598413   0.06897849            5 
  117000    1.2060656   -4.5009683    85.538639  0.060924957  0.068919604            2 
  118000    1.2183949   -4.4584823    86.414574  0.061027241  0.068875096            1 
  119000    1.2114363   -4.4681431    87.117081  0.061006359  0.068820814            1 
  120000    1.1934943   -4.4440688    88.329398   0.06133986  0.068770789            3 
  121000    1.2060455   -4.5002867    88.315544  0.060823377  0.068720511            2 
  122000    1.2172437   -4.4957144    89.148786  0.060893979  0.068663463            3 
  123000    1.1865154   -4.5182544    89.755828  0.060810181  0.068607527            2 
  124000    1.2137919   -4.5237744     90.91564   0.06109922  0.068554784            2 
  125000    1.1978833   -4.4980743    91.637436  0.061091624  0.068510094            2 
  126000    1.1884707   -4.5066025    92.070513  0.060893196  0.068463204            2 
  127000    1.2155391   -4.5011442    93.182531  0.061143393  0.068413544            3 
  128000    1.1880862   -4.4792937    94.082674  0.061251741  0.068365439            1 
  129000    1.2137679   -4.4496451    95.128106  0.061452265  0.068321957            5 
  130000    1.1864634   -4.5181782     94.87479  0.060817173  0.068268783            1 
  131000    1.2065962    -4.516688    95.240136  0.060585328  0.068204398            3 
  132000    1.2072841   -4.4914911    96.671752  0.061030146  0.068146615            2 
  133000    1.2302826   -4.4992333    97.663254  0.061192515  0.068095616            2 
  134000    1.1968722   -4.5042598    98.412177  0.061201602  0.068043905            2 
  135000    1.2102986   -4.4805877    98.978822  0.061098038  0.067991671            2 
  136000    1.1980288   -4.4524494     100.2088  0.061402449  0.067942767            3 
  137000    1.2227872   -4.4821693    100.94795   0.06140386  0.067897929            1 
  138000    1.2187824   -4.4525477    102.30652  0.061779301  0.067856139            2 
  139000    1.2045032   -4.4982858    102.06384  0.061189352  0.067814799            1 
  140000    1.2022838   -4.4484797    103.20777  0.061433197  0.067768222            1 
  141000    1.1987693   -4.4909098    103.80714   0.06135174  0.067723577            3 
  142000    1.2111939   -4.5245862    104.73753  0.061465685  0.067676624            4 
  143000    1.1863091   -4.5068129    105.58091  0.061527336  0.067636869            2 
  144000    1.1929545   -4.5069928    106.46575  0.061612125  0.067599013            2 
  145000     1.189155   -4.5074946    107.23898  0.061631597  0.067561505            1 
  146000    1.1847306    -4.513299    107.89325  0.061582905  0.067533846            4 
  147000    1.1689091   -4.5210565    108.77021  0.061661118  0.067500122            2 
  148000    1.1927697   -4.5000649     109.3147  0.061551071  0.067468137            1 
  149000      1.19243   -4.4755616    110.44214  0.061768536  0.067436447            1 
  150000     1.232043   -4.5045975     110.4111  0.061339499  0.067399653            1 
  151000     1.217921   -4.5141079     111.5938  0.061585984  0.067364352            4 
  152000    1.1925893   -4.5003074    112.34528  0.061592806  0.067332796            3 
  153000    1.1804568   -4.4849649    113.05231  0.061575331  0.067301023            2 
  154000    1.1738871    -4.505696    113.95104  0.061661816   0.06726456            3 
  155000    1.1910639    -4.480592    114.46047  0.061537886  0.067228491            2 
  156000    1.2070303    -4.509644     115.5394  0.061719767  0.067192387            1 
  157000    1.1719963   -4.5134658    116.18078  0.061667082  0.067150708            2 
  158000    1.2043186   -4.4828138    117.00225  0.061710049  0.067112766            3 
  159000    1.2079847   -4.4990594    117.28503  0.061470143  0.067071989            4 
  160000    1.2065341   -4.4967437    118.37718  0.061654779  0.067030661            2 
  161000    1.1695319   -4.4977651    119.59197  0.061900606  0.066998101            2 
  162000    1.1892593   -4.4840434    120.30778  0.061886719  0.066962153            6 
  163000    1.1880299   -4.4994946    121.05709  0.061890129  0.066931642            1 
  164000    1.1882184   -4.5185324      121.564  0.061770324  0.066897764            1 
  165000    1.1815996   -4.5754036    121.05194  0.061137344  0.066856543            2 
  166000    1.2058469   -4.4935552    122.42585  0.061458761  0.066813888            2 
  167000    1.1937005   -4.5243915    123.15137  0.061452781  0.066766825            3 
  168000    1.2286727   -4.4815079    123.80128  0.061409362  0.066724274            3 
  169000    1.1836781   -4.5341467    124.44397  0.061362906  0.066674663            3 
  170000    1.2037357   -4.5396337    124.59968  0.061078275  0.066626306            2 
  171000     1.192635   -4.4952003    125.84695  0.061328923  0.066571818            3 
  172000    1.1922298   -4.4887404    126.17686  0.061132198   0.06651562            2 
  173000    1.1909861   -4.5037413    126.78878  0.061073593  0.066453823            3 
  174000    1.1705018    -4.518368    127.01508  0.060830976  0.066394933            6 
  175000    1.1859837   -4.5219039    128.01151  0.060957864  0.066332038            2 
  176000    1.1443178   -4.5038293    129.06394  0.061109819  0.066273282            6 
  177000    1.1811343   -4.5356425    129.02027  0.060744008  0.066217427            5 
  178000    1.1475776   -4.5321487    130.03259  0.060876681  0.066160269            3 
  179000    1.1884258   -4.5390327    130.58432  0.060793443  0.066099195            3 
  180000    1.1939041    -4.523503    131.36333  0.060816356  0.066037751            2 
  181000    1.1674434   -4.4839017    132.33328  0.060926925  0.065982312            4 
  182000     1.176841   -4.5302017    132.94141  0.060870609   0.06592811            1 
  183000    1.1924575   -4.5140326    133.37658  0.060736147  0.065870467            2 
  184000    1.1786918   -4.5243458    134.04526  0.060708905  0.065815346            1 
  185000    1.1672361   -4.5267198    134.67518  0.060664496  0.065760771            3 
  186000    1.1820172   -4.5142765    135.02699  0.060495963  0.065698886            4 
  187000    1.2053274   -4.4817306    135.87805  0.060551716  0.065641836            1 
  188000     1.151113   -4.5371121    136.59396  0.060546966  0.065581918            2 
  189000     1.174188   -4.5195905    137.94553  0.060822545  0.065523488            6 
  190000    1.1938593   -4.5389537    137.96352  0.060510315  0.065469286            2 
  191000    1.1842141   -4.5305015    139.28242  0.060768942  0.065414557            1 
  192000    1.1267431   -4.5350267    139.99316   0.06076092  0.065362277            3 
  193000    1.1744641   -4.5380567    140.49985  0.060664876  0.065306434            4 
  194000     1.141413   -4.5400194    141.15507  0.060633619  0.065252437            1 
  195000      1.19717   -4.5379818    141.55416  0.060493231  0.065200065            4 
  196000    1.1833315   -4.5422575    142.68169  0.060663985   0.06514963            1 
  197000    1.1714008   -4.5386501    143.79003  0.060824886  0.065103145            3 
  198000    1.1812157   -4.5330516    144.30806  0.060735716  0.065056914            2 
  199000    1.1720665   -4.5441465    144.85386  0.060659072  0.065010105            2 
  200000    1.1611883   -4.5450781     144.5855  0.060243958  0.064958162            1 
  201000    1.1677613   -4.5202273     145.6061  0.060367373  0.064905094            3 
  202000    1.1849473   -4.5519408    145.20895  0.059904682  0.064845055            2 
  203000    1.1705678   -4.5603049     146.1796  0.060008044  0.064782532            7 
  204000    1.1914139   -4.4821681    147.50116  0.060253743  0.064723776            2 
  205000    1.1648841   -4.5456814    148.54472   0.06038403  0.064666484            1 
  206000    1.1675182   -4.5305044    148.80722  0.060197095  0.064611941            1 
  207000    1.1821538   -4.5237639    149.51012   0.06018926  0.064549865            1 
  208000    1.1623341   -4.5187765    149.65375  0.059957433  0.064490372            3 
  209000    1.1638526   -4.5305607    150.64677  0.060066495   0.06443078            2 
  210000    1.1560127   -4.5772733    151.05571   0.05994274  0.064372867            1 
  211000     1.149643   -4.5052595    152.56728   0.06025564  0.064316228            4 
  212000    1.1431167   -4.5337164    153.12453  0.060190459  0.064259323            3 
  213000    1.1460746   -4.5472705     153.4495  0.060035017  0.064204485            2 
  214000    1.1358218   -4.5569326    154.73467  0.060254935  0.064150569            3 
  215000    1.1548465   -4.5629601     154.6351  0.059936086  0.064097667            1 
  216000    1.1671288   -4.5303567    155.46821  0.059980018  0.064043517            1 
  217000    1.1565536     -4.52146    156.26251  0.060008645  0.063990017            3 
  218000    1.1257306   -4.5541765    156.16758  0.059697085  0.063934959            2 
  219000    1.1884664   -4.5652311    156.64638   0.05960669  0.063877694            1 
  220000    1.1683164   -4.5684653    158.07621   0.05987735   0.06382249            2 
  221000    1.1595508   -4.5615138    157.95009  0.059558857  0.063764311            6 
  222000    1.1723969   -4.5325368    159.17154  0.059749077   0.06370901            2 
  223000    1.1603111   -4.5143582    159.61874  0.059648258  0.063659182            4 
  224000    1.1812352   -4.5573192    160.29815  0.059634727  0.063606823            3 
  225000    1.1582821   -4.5301678    161.21861  0.059710597  0.063550098            3 
  226000    1.1714144   -4.5600106    161.51699  0.059556412  0.063496382            3 
  227000    1.1629214    -4.548868    162.28856  0.059577299  0.063445025            2 
  228000    1.1768475   -4.5714975     162.9421  0.059554859  0.063394851            4 
  229000    1.1568691   -4.5432486    163.78533   0.05960165  0.063345412            3 
  230000    1.1592891   -4.5483622    165.17813  0.059847148  0.063298661            3 
  231000    1.1553674   -4.5161655     165.6922  0.059773519  0.063253066            2 
  232000    1.1453489   -4.5586903    165.98319  0.059620399  0.063208705            1 
  233000    1.1578531   -4.5895244    165.92628  0.059344162  0.063163588            1 
  234000      1.14877   -4.5404745     167.6255  0.059695689  0.063116275            4 
  235000    1.1629999   -4.5506081    168.51039  0.059755458  0.063071103            2 
  236000    1.1457676   -4.5616443    168.80155  0.059605065  0.063029517            1 
  237000    1.1674303   -4.5450664    169.67194  0.059659613  0.062986305            4 
  238000    1.1855245    -4.569812    170.04269  0.059538758  0.062943966            2 
  239000    1.1579389    -4.554369    171.01381  0.059628244  0.062902146            4 
  240000    1.1718437   -4.5628614    170.66009  0.059256977  0.062856936            1 
  241000    1.1628729   -4.5731698    171.18835  0.059193758  0.062812707            2 
  242000    1.1618695   -4.5257859    173.53347  0.059756706   0.06276856            2 
  243000    1.1537363   -4.5828084    173.71819  0.059574138  0.062727435            3 
  244000    1.1418957   -4.5678731    174.91856  0.059739946  0.062690074            2 
  245000    1.1606463   -4.5858083    175.17009  0.059581664  0.062651805            1 
  246000    1.1584467   -4.5496068     175.7027  0.059519883  0.062609613            2 
  247000     1.172187   -4.5948995    175.88839  0.059341562  0.062566549            1 
  248000    1.1525043   -4.5551955    176.40292  0.059275174  0.062526507            3 
  249000    1.1433286   -4.5741435    177.56915  0.059427425  0.062486204            3 
  250000    1.1747291   -4.6002612    178.01117  0.059337058   0.06244492            3 
  251000    1.1535507   -4.5945187    178.26512  0.059184965   0.06240182            2 
  252000    1.1471576     -4.58178    179.21913  0.059265585  0.062360838            2 
  253000    1.1629971   -4.5702526    180.35669  0.059406023   0.06232015            3 
  254000      1.16753   -4.5999504    180.62813  0.059261198  0.062278876            2 
  255000    1.1320595    -4.568351    180.94322   0.05913177  0.062235457            2 
  256000    1.1595273   -4.5675892    181.08955  0.058948421  0.062191467            1 
  257000    1.1551932   -4.6109103    182.49571  0.059175002  0.062150423            1 
  258000    1.1513358   -4.6172856    183.10295  0.059141779  0.062108831            3 
  259000    1.1500731   -4.6099739    183.09007  0.058909288   0.06206821            4 
  260000    1.1194006    -4.597091    184.13519  0.059017689  0.062027479            1 
  261000    1.1468291   -4.5497366    185.16903  0.059121656  0.061988774            8 
  262000    1.1562445   -4.5938463    186.99536  0.059476895  0.061952951            2 
  263000    1.1302111   -4.5987447    186.16438  0.058987446  0.061915675            5 
  264000    1.1985614   -4.5590298     187.3206  0.059128978  0.061880497            4 
  265000    1.1360101   -4.5689056    188.14513  0.059165136   0.06184409            2 
  266000     1.133096   -4.5978714    189.10765  0.059244251  0.061810479            4 
  267000    1.1249229   -4.5890174    189.52923  0.059153943  0.061781677            3 
  268000    1.1440886   -4.6103422    191.33416  0.059494454  0.061752557            2 
  269000    1.1617201   -4.6038118    191.59721  0.059354775  0.061723849            4 
  270000    1.1710485   -4.5865523    192.38919  0.059379381   0.06169416            2 
  271000    1.1358951   -4.6093948    192.28061   0.05912688  0.061665209            1 
  272000    1.1462024   -4.5505983    194.87249  0.059703582   0.06164043            2 
  273000    1.1835326   -4.5884648    195.91564  0.059803307  0.061618849            5 
  274000    1.1632737   -4.5803778    196.61858  0.059798838  0.061598094            3 
  275000     1.166911    -4.582877    197.81138  0.059942841  0.061580137            3 
  276000    1.1558473   -4.5358974     198.5024  0.059934299  0.061564466            3 
  277000    1.1466536   -4.5734168    197.87356  0.059528748  0.061546416            6 
  278000    1.1418631   -4.5807298    199.81918  0.059897835  0.061528176            1 
  279000    1.1186422   -4.6281495    198.69018  0.059345933  0.061509219            2 
  280000     1.144148   -4.5937909    200.79883  0.059761557  0.061488504            2 
  281000    1.1386357   -4.6429869    200.17218  0.059363042  0.061467971            3 
  282000    1.1483926   -4.5594158    202.80235  0.059929773  0.061447631            2 
  283000    1.1491964   -4.6021694    202.45339  0.059615252  0.061431028            3 
  284000    1.1422987    -4.566139    204.16745  0.059908289  0.061414734            4 
  285000    1.1480472   -4.5976832     203.8933  0.059617924  0.061394996            2 
  286000    1.1346876   -4.5850864    205.16507  0.059780033  0.061378121            4 
  287000    1.1346708   -4.5893134    205.17808  0.059575516  0.061359747            4 
  288000    1.1643053   -4.6136332    206.35359  0.059708794  0.061341528            3 
  289000    1.1301308   -4.5999611    206.55278  0.059559625  0.061326167            3 
  290000     1.109387   -4.6025465     206.2633  0.059271063  0.061307057            3 
  291000    1.1330831   -4.5911292    207.52759  0.059429436  0.061288466            3 
  292000    1.1393332   -4.6139286    208.70581  0.059562161  0.061267286            2 
  293000    1.1411284   -4.6507882    207.80414   0.05910243  0.061247843            1 
  294000    1.1249094   -4.6160273    209.42044  0.059359534  0.061228623            4 
  295000    1.1566367   -4.6102907    209.67572  0.059230431  0.061209792            1 
  296000    1.1274917    -4.600918    210.76996  0.059338391  0.061189789           10 
  297000    1.1603768   -4.6075959    211.70642  0.059401353  0.061171217            2 
  298000    1.1267065   -4.5903489    212.91437  0.059539813  0.061152844            5 
  299000    1.1442897   -4.6280555    213.43541  0.059485901  0.061133847            1 
  300000    1.1141286   -4.5954721    214.05991  0.059461086  0.061115305            6 
  301000     1.142774   -4.5659377    215.22072  0.059584918  0.061098852            1 
  302000    1.1588508   -4.5969523    215.81885  0.059552663  0.061083466            1 
  303000    1.1337643   -4.6203622    216.45616  0.059531397  0.061066939            4 
  304000    1.1455218   -4.6243836    216.17744  0.059259168  0.061052026            1 
  305000    1.1229149    -4.619477    217.80594  0.059509818  0.061035447            3 
  306000     1.134783   -4.6372239    217.34371  0.059189462  0.061018672            3 
  307000     1.145039   -4.5504836    220.09467  0.059743397  0.061000087            2 
  308000    1.1320438   -4.6278655     219.3767  0.059355167  0.060984877            4 
  309000    1.1121912   -4.6016609     219.6157  0.059227536  0.060969768            4 
  310000    1.1038264   -4.6185288    220.61236  0.059304398  0.060951279            3 
  311000    1.1333946   -4.5837232    221.66233  0.059395052  0.060933748            6 
  312000    1.1238743   -4.6174824    221.45449  0.059149169  0.060916584            5 
  313000    1.1135523   -4.5867916    222.78997  0.059315754   0.06089673            3 
  314000    1.1283655   -4.6016541    222.20907  0.058972683  0.060876087            3 
  315000     1.117506   -4.6199121    223.80234  0.059206968  0.060855929            2 
  316000    1.1018253   -4.6138447    224.61614  0.059234213  0.060835443            3 
  317000    1.1523453   -4.6212531    225.08872  0.059171586  0.060815221            2 
  318000    1.1075559   -4.6265273    225.11778  0.058993129  0.060794501            2 
  319000    1.1454397   -4.6491312    226.06562  0.059055804   0.06077602            2 
  320000     1.146675   -4.6455268    226.57346  0.059003504  0.060757293            2 
  321000    1.1173921   -4.6199149    228.38068  0.059288858  0.060738301            5 
  322000    1.1427743   -4.6447372    228.33691  0.059093402  0.060720291            5 
  323000    1.1394156   -4.6060898    229.38238  0.059180181   0.06070182            3 
  324000    1.1239151   -4.6070214    230.44857  0.059271752  0.060683064            2 
  325000    1.1191429   -4.6704893    229.78852  0.058920134  0.060662105            1 
  326000    1.1367059   -4.6513574    230.41309  0.058899051  0.060640676            2 
  327000    1.1433725   -4.6149718    231.07649  0.058887996  0.060618434            2 
  328000     1.112648   -4.6382598    231.64525  0.058852959  0.060597936            2 
  329000    1.1382849   -4.6400121    232.20914  0.058816904  0.060576986            2 
  330000    1.1128037    -4.651032    233.47454  0.058958216  0.060556516            1 
  331000    1.1109534   -4.6491474    232.58741   0.05855675  0.060534443            3 
  332000    1.1161783    -4.660181    233.51033  0.058612031  0.060511619            2 
  333000    1.0982743   -4.6447654    234.89996  0.058783775  0.060489652            2 
  334000    1.1381335   -4.6318875    235.60811  0.058784459  0.060466681            3 
  335000    1.1007032   -4.6465236    236.20422  0.058757269   0.06044553            4 
  336000    1.1518747   -4.6342246    237.41601   0.05888294  0.060422977            2 
  337000    1.1126439   -4.6282325    237.17574  0.058648798  0.060399659            2 
  338000    1.1020044   -4.6082854    238.77431  0.058869406  0.060377795            1 
  339000    1.1248687   -4.6064439    238.82316  0.058707758  0.060359882            4 
  340000    1.1235229   -4.6473119    239.61823  0.058729959  0.060338659            3 
  341000    1.1035442   -4.6397612    239.66787  0.058569861  0.060317558            3 
  342000    1.1196825   -4.6401638     240.9201  0.058703729  0.060298813            7 
  343000    1.1093441   -4.6622111    241.69884  0.058721779  0.060278914            3 
  344000    1.1364309    -4.657843    241.40061   0.05847883  0.060258116            2 
  345000    1.1203643   -4.6168991    243.34558  0.058779125  0.060236021            3 
  346000     1.116816   -4.6375189     243.3143   0.05860171   0.06021383            2 
  347000    1.1078752    -4.653582    243.99612  0.058596571    0.0601915            3 
  348000    1.1341146   -4.6368415    244.53076  0.058556216  0.060169038            2 
  349000    1.1228658   -4.6408259    245.26741  0.058564329  0.060146654            2 
  350000    1.0929789   -4.6193059    246.08298  0.058591186  0.060123933            4 
  351000     1.099748   -4.6516883    246.54856  0.058534796  0.060100803            2 
  352000    1.1099772   -4.6312036    246.29422   0.05830829  0.060076194            4 
  353000    1.0904224   -4.6340517    247.02401  0.058315395  0.060053091            6 
  354000    1.1007528   -4.6068466    248.04303  0.058390544  0.060028238            1 
  355000     1.109298   -4.6400703    248.25272  0.058275287   0.06000211            2 
  356000    1.1260069   -4.6189379    248.25947  0.058113171  0.059976294            3 
  357000    1.1123928   -4.6893678    248.05793  0.057903346  0.059949045            1 
  358000    1.0924612   -4.6781882    248.82801  0.057920858  0.059920425            3 
  359000    1.1109357   -4.6377947     250.8261  0.058223329   0.05989332            5 
  360000     1.118591    -4.658254    249.79329  0.057822521  0.059866526            4 
  361000    1.1443094   -4.6832871    250.95289   0.05793003  0.059838726            7 
  362000    1.1072609   -4.6319329    252.33588   0.05808837  0.059813027            2 
  363000    1.1231495   -4.6517202    253.69074   0.05823938  0.059788519            5 
  364000     1.091056   -4.6605016    252.95625  0.057911228   0.05976397            4 
  365000    1.0936511   -4.6406614    253.61827  0.057903714  0.059738215            2 
  366000    1.0701772   -4.6863985    253.64323  0.057751191   0.05971166            2 
  367000    1.0887223   -4.6300729    255.60584  0.058039473  0.059685787            2 
  368000    1.1091835   -4.6571977    255.66039  0.057894109  0.059660307            2 
  369000    1.0977204   -4.6585944    256.88484  0.058013739  0.059633651            2 
  370000    1.1211508   -4.6436888    257.37356  0.057967018  0.059607595            1 
  371000    1.1008496    -4.668974    255.92161  0.057484638  0.059580229            2 
  372000     1.117876     -4.63135    257.38757  0.057658507  0.059551874            2 
  373000     1.091468   -4.6913598    257.88248  0.057614494  0.059523084            3 
  374000    1.1048464    -4.681463    257.95619  0.057476869  0.059494261            3 
  375000    1.0869237    -4.639699    259.51267  0.057669482  0.059466499            1 
  376000    1.1077899   -4.6701025    259.24198  0.057456113  0.059437943            2 
  377000     1.117858    -4.662698    261.14152  0.057723589  0.059408833            2 
  378000    1.1196568   -4.6912799    260.59603  0.057450623  0.059379097            2 
  379000    1.1277071   -4.6662231    260.90443   0.05736685  0.059349328            5 
  380000    1.0930771   -4.6581679    262.05476  0.057468149  0.059320135            8 
  381000    1.1146741   -4.6510719    262.95768  0.057514804  0.059291758            5 
  382000    1.1052243   -4.6374917    263.58633   0.05750138  0.059263504            2 
  383000    1.1031882   -4.6858344    263.91563  0.057422897  0.059233578            2 
  384000    1.1109035   -4.6651017    263.05738  0.057087105  0.059203803            1 
  385000    1.1007222   -4.6819544    264.65163  0.057283903  0.059173631            2 
  386000    1.0954576   -4.6696077    264.42594  0.057086776  0.059143536            2 
  387000    1.1104646   -4.6828352    265.06108   0.05707603  0.059114191            3 
  388000    1.0826532   -4.6554868    266.75239   0.05729218  0.059084812            4 
  389000    1.0998494   -4.6736745    266.88809  0.057173968  0.059054617            3 
  390000    1.0975308   -4.6741971    267.08644  0.057069752  0.059024601            4 
  391000    1.0768628   -4.6642729    268.71993  0.057271937   0.05899455            3 
  392000    1.0973501   -4.7103762    268.73745   0.05712956  0.058965466            1 
  393000    1.1137297   -4.6833083    269.81747  0.057213203  0.058934312            3 
  394000    1.0995422   -4.6689717    270.07478  0.057122416  0.058904863            2 
  395000    1.0895783   -4.7080645    270.48283  0.057063889  0.058874132            3 
  396000    1.0673296   -4.6793646    270.78009  0.056982343   0.05884278            7 
  397000    1.0830344   -4.6779294    271.55045  0.057000513  0.058812552            2 
  398000    1.0935273    -4.679595    271.18938  0.056781696  0.058782542            2 
  399000    1.1175572   -4.7220582    271.75582  0.056757691  0.058751511            5 
  400000    1.0881684   -4.6555061    274.05114  0.057093988   0.05872083            4 
  401000    1.1174631   -4.6879854    273.57339  0.056852326  0.058691652            1 
  402000    1.0972007   -4.6825894     274.3929  0.056880783  0.058662356            3 
  403000    1.0951464   -4.7002726    274.52672  0.056767312  0.058632201            2 
  404000    1.0734998   -4.6727751    276.28185   0.05698883  0.058601114            3 
  405000    1.0936269   -4.7266333    274.38807  0.056458451  0.058570458            2 
  406000    1.0937255   -4.6929467    277.13836    0.0568839  0.058540277            3 
  407000    1.0756431   -4.7170409    277.63268  0.056845348  0.058510342            3 
  408000    1.0980757   -4.6847401    277.91039  0.056762743  0.058481882            4 
  409000    1.0962664   -4.6415034    279.29372   0.05690581  0.058454048            2 
  410000    1.0998205   -4.6541042    279.49682  0.056808297  0.058424707            4 
  411000    1.1060257   -4.6975288    279.63245  0.056697576  0.058395245            2 
  412000    1.0723198   -4.6540884    280.08465  0.056651426  0.058366638            3 
  413000    1.0698572   -4.6782331    281.76619  0.056853549   0.05833801            2 
  414000    1.0843538   -4.6850916    282.21695  0.056806955  0.058309179            1 
  415000    1.0837886   -4.6966687    282.13857  0.056654331  0.058279751            4 
  416000    1.0850809   -4.6960428    281.89542  0.056469435   0.05824965            1 
  417000    1.0994496   -4.6971181    283.05526  0.056565799  0.058220396            2 
  418000     1.105979    -4.712438    283.23091  0.056465493  0.058189366            3 
  419000    1.0742613   -4.6825069    284.88126  0.056658961  0.058159922            7 
  420000    1.0691973   -4.6893668    285.34229  0.056615533  0.058130732            3 
  421000    1.1039815   -4.6852086     286.2978  0.056670191  0.058101781            6 
  422000    1.0760067   -4.6794742    287.06737  0.056687869  0.058074646            1 
  423000    1.1018481   -4.6843469    287.41258  0.056621863  0.058047426            5 
  424000    1.0941523   -4.7107487    287.23709   0.05645383  0.058021722            3 
  425000    1.0723629   -4.7109423    289.17007  0.056700013  0.057995065            2 
  426000    1.0708943   -4.6815095    290.31353  0.056790597  0.057971535            2 
  427000    1.0930155   -4.6751999    290.62339  0.056718069  0.057947334            2 
  428000    1.0706284   -4.7142463    290.24534  0.056511943  0.057921048            5 
  429000    1.1234331   -4.7032102    290.17493  0.056366537  0.057894205            3 
  430000    1.0831904   -4.6827767    291.86376  0.056562744  0.057867816            1 
  431000    1.0918963    -4.701962    292.28291   0.05651255   0.05784066            7 
  432000    1.1016128   -4.7158349    291.64489   0.05625866  0.057813812            3 
  433000    1.0858145   -4.7559391    292.61916  0.056316235  0.057785389            4 
  434000    1.0827713   -4.6928317    293.54374  0.056364006  0.057758164            4 
  435000    1.0889198   -4.6490732     294.6882  0.056453678  0.057731562            3 
  436000    1.0915301   -4.7093212    295.55451  0.056489777  0.057705564            3 
  437000     1.087371   -4.6857037    296.09824  0.056464196   0.05768142            4 
  438000    1.0442869    -4.698637    297.38899  0.056580858    0.0576569            5 
  439000    1.0889973   -4.7562787    296.24546    0.0562349  0.057631925            3 
  440000    1.0577601   -4.7100344     298.3855  0.056512405  0.057606547            1 
  441000      1.07775   -4.6914171    298.64633  0.056433548  0.057582082            4 
  442000      1.09896   -4.6825237    300.05406  0.056571279  0.057558309            3 
  443000    1.0870694   -4.7563062    298.86892  0.056220639  0.057534867            3 
  444000     1.083009   -4.7378929    299.21206  0.056158419  0.057510421            4 
  445000     1.077984   -4.7091021    300.36393  0.056247928   0.05748703            2 
  446000    1.0738945   -4.6845065     302.4747    0.0565162  0.057464078            2 
  447000    1.0876983   -4.6823801    302.89001   0.05646719  0.057443484            2 
  448000    1.0859826   -4.7334447    301.19475   0.05602581  0.057420863            3 
  449000    1.0729475    -4.739227    302.89838   0.05621722  0.057397762            2 
  450000    1.0752382   -4.6689385    304.72482  0.056430522  0.057375965            6 
  451000    1.0682004   -4.7240836    304.70148  0.056301087  0.057353956            9 
  452000    1.0777561   -4.7179934    303.80261  0.056010806  0.057331697            4 
  453000    1.0741655    -4.746066    305.23308  0.056150309  0.057309234            2 
  454000    1.0758449   -4.7053963    306.92649  0.056337461  0.057287535            3 
  455000    1.0712799   -4.7041694    307.00232  0.056227531  0.057266454            3 
  456000    1.0702528   -4.7462404    307.35553  0.056168773  0.057244338            3 
  457000    1.0539109   -4.7198548      308.863  0.056320751  0.057224158            4 
  458000    1.0697987   -4.7190551    309.64399  0.056339881  0.057203633            4 
  459000    1.0761695   -4.7081573     309.4793  0.056187236  0.057181294            2 
  460000    1.0907347     -4.74613    310.94939  0.056331411  0.057159737            3 
  461000    1.0806325   -4.7238992    311.43543  0.056297077  0.057138911            2 
  462000    1.0662884   -4.7363598    310.89116   0.05607705  0.057117402            2 
  463000    1.0460853   -4.7150488     312.5237  0.056249766  0.057095054            3 
  464000     1.076057   -4.7490098    312.76774  0.056172367  0.057074811            4 
  465000    1.0732453   -4.7502698    312.75284  0.056048895  0.057054643            5 
  466000    1.0627471   -4.7213578    313.63874  0.056087043  0.057034501            3 
  467000    1.0739685   -4.7135909    315.49855  0.056298812  0.057014308            5 
  468000    1.0430902   -4.7225923     314.8528  0.056063532   0.05699432            4 
  469000    1.0488481   -4.7244033    316.00504  0.056148728  0.056974697            3 
  470000     1.056957   -4.7191752    317.53469  0.056300477   0.05695531            2 
  471000    1.0479262   -4.7427802     318.0014  0.056263517  0.056935886            2 
  472000    1.0578846   -4.7137569    317.90087  0.056126565  0.056917658            5 
  473000    1.0576574   -4.7005326    317.76152  0.055983354  0.056899331            2 
  474000    1.0969626   -4.7249976    319.16477   0.05611195  0.056880579            2 
  475000    1.0703582   -4.7050156    321.27714   0.05636441  0.056861183            2 
  476000    1.0533912    -4.739928    320.71795    0.0561481  0.056842607            6 
  477000    1.0642833   -4.7380955    321.53185   0.05617258  0.056822992            2 
  478000    1.0610268   -4.7056761    322.19081  0.056169946  0.056803803            2 
  479000     1.078246   -4.7386819    321.99104  0.056017926  0.056784849            5 
  480000    1.0752176   -4.7334426    322.25127  0.055946401  0.056765137            2 
  481000     1.056785   -4.7328524     323.4928  0.056045184  0.056744729            3 
  482000    1.0663387   -4.7123226    325.40461  0.056259442  0.056725875            4 
  483000    1.0579297   -4.7564929    322.88104  0.055707564  0.056706584            4 
  484000    1.0620224   -4.7332966    324.28561    0.0558343  0.056685846            3 
  485000    1.0644543   -4.7138666    326.54919  0.056108109   0.05666392            4 
  486000    1.0498976   -4.7012119    325.10201  0.055744514  0.056642293            2 
  487000    1.0374045   -4.7826542    324.12736  0.055463272  0.056620116            3 
  488000    1.0397921   -4.7278782    326.21624  0.055706325  0.056598053            2 
  489000    1.0481022   -4.7198484    327.68906  0.055843397  0.056578467            1 
  490000    1.0700349   -4.7334859    328.68345  0.055898545  0.056557936            5 
  491000     1.074249   -4.7155694    328.93201  0.055826885  0.056537225            3 
  492000    1.0913795   -4.7326877    327.59081  0.055486248  0.056514672            3 
  493000    1.0483856   -4.7298408    327.81417  0.055411455  0.056491333            3 
  494000    1.0575675   -4.7634135    328.15667  0.055357063  0.056467569            4 
  495000    1.0763353   -4.7476478    329.80025  0.055521927  0.056444891            3 
  496000    1.0673766   -4.7294827     330.1771  0.055473303  0.056422103            9 
  497000     1.055342   -4.7786017    329.98894  0.055330138  0.056399344            6 
  498000    1.0752871   -4.7572139    330.43392  0.055293494  0.056376172            3 
  499000    1.0492598   -4.7687387    331.27547  0.055323225  0.056353255            3 
  500000    1.0568154   -4.7518412    332.35624  0.055392707  0.056330987            2 
  501000    1.0486615   -4.7636681    331.92223  0.055209952  0.056307939            3 
  502000    1.0440061   -4.7687755    332.12023   0.05513284  0.056283726            3 
  503000    1.0529933   -4.7869392    333.60092  0.055268543  0.056259263            5 
  504000    1.0463917   -4.7340869    332.97066  0.055054672  0.056235929            7 
  505000    1.0549595   -4.7520493    333.58858   0.05504762  0.056211334            4 
  506000    1.0434317   -4.7679542    334.86576  0.055149169  0.056187413            3 
  507000    1.0560296   -4.7415191    336.02212  0.055230461  0.056163117            2 
  508000    1.0542679   -4.7801899    336.05494  0.055127122   0.05613867            8 
  509000    1.0760113   -4.7710033    336.80225  0.055141168  0.056114328            2 
  510000    1.0347048   -4.7585476    336.99639  0.055064769  0.056090211            2 
  511000    1.0494395   -4.7670106    337.54281   0.05504612  0.056065864            2 
  512000     1.072078   -4.7722361    338.32953  0.055066655  0.056040959            7 
  513000    1.0439164   -4.7416938    339.40679  0.055134306  0.056016814            3 
  514000    1.0522325   -4.7469471    338.49453  0.054879139  0.055992253            3 
  515000    1.0319877   -4.7791347    339.82616  0.054988052  0.055967387            2 
  516000    1.0474219   -4.7555255    339.81403  0.054879527   0.05594239            3 
  517000    1.0451258   -4.7813844    339.86147  0.054781023  0.055917176            3 
  518000    1.0215435   -4.7572231    339.38328  0.054598339  0.055891463            4 
  519000    1.0404224   -4.7410911     340.6762  0.054700738    0.0558667            4 
  520000    1.0417749   -4.7668107      341.874    0.0547875  0.055842462            2 
  521000    1.0356582   -4.7751782    342.98866  0.054860631  0.055818181            3 
  522000    1.0389493   -4.7701234    344.04783  0.054924621  0.055794716            4 
  523000    1.0644479   -4.8051003    342.78713  0.054618727  0.055770218            4 
  524000    1.0376959   -4.7686141    344.48797  0.054784982   0.05574647            6 
  525000    1.0494944   -4.7810664    345.45471  0.054834081  0.055722568            2 
  526000    1.0540302   -4.7628543    345.17195  0.054685036  0.055698257            2 
  527000    1.0361617   -4.7558299    346.24888  0.054751562  0.055673833            3 
  528000    1.0331944   -4.7600177    345.66985  0.054556478  0.055648722            2 
  529000    1.0195568   -4.7877091    346.22952  0.054541512  0.055623628            1 
  530000    1.0408698   -4.7414241    347.74464  0.054676829  0.055598984            4 
  531000    1.0394567   -4.7463863    347.21485  0.054490717   0.05557433            2 
  532000    1.0359924   -4.7866679    346.78654  0.054321201  0.055549653            3 
  533000    1.0395799   -4.7820498    348.76515  0.054528635  0.055524004            2 
  534000    1.0273316   -4.7688017    348.85549   0.05444062  0.055498208            7 
  535000    1.0528588    -4.765527    349.64497  0.054461833  0.055472021            2 
  536000     1.048417   -4.7854309    349.40853  0.054323466  0.055445441            4 
  537000     1.049787   -4.7831877    349.78253  0.054280344  0.055419939            5 
  538000    1.0175446   -4.8209675    349.04034  0.054064488  0.055393024            2 
  539000    1.0346611   -4.8160604     349.1201  0.053976515  0.055365826            4 
  540000    1.0339247   -4.7912093    351.94106  0.054311892  0.055339859            2 
  541000    1.0579851   -4.7974729    351.67166  0.054170003  0.055313796            7 
  542000    1.0565336   -4.8259703    352.33816  0.054172533  0.055288137            3 
  543000    1.0434247   -4.7531832    353.83904  0.054303106  0.055261681            2 
  544000    1.0359429     -4.73939    352.90404  0.054060055  0.055235455            1 
  545000    1.0685275   -4.7620705    354.72816   0.05423978  0.055210475            2 
  546000      1.06003    -4.779341    354.57372  0.054116868  0.055184063            3 
  547000    1.0258798   -4.7871699    355.22779  0.054117578  0.055157877            4 
  548000    1.0108604   -4.7834786    356.03615   0.05414175  0.055131429            7 
  549000    1.0322086   -4.8268744    354.48859  0.053808225  0.055104834            3 
  550000    1.0258785   -4.7805649    355.68734  0.053892021  0.055078809            4 
  551000    1.0493414   -4.8069249    356.46331  0.053911571  0.055052183            3 
  552000    1.0486184   -4.7900427    357.18247  0.053922474  0.055026324            4 
  553000    1.0443333   -4.7917456    356.88755  0.053780523  0.055000028            3 
  554000    1.0280674   -4.7836993    358.93023  0.053990708  0.054973608            3 
  555000    1.0296479   -4.7865145    358.74395  0.053865457  0.054948484           11 
  556000    1.0368318   -4.7900991    359.03013   0.05381147  0.054923762            5 
  557000    1.0441358   -4.8227028    360.78272  0.053977068  0.054898555            2 
  558000    1.0243913   -4.7655722    361.38782  0.053970702  0.054873267            5 
  559000    1.0201485   -4.8108956    361.57212  0.053901627  0.054848692            2 
  560000    1.0308907   -4.7614016    363.38315  0.054074874   0.05482428            2 
  561000    1.0142662   -4.8051854    363.56592  0.054005632  0.054799452            5 
  562000    1.0178034   -4.7933361    363.16496  0.053850083  0.054775514            2 
  563000    1.0298382   -4.7895302    363.61139  0.053820513   0.05475106            6 
  564000     1.027985   -4.8079795    362.28493  0.053529097  0.054726801            4 
  565000    1.0329699   -4.7657528    366.07773  0.053993766  0.054702295            4 
  566000    1.0089762   -4.7987029     365.9777  0.053883643  0.054678186            6 
  567000    1.0465859   -4.7905244    365.24783  0.053681339  0.054654765            4 
  568000    1.0251414   -4.8566035     365.1878  0.053578022  0.054630907            7 
  569000    1.0268629   -4.7981038    366.41682  0.053663857   0.05460716            4 
  570000    1.0274524   -4.8469365    367.62945  0.053746996  0.054583722            5 
  571000     1.048119   -4.8345836    367.35438  0.053612723  0.054560795            4 
  572000    1.0478039   -4.7854063    367.70637  0.053570275  0.054537608            4 
  573000    1.0237708   -4.8129933    370.35867  0.053862518   0.05451532            5 
  574000     1.044162   -4.8225771     370.2018  0.053745905  0.054492912            2 
  575000    1.0238045   -4.8016959    372.29082  0.053955191  0.054470148            4 
  576000    1.0119911    -4.784561    372.64859   0.05391328  0.054447925            3 
  577000    1.0258299   -4.8175843    372.16423  0.053749888   0.05442666            4 
  578000     1.023152   -4.8081943    372.23751  0.053667462  0.054404356            2 
  579000    1.0413499   -4.8246773    373.30699  0.053728697  0.054382159            4 
  580000    1.0091477   -4.7999918    373.61465  0.053680266  0.054359572            3 
  581000    1.0183737   -4.8417489    373.92237   0.05363201  0.054338281            3 
  582000    1.0321036   -4.8459496    373.91206  0.053538382  0.054315908            6 
  583000    1.0182915   -4.8022018    375.88615  0.053728723   0.05429484            5 
  584000    1.0265029   -4.8557558    375.76826    0.0536199  0.054273451            2 
  585000   0.99947552   -4.8334446    377.26611  0.053741611  0.054252891            4 
  586000    1.0150647   -4.7900893    379.10753  0.053911764  0.054232499            2 
  587000    1.0328561   -4.8026302    378.97018  0.053800423  0.054212291            2 
  588000   0.98976641   -4.7892464    379.49333  0.053783068   0.05419079            3 
  589000    1.0305412   -4.7909962    378.25743  0.053516897  0.054170193            2 
  590000     1.015902   -4.8382605     377.9435   0.05338185  0.054148976            4 
  591000   0.99490877   -4.8100203    380.57092  0.053662003  0.054127711            3 
  592000    1.0129458   -4.8137715    381.19837   0.05365968   0.05410689            2 
  593000    1.0180652    -4.837087    380.47169  0.053467073  0.054086382            4 
  594000    1.0210007    -4.819213    381.10884  0.053466448  0.054066365            2 
  595000    1.0291047   -4.8244822    381.47534  0.053427918  0.054044859            3 
  596000     1.034622   -4.8178069     383.3229  0.053596602  0.054024436            4 
  597000    1.0077453   -4.7917989    384.38551  0.053655153  0.054003232            5 
  598000    1.0157762   -4.8223414    382.64767  0.053323254  0.053981489            3 
  599000   0.99100886   -4.8134935    383.11712  0.053299543   0.05396092            2 
  600000    1.0212755   -4.7944605    385.23843  0.053505338  0.053940079            5 
  601000    1.0192638   -4.8387632    386.14054  0.053541395  0.053919616            6 
  602000    1.0343808   -4.8499886    385.86785  0.053414708  0.053899805            2 
  603000    1.0299598   -4.8267491     385.8146  0.053318767  0.053880474            2 
  604000    1.0033762   -4.8428407    385.92564  0.053245811  0.053860159            2 
  605000    1.0235064   -4.8699335    385.79512  0.053139824  0.053839425            6 
  606000     1.012742   -4.8397116    388.32865  0.053400529  0.053818783            2 
  607000    1.0260451   -4.7990243    389.97508  0.053538589  0.053798948            2 
  608000    1.0059025   -4.7944049     390.7644  0.053558717  0.053778858            4 
  609000    1.0316105   -4.8566214    388.44735  0.053153714  0.053759135            1 
  610000    1.0030555   -4.8429385    388.95927  0.053136513  0.053738203            2 
  611000    1.0147784   -4.8224507    390.64631  0.053279639  0.053718051            6 
  612000    1.0054729   -4.8092507    392.09542  0.053389899   0.05369763            3 
  613000    1.0302218   -4.8579798    390.19746  0.053044788  0.053676643            2 
  614000    1.0003282   -4.8565933    392.00694  0.053203983  0.053655725            4 
  615000     1.011571   -4.8396525    390.53292  0.052917739  0.053634203            3 
  616000    1.0172517   -4.8359216    392.15587  0.053051389  0.053612149            7 
  617000     1.016578   -4.8234472    393.75084  0.053180827  0.053590448            4 
  618000    1.0105737   -4.8654318    392.69583  0.052952513  0.053568228            2 
  619000   0.98732381   -4.8183437    393.40894  0.052962969  0.053545237            3 
  620000     0.985686   -4.8422986    392.60141  0.052769007  0.053522315            3 
  621000   0.99056878   -4.8601031      393.274  0.052774289  0.053499453            3 
  622000   0.99959946   -4.8314719    394.17912  0.052810708  0.053477187            2 
  623000     1.012227   -4.8540592    395.06165  0.052843987  0.053455257            2 
  624000   0.98911347   -4.8720267    393.86921  0.052600055  0.053433569            2 
  625000    1.0118245   -4.8509614    395.33337  0.052711116  0.053411035            4 
  626000    1.0254681   -4.8298821    396.66677  0.052804416  0.053388611            2 
  627000    1.0079062   -4.8460428    396.07226  0.052641182  0.053367026            2 
  628000    1.0215324   -4.8307206    398.17478  0.052836357  0.053345443            2 
  629000   0.99553952   -4.8697981    397.23384  0.052627695  0.053323391           11 
  630000   0.99807037   -4.8776579    396.99004  0.052511909  0.053301086            4 
  631000    1.0200234   -4.8262383    396.89877  0.052416636  0.053277392            4 
  632000   0.99472687   -4.8703395    399.16543  0.052632573  0.053253633            3 
  633000   0.99714956   -4.8332616    400.93676  0.052782617  0.053231001            4 
  634000    1.0028927   -4.8752147    397.38345  0.052232315  0.053207871            3 
  635000     1.016032    -4.853342    398.84018  0.052341231  0.053184609            4 
  636000   0.99861892   -4.8201595     401.6461  0.052626586  0.053160731            3 
  637000   0.99943184   -4.8467992    401.23564  0.052490273  0.053137775            1 
  638000   0.99369291   -4.8858103    400.26536  0.052281265  0.053114975            4 
  639000   0.99860425   -4.8629095    402.73989  0.052522156  0.053092827            3 
  640000    0.9849061   -4.8591234    401.36237  0.052260725  0.053070632            4 
  641000       1.0028   -4.8413266    404.03929  0.052527209   0.05304865            5 
  642000    1.0047652   -4.8277519    405.50442  0.052635568   0.05302699            2 
  643000    1.0041817   -4.8596879     404.4375  0.052415435  0.053005162            4 
  644000    1.0108153   -4.8840116    405.02077   0.05240952  0.052984146            2 
  645000   0.99197678   -4.8840712    404.33486  0.052239645  0.052962349            1 
  646000    1.0255139   -4.8606079    406.39278  0.052424249  0.052940074            2 
  647000   0.98083398   -4.8550686    406.51382  0.052358812  0.052917769            5 
  648000   0.99834728   -4.8541089    406.74465  0.052307697  0.052895908            3 
  649000   0.99109253   -4.8657187    406.82012  0.052236789  0.052873548            2 
  650000   0.98635585   -4.8395312    407.66262  0.052264439  0.052851167            2 
  651000    0.9872393   -4.8701125    407.99221  0.052226346  0.052829475            3 
  652000   0.98382691    -4.859237    408.88225  0.052260001  0.052807427            3 
  653000     1.001766   -4.8693016    408.12061  0.052082772  0.052785519            3 
  654000    1.0085996   -4.8443674    409.27042  0.052149646  0.052763297            2 
  655000    1.0048829   -4.8424674    409.74685  0.052130642  0.052739952            5 
  656000   0.98824416   -4.8664023    410.28869  0.052120007  0.052717437            6 
  657000   0.97504723   -4.8628793    411.57954  0.052204406  0.052695407            3 
  658000   0.98609258    -4.843766    412.39647  0.052228529  0.052673442            7 
  659000   0.98911796   -4.8517851    413.11643  0.052240317   0.05265193            3 
  660000    0.9773506   -4.8680937    412.90141  0.052134016  0.052630002            3 
  661000   0.98958899   -4.8464099    412.55835  0.052011895  0.052608299            5 
  662000   0.98656076    -4.898949    412.17365    0.0518849  0.052586952            3 
  663000   0.96414179    -4.881256    415.67772  0.052247073  0.052565262            4 
  664000   0.99632952   -4.8908472    413.52279  0.051897941  0.052543251            2 
  665000   0.98158242   -4.8594197    414.77497  0.051976813  0.052521457            6 
  666000    1.0072804   -4.8682642    415.99392  0.052051291   0.05250025            2 
  667000    0.9710123   -4.8914604    415.24599  0.051879808  0.052478968            2 
  668000   0.99501996   -4.8832459    415.82862  0.051874828  0.052457592            5 
  669000    1.0076561   -4.8735029    416.66589  0.051901581  0.052435524            4 
  670000    1.0021841    -4.881394    417.97106  0.051986451  0.052413296            3 
  671000   0.99514156   -4.9162271    417.69283   0.05187442  0.052391408            3 
  672000   0.99506617   -4.8880211    417.90523  0.051823566  0.052369048            4 
  673000   0.98414262   -4.8919033    419.24941  0.051913002  0.052348477            3 
  674000   0.97102298   -4.8347643    421.81688  0.052153423  0.052328441            4 
  675000   0.98353773   -4.8747656    420.54005  0.051918525  0.052308294            2 
  676000   0.99285923    -4.863852    420.84847  0.051879743  0.052287891            5 
  677000   0.96479778     -4.90594    419.88293  0.051684261  0.052266514            6 
  678000   0.98686278   -4.8660054    422.68202  0.051952067  0.052245365            3 
  679000   0.97866014   -4.8857055     423.0331  0.051918643   0.05222427            3 
  680000   0.99137757   -4.9040476    423.09769  0.051850207  0.052204009            3 
  681000   0.98549894   -4.9020069    423.58263   0.05183341  0.052183971            6 
  682000   0.96647408   -4.8911823     423.3333  0.051726943  0.052163309            3 
  683000   0.97423895   -4.9021312    423.18472   0.05163308  0.052142388            4 
  684000   0.96601334   -4.9095063    423.28043  0.051569254  0.052121235            3 
  685000   0.96062213   -4.8965551    426.05702  0.051831755  0.052100368            5 
  686000    0.9778663   -4.9102965    424.96498   0.05162354  0.052079463            2 
  687000    1.0048034   -4.9219982    424.99179  0.051551648  0.052058271            3 
  688000   0.97538306   -4.8968237    424.79507  0.051452891  0.052036447            3 
  689000   0.97705713    -4.880396     426.6792  0.051606096  0.052014765            6 
  690000   0.96504667   -4.8959362     426.7735  0.051542693  0.051993477            4 
  691000   0.97980046   -4.9300079    427.89399  0.051603231  0.051972028            6 
  692000   0.98978747   -4.8727061     427.1359  0.051437368  0.051951064            3 
  693000   0.96361345   -4.8686012     428.2723  0.051499796  0.051929699            6 
  694000   0.98994427   -4.9084719    427.65077  0.051350957  0.051908158            3 
  695000   0.94799864   -4.8991244    427.72234  0.051285652  0.051886013            3 
  696000   0.95901377   -4.9057037    428.79554  0.051340463  0.051863413            2 
  697000   0.97481455   -4.9066169    429.45703  0.051345891  0.051841399            5 
  698000   0.96442939   -4.9073028    429.51463  0.051279206  0.051818224            2 
  699000    1.0009861   -4.8993072    428.26925  0.051057374  0.051795054            3 
  700000   0.98886459   -4.9106307    427.94101  0.050945359  0.051771326            2 
  701000   0.99795638   -4.9185903    429.27787  0.051031606  0.051748037            3 
  702000   0.98953851   -4.9039836    429.38909  0.050972114  0.051723527            2 
  703000    0.9999438   -4.8541146    430.25194  0.051001889  0.051699573            5 
  704000   0.96037101   -4.9146207    431.60784  0.051089943  0.051675817            2 
  705000   0.97164024   -4.9295754    430.92451  0.050936703  0.051652491            3 
  706000   0.97902324   -4.8921506    432.31429  0.051028599  0.051629367            7 
  707000   0.95599613   -4.8800965    431.62111  0.050874718  0.051605536            7 
  708000   0.95883258   -4.9179143    431.17253  0.050750063  0.051581726            3 
  709000    0.9779935    -4.924719    430.74914  0.050628719   0.05155726            7 
  710000   0.96281813     -4.92282    431.93747  0.050696886  0.051532386            3 
  711000   0.98153849   -4.9118844    431.89074  0.050620106  0.051508226            6 
  712000   0.98901544   -4.9047057     432.1177  0.050575573  0.051483864            3 
  713000   0.96121258   -4.9105884    433.46935  0.050662617  0.051458914            6 
  714000   0.95750108    -4.901583    432.68897   0.05050058  0.051433942            4 
  715000   0.95654566   -4.9224434    433.15865  0.050484691  0.051408687            2 
  716000   0.97041638   -4.8888909    433.72512  0.050480112  0.051382488            3 
  717000   0.97263617   -4.9222408    434.95233   0.05055234  0.051356453            7 
  718000   0.96797763    -4.898999    435.23734  0.050515012  0.051330791            3 
  719000   0.95972052   -4.8914317    434.82349  0.050396788  0.051305424            3 
  720000   0.95656545   -4.8944115    435.92065  0.050453779  0.051280432            3 
  721000   0.95070495   -4.9046779    434.95695  0.050272417  0.051255052            4 
  722000    0.9630574   -4.9388322     434.6749  0.050170233  0.051229064            9 
  723000   0.94722348   -4.9480023    434.68419  0.050101912  0.051203006            4 
  724000   0.95946802   -4.9315607    435.84831  0.050166702  0.051176652            4 
  725000   0.97340087   -4.9244769    436.33985  0.050154006  0.051150275            2 
  726000   0.97313895   -4.8981744     438.4021  0.050321636   0.05112484            3 
  727000   0.96572604   -4.9185706    439.62854  0.050393001  0.051099815            3 
  728000   0.96752089   -4.9214902     438.0061  0.050138061  0.051074252            4 
  729000   0.95237638   -4.9172346    439.80189  0.050274564  0.051049419            4 
  730000   0.95904278   -4.9231587    438.80044  0.050091375  0.051024301            5 
  731000   0.95998266   -4.9055764    438.94179  0.050038964  0.050998777            5 
  732000   0.96514885   -4.9226638    440.16195  0.050109511  0.050972955            4 
  733000   0.98575595   -4.9224936    442.26963  0.050280767  0.050947256            9 
  734000   0.95124347   -4.8904599    442.62347  0.050252437  0.050922404            3 
  735000   0.96328579   -4.9215559    441.99352  0.050112644  0.050897623            7 
  736000   0.94263334   -4.9372394    441.92046  0.050036284  0.050872634            5 
  737000   0.95466309   -4.9007229    441.64742  0.049937519  0.050847374            3 
  738000   0.96396968   -4.9489498    442.90571  0.050011936  0.050821683            2 
  739000   0.96779343   -4.8994339    444.14352  0.050083843   0.05079658            1 
  740000   0.94379235   -4.9274811    443.52371  0.049946364  0.050771982           11 
  741000   0.99185749   -4.9360939    443.17337   0.04983956  0.050746446            3 
  742000   0.97600991   -4.9536536     444.4154  0.049911882  0.050720995            3 
  743000   0.94099584   -4.9198788    445.00432  0.049910758  0.050695237            3 
  744000    0.9653992   -4.9225365    445.08815  0.049853063  0.050669979            6 
  745000   0.95382352   -4.9313075    444.90344  0.049765485  0.050644476            4 
  746000    0.9358504   -4.8992334    445.46219  0.049761192  0.050618976            4 
  747000   0.95320755   -4.9521176    446.37109  0.049795972  0.050593789            7 
  748000   0.95478831   -4.9446044    446.01889  0.049690161  0.050568941           11 
  749000   0.94090705   -4.9484802    446.75282  0.049705476  0.050544053            4 
  750000   0.94951259   -4.9638248    447.77821  0.049753135  0.050519234            3 
  751000   0.94113282   -4.9275485    448.19051  0.049732635    0.0504946            5 
  752000   0.95993428    -4.918459    449.08269  0.049765369  0.050469736            5 
  753000   0.94624783   -4.9310016    448.47937  0.049632511  0.050444751            5 
  754000   0.94343901   -4.9594975    449.13992   0.04963969  0.050419757            4 
  755000   0.95101098   -4.9528109    451.28713  0.049810941  0.050394462            4 
  756000   0.97009997   -4.9461913    450.72915  0.049683549  0.050369524            6 
  757000   0.93019254   -4.9524239    450.55368    0.0495986  0.050344486            3 
  758000   0.97528775   -4.9598953    450.72153   0.04955162   0.05031954            4 
  759000   0.92957446   -4.9308512    452.09599  0.049637241  0.050294636            3 
  760000   0.95411958   -4.9600292    451.91378   0.04955195  0.050270093            3 
  761000   0.96644275   -4.9265803    452.73697  0.049576978  0.050245217            4 
  762000    0.9650661   -4.9724758    453.80328   0.04962853  0.050220536            2 
  763000   0.94510581   -4.9309838    452.43009  0.049413509   0.05019609            3 
  764000   0.95490594   -4.9656127    451.55035  0.049252874  0.050171252            4 
  765000   0.95098372   -4.9342755    451.94373  0.049231343  0.050145676            5 
  766000   0.93177372   -4.9481941    452.85067  0.049265738  0.050120503            8 
  767000    0.9621023   -4.9350629    453.79271  0.049303858  0.050095166            5 
  768000   0.95381866   -4.9279677    455.17399  0.049389539  0.050069891            2 
  769000   0.97064526   -4.9286475    456.15565  0.049431692  0.050045574            8 
  770000   0.95596551   -4.9661172    455.38525  0.049284118  0.050020653            5 
  771000   0.95171507   -4.9462375    456.34849  0.049324308  0.049995739            3 
  772000   0.94403272   -4.9545565    457.30298  0.049363448  0.049971259            3 
  773000   0.93402636   -4.9256513    457.35172  0.049304843  0.049946848            4 
  774000   0.94743723   -4.9487322    457.07215  0.049211041  0.049922413            6 
  775000   0.93054915   -4.9796819    455.76873   0.04900739  0.049897629            5 
  776000   0.93636622   -4.9481308    457.37507  0.049116738  0.049873183            3 
  777000   0.93120427   -4.9624029    458.52217  0.049176552  0.049848782            5 
  778000   0.94491179    -4.979877    458.32822  0.049092568   0.04982382            6 
  779000   0.94842787   -4.9538901      458.793  0.049079269  0.049798773            4 
  780000   0.96211293   -4.9759461    458.30619  0.048964336  0.049773784            4 
  781000   0.93033195   -4.9618744    459.53859   0.04903314   0.04974894            6 
  782000   0.95016052   -4.9691493    459.38733  0.048954319  0.049724055            3 
  783000   0.92956763   -4.9765996    460.53845  0.049014309  0.049698863            4 
  784000   0.93102581   -4.9887826    458.12704  0.048695476  0.049673802            5 
  785000    0.9319611   -4.9895927    459.89748  0.048821389  0.049648111            2 
  786000    0.9394595   -4.9702535    461.51685  0.048930964  0.049623341            4 
  787000   0.95226884   -4.9486001    462.76984  0.049001466  0.049599093            5 
  788000   0.92889479   -4.9736719     462.3288   0.04889264  0.049574971            3 
  789000   0.94838566   -4.9856484    462.75414  0.048875596  0.049550678            2 
  790000   0.92760662   -4.9952952    462.11686  0.048746504   0.04952663            4 
  791000   0.92272709   -4.9543136    464.41436  0.048926923  0.049503004            3 
  792000   0.94126569   -4.9792625    464.77136  0.048902711  0.049478829            5 
  793000   0.93629096   -4.9786024    464.98736  0.048863741  0.049454524            3 
  794000    0.9341512   -4.9750598    464.03182  0.048701912  0.049430041            6 
  795000   0.94032929   -4.9755338    464.87869  0.048729422  0.049405748            3 
  796000   0.93564945   -4.9814808    465.93366   0.04877865  0.049381345            3 
  797000    0.9360128   -4.9417635    465.96744  0.048720979  0.049357393            3 
  798000   0.92993774   -4.9494756    466.29318  0.048693941   0.04933326            3 
  799000   0.92474564    -5.016796    464.17707  0.048412293  0.049308571            4 
  800000   0.93960651   -4.9944075      465.578  0.048497708  0.049283526            4 
  801000   0.92485126   -5.0053794     465.0428  0.048381481  0.049258477            4 
  802000   0.91232661    -4.968892    467.28433  0.048554066  0.049233757            5 
  803000   0.94091315   -4.9764559    467.16182  0.048480886  0.049209149            6 
  804000   0.93436549   -5.0084546    467.06713  0.048410772   0.04918442            4 
  805000   0.94092596   -4.9926141    467.28513  0.048373202  0.049159528            4 
  806000   0.93911095   -4.9906106    468.64118  0.048453389  0.049134583            4 
  807000   0.93552923   -4.9665964    469.57589  0.048489868  0.049109604            3 
  808000   0.94060421   -4.9807763     469.1479  0.048385716  0.049084828            3 
[...]
 1800000   0.52938255   -5.8624385     599.3522  0.027747787  0.026676297          134 
 1801000   0.53560911   -5.8631056    597.45814  0.027644741  0.026657648          110 
 1802000   0.53947755   -5.8790576    599.25038  0.027712282  0.026638997           65 
 1803000   0.53548388   -5.8620661    599.29835  0.027699129  0.026620362           72 
 1804000   0.54475175   -5.8670823    600.00305  0.027716327  0.026601748           38 
 1805000   0.54597021    -5.864479    598.25073  0.027620071   0.02658318           61 
 1806000   0.54046254     -5.86932    598.83716  0.027631836  0.026564683           45 
 1807000   0.53154247   -5.8536603    598.31356  0.027592398  0.026546133           75 
 1808000   0.52482442   -5.8705885    599.07219  0.027612103  0.026527669           59 
 1809000   0.54181147   -5.8897985    598.71082  0.027580193   0.02650907          156 
 1810000   0.52852726   -5.8875778    598.80558  0.027569318  0.026490452           59 
 1811000   0.54157742   -5.8602457    599.05649   0.02756564  0.026471835           45 
 1812000   0.53823843   -5.8829883    597.96979   0.02750045  0.026453264           79 
 1813000   0.53688101   -5.8788397    598.47117  0.027508327  0.026434721          170 
 1814000   0.51708173   -5.8919747    597.91475  0.027467602  0.026416138           59 
 1815000   0.52606796   -5.8957944     597.9912  0.027455978  0.026397538           55 
 1816000   0.53012761   -5.8804642     597.3019  0.027409228  0.026378994           93 
 1817000   0.51586273   -5.8775663    597.64285   0.02740978  0.026360401           41 
 1818000   0.53714108   -5.8902287    595.89498  0.027314585  0.026341826           53 
 1819000   0.53569108   -5.8846122    597.74207  0.027384189  0.026323271           59 
 1820000   0.53406477   -5.8849683    598.68808  0.027412458   0.02630472           49 
 1821000   0.51463178   -5.8826217    597.07008  0.027323361  0.026286202           20 
 1822000   0.52880239   -5.8820226    597.41665  0.027324216  0.026267656           43 
 1823000   0.52437966   -5.8804942    596.81051  0.027281519  0.026249139           36 
 1824000   0.52502731   -5.8747393    597.76833  0.027310322   0.02623062           58 
 1825000    0.5263806   -5.8956979    597.81669  0.027297566  0.026212129           38 
 1826000   0.51276567   -5.8951435    596.81266  0.027236795  0.026193599           41 
 1827000   0.52402408   -5.8884227    597.46647  0.027251709  0.026175133           55 
 1828000   0.51982192   -5.8883054    596.35996  0.027186358   0.02615663           36 
 1829000   0.52017841     -5.89255     597.3133  0.027214931  0.026138177           58 
 1830000   0.52890408   -5.8882475    597.51858  0.027209407  0.026119701          166 
 1831000   0.51762597   -5.8803895    597.20826  0.027180423  0.026101269           45 
 1832000   0.51744679   -5.8737549    597.37503  0.027173173  0.026082922           29 
 1833000   0.52755733   -5.8956446    597.38586  0.027158841  0.026064534           43 
 1834000   0.52199785    -5.865937    597.35137  0.027142465  0.026046152           96 
 1835000   0.50947037    -5.898527    597.50844  0.027134807  0.026027737           50 
 1836000   0.52229952   -5.8975167    596.49483  0.027074021  0.026009338           58 
 1837000   0.50860569   -5.8965916     598.1587  0.027134762  0.025991019           55 
 1838000   0.52127672   -5.9082687    597.36353  0.027083947   0.02597273           73 
 1839000   0.52509639   -5.8960512    597.33921  0.027068117  0.025954455           76 
 1840000   0.52700922   -5.9008392    596.92082  0.027034457  0.025936151           87 
 1841000   0.51325345   -5.9019301    598.29964  0.027082186  0.025917832           33 
 1842000   0.51203293   -5.9131942    597.60522  0.027036067  0.025899492           47 
 1843000   0.51378702   -5.9080851    597.54845   0.02701883  0.025881194           26 
 1844000   0.50900322   -5.8961496    597.63666  0.027008164  0.025862945           34 
 1845000   0.51205684   -5.9034232    597.37198  0.026981571  0.025844674           58 
 1846000   0.52649193   -5.8819357    597.57319  0.026976038  0.025826473           24 
 1847000   0.52644026   -5.8890855    597.29676   0.02694896  0.025808284           57 
 1848000   0.51330743   -5.8998297    597.72996  0.026953913  0.025790101           64 
 1849000   0.51281173   -5.9013135    598.29316  0.026964718  0.025771967           45 
 1850000   0.51443991   -5.8886866    596.67499  0.026877252  0.025753829           41 
 1851000   0.51473423   -5.8931058    597.53363  0.026901388  0.025735744           49 
 1852000   0.51050246   -5.8941111    598.29402  0.026921077  0.025717678           45 
 1853000   0.51035968    -5.898992     596.8264  0.026840547   0.02569965           62 
 1854000   0.51043708   -5.9158283    598.01498  0.026879494  0.025681574           69 
 1855000   0.51990965    -5.894462    598.52086  0.026887729  0.025663522          152 
 1856000   0.50160207   -5.8996115    598.17014  0.026857496  0.025645489           68 
 1857000    0.5121094   -5.9036646    596.87297  0.026784822  0.025627481           55 
 1858000    0.5096279   -5.9178652    597.39754  0.026793934  0.025609493           43 
 1859000   0.51537517   -5.8990563    597.61996  0.026789491  0.025591438           52 
 1860000   0.52557909   -5.9349386    598.67246  0.026822243  0.025573452           63 
 1861000   0.50879649   -5.9221757    597.83474  0.026770318  0.025555479           43 
 1862000   0.51407659   -5.9214999    598.32054  0.026777683    0.0255375           36 
 1863000   0.51977591   -5.9203896     598.2297  0.026759246  0.025519522           23 
 1864000    0.5046524   -5.9144964    597.75353  0.026723602  0.025501541          174 
 1865000   0.50090938   -5.9211634    596.15534  0.026637862  0.025483544           76 
 1866000   0.50279152   -5.9272025    597.89853  0.026701435  0.025465572           24 
 1867000   0.50092621   -5.9177508    596.31951  0.026616654  0.025447642           43 
 1868000   0.50607352   -5.9221406    596.85115  0.026626122   0.02542973           15 
 1869000   0.51033677   -5.9171709    598.84616  0.026700828  0.025411785           11 
 1870000   0.50736532    -5.916551    597.74124   0.02663731  0.025393885           27 
 1871000   0.49904789   -5.9199342    597.41482  0.026608535  0.025375982           45 
 1872000   0.50822995   -5.9348222    596.62166  0.026559013  0.025358023           67 
 1873000   0.50598588   -5.9418375    596.18561  0.026525432  0.025340069           44 
 1874000   0.51468565   -5.9431736    596.12183  0.026508441  0.025322124           54 
 1875000   0.49815498   -5.9319186    597.41653  0.026551846  0.025304199           41 
 1876000    0.4937272   -5.9467322    596.38269  0.026491768  0.025286248           44 
 1877000   0.49283198   -5.9230699    597.41492  0.026523482  0.025268321           45 
 1878000   0.50509725   -5.9387458    596.62589  0.026474347  0.025250455           28 
 1879000    0.4980162   -5.9307846    597.36361  0.026492975  0.025232605           47 
 1880000   0.50268112   -5.9348842    596.73456     0.026451  0.025214779           26 
 1881000   0.49857588   -5.9213589     596.1941  0.026412994  0.025196966           24 
 1882000   0.51358419   -5.9254301    597.05651  0.026437146   0.02517915           48 
 1883000    0.5110874   -5.9356781    597.10763  0.026425369  0.025161339           59 
 1884000   0.50422082   -5.9344112    596.80616  0.026398008  0.025143529           68 
 1885000   0.49856223   -5.9479503    596.26174  0.026359935  0.025125716           20 
 1886000   0.49384213   -5.9352523    597.04338  0.026380496  0.025107968           31 
 1887000   0.49299948   -5.9290155    597.68306  0.026394765  0.025090203           52 
 1888000   0.50030098   -5.9527693    596.11518  0.026311581  0.025072402           64 
 1889000   0.49511558    -5.965247    595.38845  0.026265592  0.025054627           62 
 1890000   0.50277611   -5.9477439    597.73592  0.026355199  0.025036869           36 
 1891000    0.4910897   -5.9522164    597.08695  0.026312663  0.025019147           23 
 1892000   0.50322434   -5.9386961    597.17537   0.02630265  0.025001442           12 
 1893000   0.49951702   -5.9542069    595.80032  0.026228223  0.024983769           33 
 1894000   0.49944706   -5.9389277    597.41598  0.026285462  0.024966105           20 
 1895000   0.50382332   -5.9482623    597.06589  0.026256196  0.024948448           30 
 1896000   0.49857133   -5.9641906    596.22738  0.026205493  0.024930791           24 
 1897000   0.48503481   -5.9600736    595.72058  0.026169416  0.024913116           25 
 1898000   0.49268144   -5.9427706     595.9051  0.026163729  0.024895468           20 
 1899000   0.49921153   -5.9468284    597.22308  0.026207788  0.024877836           52 
 1900000   0.50460511    -5.960406    595.87116    0.0261347  0.024860248           50 
 1901000   0.49675828   -5.9530589    597.60457  0.026196939  0.024842611           24 
 1902000   0.48130258   -5.9465325    596.42989  0.026131698  0.024825006           72 
 1903000   0.48819181   -5.9630092    596.61456  0.026126054  0.024807442           36 
 1904000   0.49594728   -5.9522046     595.8975  0.026080948  0.024789884           27 
 1905000   0.50480724   -5.9540037    595.40436  0.026045685  0.024772336           41 
 1906000   0.49249883   -5.9543315    596.45928  0.026078143   0.02475483           38 
 1907000   0.48801273   -5.9695515    595.73036  0.026032615  0.024737311           48 
 1908000   0.49306195   -5.9653316    596.40198  0.026048304  0.024719799           71 
 1909000   0.48348788   -5.9501419    596.97169  0.026059529  0.024702329           63 
 1910000    0.4909966   -5.9620073    596.70759  0.026034363  0.024684842           35 
 1911000   0.48262998   -5.9585966    596.08481  0.025993581  0.024667394          107 
 1912000   0.49855244   -5.9504408    596.97727  0.026018884  0.024649953           83 
 1913000    0.4885992    -5.962051    597.02187  0.026007225  0.024632496           61 
 1914000   0.49474345   -5.9677954    596.32634  0.025963355  0.024615074           56 
 1915000   0.47844407   -5.9590639    594.89974  0.025887717  0.024597648           72 
 1916000   0.49708831   -5.9878099    595.62323  0.025905673  0.024580214           58 
 1917000   0.50173578    -5.971207    596.45356  0.025928254  0.024562772          109 
 1918000    0.4876665   -5.9843002    595.17848  0.025859336  0.024545314          111 
 1919000     0.481719   -5.9700212    595.77502  0.025871766  0.024527902           72 
 1920000   0.48291292   -5.9513468    595.93195  0.025865102  0.024510452           71 
 1921000   0.48197561   -5.9707459    596.02356  0.025855612  0.024493069           71 
 1922000   0.49794125   -5.9809087    596.58935  0.025866691  0.024475702           59 
 1923000   0.48223952   -5.9706939    596.83818  0.025864022  0.024458363           77 
 1924000   0.48433275   -5.9871685    595.98393   0.02581358  0.024440998           95 
 1925000   0.48404251    -5.978411    595.93238  0.025797938   0.02442364           97 
 1926000   0.48533642   -5.9772246     595.5427  0.025767683  0.024406269          144 
 1927000     0.489389   -5.9725103    595.88061  0.025768924  0.024388908          114 
 1928000   0.47695004   -5.9796799    595.18419  0.025725458  0.024371562          227 
 1929000    0.4872185   -5.9781785    595.18765  0.025712271  0.024354221          268 
 1930000   0.48618197   -5.9790171    595.91495  0.025730352  0.024336935          158 
 1931000   0.48469499   -5.9726296    595.49923  0.025699086  0.024319637          174 
 1932000   0.48451991   -5.9833917    595.72822  0.025695662  0.024302352          121 
 1933000   0.48689755   -5.9852179    594.53428  0.025630897  0.024285086          103 
 1934000   0.47985764   -5.9583192    595.53118  0.025660599  0.024267822          150 
 1935000   0.47798579   -5.9674046    595.50032  0.025646009  0.024250623          219 
 1936000   0.48788691   -5.9840343     595.9919  0.025653921  0.024233418          189 
 1937000   0.48617391   -5.9672034    595.54808  0.025621583  0.024216237          191 
 1938000   0.48612239   -5.9783633    595.01366  0.025585383  0.024199032          162 
 1939000   0.47282406    -5.985977    594.83016  0.025564301  0.024181875          111 
 1940000   0.48311326   -5.9843165    595.35783   0.02557379  0.024164699          202 
 1941000   0.48252422   -5.9832851    595.62842  0.025572232   0.02414754          148 
 1942000   0.48087904   -5.9822218    594.65019  0.025517087  0.024130417          256 
 1943000   0.47471193   -5.9920596    595.61949  0.025545526  0.024113309          228 
 1944000   0.48131322   -5.9828365    594.59839  0.025488614  0.024096188          125 
 1945000    0.4750299   -5.9848239    595.00427  0.025492899  0.024079066          108 
 1946000   0.47647031   -5.9910947    594.81273  0.025471597  0.024061968           93 
 1947000   0.48100349   -5.9896016    595.68442  0.025495824  0.024044858          143 
 1948000   0.49006155   -5.9931006    595.54663  0.025476841  0.024027807          166 
 1949000   0.47646954   -5.9914128    593.41628  0.025372682  0.024010729          191 
 1950000   0.47317286   -6.0030633     594.3435  0.025399295   0.02399367          280 
 1951000   0.47134465   -5.9778849    595.24951  0.025424975  0.023976575          195 
 1952000   0.47396299   -5.9879946    595.29901  0.025414063  0.023959524          143 
 1953000   0.47353754   -6.0015271    595.65468  0.025416226  0.023942448          314 
 1954000   0.46908992   -6.0021255    594.79261  0.025366454  0.023925414          160 
 1955000   0.47305428   -6.0033067    595.01129    0.0253628  0.023908394           84 
 1956000   0.47380729   -5.9980869    594.85975  0.025343377  0.023891352          268 
 1957000   0.46770434   -6.0041064    595.18105  0.025344109  0.023874323          218 
 1958000   0.47458027   -6.0006087    594.17893  0.025288514  0.023857326          368 
 1959000    0.4724166   -6.0162824    594.70034  0.025297785  0.023840342          302 
 1960000   0.46767144   -5.9965773     594.9629  0.025296042  0.023823345          158 
 1961000   0.45951829   -6.0125378    594.49462  0.025263242  0.023806343           98 
 1962000   0.46869603    -6.014892    595.14088  0.025277815  0.023789369          336 
 1963000   0.46642295   -6.0144054     593.0096  0.025174461  0.023772376          328 
 1964000   0.46696695   -6.0177313    593.99427  0.025203423  0.023755367          155 
 1965000   0.47002153   -6.0044286    594.83218  0.025226131   0.02373836          215 
 1966000   0.47591094   -6.0195239    594.39146   0.02519462  0.023721396          257 
 1967000   0.47028959   -6.0131132    593.96366  0.025163687  0.023704455          330 
 1968000   0.46989077   -6.0254199    593.90791   0.02514854  0.023687497          229 
 1969000   0.47766103   -6.0118316    593.44659  0.025116243  0.023670543          268 
 1970000   0.47246923   -5.9985952    593.60923  0.025110373  0.023653593          353 
 1971000   0.46690998   -6.0182428    593.18127  0.025079539  0.023636655          196 
 1972000   0.46799842   -6.0314339    593.82185  0.025093892  0.023619707          358 
 1973000   0.47713035   -6.0115557    592.74077  0.025035511  0.023602818          188 
 1974000   0.46677968   -6.0047138    593.93286  0.025073154  0.023585948          143 
 1975000   0.46875066    -6.025302    593.23566  0.025031041  0.023569051          157 
 1976000   0.46858823   -6.0361855    593.36843  0.025023972  0.023552155          180 
 1977000   0.45845587    -6.020476    593.88145  0.025032939  0.023535265          334 
 1978000   0.46653313   -6.0461982    593.05833  0.024985605  0.023518397          189 
 1979000   0.46756169   -6.0405192    593.44187  0.024989131  0.023501538          378 
 1980000   0.46113199   -6.0377906    594.08083  0.025003402  0.023484686          311 
 1981000   0.46597899   -6.0206169    594.89911  0.025025202  0.023467874          327 
 1982000   0.45992991    -6.017941    592.61055  0.024916354  0.023451068          350 
 1983000   0.45744686   -6.0265092    593.60618  0.024945628  0.023434285          292 
 1984000   0.46841416   -6.0270976     592.4325  0.024883757  0.023417483          415 
 1985000   0.46163137   -6.0293733     593.4362  0.024913359  0.023400681          194 
 1986000   0.46047654   -6.0368609    593.25163  0.024893069  0.023383882          306 
 1987000   0.45506538   -6.0481238    592.94734   0.02486778  0.023367102          282 
 1988000   0.45295528   -6.0421855    593.46569  0.024876999  0.023350337          252 
 1989000   0.45786401   -6.0311754    593.30963  0.024857953  0.023333606          232 
 1990000   0.45750524   -6.0374538    592.52373  0.024812552   0.02331687          371 
 1991000   0.45850393   -6.0274222    593.01192  0.024820523  0.023300168          193 
 1992000   0.44964144   -6.0274253    592.14878  0.024771954   0.02328348          286 
 1993000   0.47420553   -6.0549098    592.05099  0.024755435   0.02326676          218 
 1994000   0.46251686   -6.0582587    592.94726  0.024780477  0.023250054          305 
 1995000   0.45000306   -6.0516319    592.19775  0.024736748  0.023233337          416 
 1996000   0.45384621   -6.0549694    592.43724  0.024734354   0.02321663          281 
 1997000   0.44964613   -6.0533127    593.33327  0.024759359  0.023199954          410 
 1998000   0.46850505   -6.0478219    592.11387  0.024696107  0.023183283          334 
 1999000    0.4591657   -6.0399815    592.42161  0.024696582  0.023166637          307 
 2000000    0.4535401   -6.0491266    591.93718  0.024664049  0.023149982          412 
 2001000     0.460021   -6.0537598    593.07807  0.024699236  0.023133349          340 
 2002000   0.45669074   -6.0442723     593.6676  0.024711438  0.023116718          475 
 2003000   0.45225884   -6.0487465    593.18437  0.024678997  0.023100127          381 
 2004000    0.4494543   -6.0519105    593.34448   0.02467334  0.023083559          148 
 2005000   0.44714149   -6.0360219    592.98802  0.024646219  0.023066986          434 
 2006000    0.4491671   -6.0627996     593.2071  0.024643033  0.023050456          444 
 2007000   0.44729091   -6.0682654    593.79445  0.024655142  0.023033925          335 
 2008000    0.4431498   -6.0654843    591.92086  0.024565109  0.023017384          326 
 2009000   0.45440462    -6.059887    593.15565    0.0246041  0.023000837          466 
 2010000    0.4405469   -6.0451118    592.44376  0.024562345  0.022984303          550 
 2011000   0.45751418    -6.059307    591.26415  0.024501249  0.022967785          490 
 2012000   0.45320997     -6.05674    591.27387  0.024489474  0.022951271          508 
Loop time of 5101.95 on 48 procs for 2000000 steps with 4000 atoms

Performance: 67738.763 tau/day, 392.007 timesteps/s
99.4% CPU use with 48 MPI tasks x no OpenMP threads

MPI task timing breakdown:
Section |  min time  |  avg time  |  max time  |%varavg| %total
---------------------------------------------------------------
Pair    | 350.27     | 374.14     | 393.44     |  55.0 |  7.33
Neigh   | 34.315     | 35.802     | 37.249     |  11.4 |  0.70
Comm    | 326.21     | 352.7      | 375.29     |  63.8 |  6.91
Output  | 4.3472     | 4.3489     | 4.3963     |   0.3 |  0.09
Modify  | 4271.9     | 4284.8     | 4305.3     |  11.4 | 83.98
Other   |            | 50.18      |            |       |  0.98

Nlocal:        83.3333 ave          91 max          78 min
Histogram: 6 3 6 11 3 7 9 0 1 2
Nghost:        2351.21 ave        2370 max        2336 min
Histogram: 6 3 7 8 5 4 6 2 5 2
Neighs:        16150.5 ave       18627 max       13773 min
Histogram: 1 7 5 7 6 6 3 6 4 3
FullNghs:      32300.7 ave       35352 max       29966 min
Histogram: 4 5 5 10 4 8 6 3 1 2

Total # of neighbors = 1550435
Ave neighs/atom = 387.60875
Neighbor list builds = 107586
Dangerous builds = 0

#clear
#
#next RN
#
#jump SELF
Total wall time: 1:25:05
