
units lj                  # Use reduced LJ style units
atom_style atomic         # Uncharged point particles
atom_modify map hash      # Needed for indexing of clusters etc
                          # Used to be able to find where atoms are in relation to each other.

lattice fcc 1.0 spacing 1 1 1
Lattice spacing in x,y,z = 1.5874011 1.5874011 1.5874011
region box block 0 10 0 10 0 10 units lattice
create_box 2 box
Created orthogonal box = (0.0000000 0.0000000 0.0000000) to (15.874011 15.874011 15.874011)
  3 by 4 by 4 MPI processor grid
create_atoms 1 box
Created 4000 atoms
  using lattice units in orthogonal box = (0.0000000 0.0000000 0.0000000) to (15.874011 15.874011 15.874011)
  create_atoms CPU = 0.002 seconds
set type 1 type/fraction 2 0.07 78393
Setting atom values ...
  309 settings made for type/fraction
mass 1 1.0
mass 2 1.0
pair_style lj/cut  3.5
pair_modify tail  yes
pair_coeff 1  1  1.0  1.0   # Intearaction between 1 and 1 set with epsilon = 1 and sigma = 1
pair_coeff 1  2  1.5  0.8
pair_coeff 2  2  0.5  0.88

write_data data.0
System init for write_data ...
Neighbor list info ...
  update every 1 steps, delay 10 steps, check yes
  max neighbors/atom: 2000, page size: 100000
  master list distance cutoff = 3.8
  ghost atom cutoff = 3.8
  binsize = 1.9, bins = 9 9 9
  1 neighbor lists, perpetual/occasional/extra = 1 0 0
  (1) pair lj/cut, perpetual
      attributes: half, newton on
      pair build: half/bin/atomonly/newton
      stencil: half/bin/3d
      bin: standard
WARNING: Not all mixed pair coeffs generated from mixing. Use write_data with 'pair ij' option to store all pair coeffs. (../write_data.cpp:312)


#############################
#   M E L T   S Y S T E M   #
#############################

velocity all create 2.4 2750902 mom yes dist gaussian # Assign velocities
                                                    # Temperature 2.4, random number seed, zero linear momentum
                                                                                # Gaussian distribution

timestep 0.002   # simulation timestep
thermo 1000       # output thermodynamic data every 1000 steps bf 100

# Define a fix  in this case with index 1 applied to all
# particles in the simulation. This fix is for simulations
# in the anisotropic NPT ensemble. Note that we use the MTK
# correction.
fix 1 all npt temp 2.4 2.4 0.1 iso 5.68 5.68 0.5 mtk yes tchain 5 pchain 5 # Use NPT ensemble
                                                                         # Set temperature and pressure and damping
                                                                         # Numbers of thermostats in chain and in barostat
run 10000          # run for 10000 steps
Per MPI rank memory allocation (min/avg/max) = 3.642 | 3.644 | 3.648 Mbytes
Step Temp E_pair E_mol TotEng Press Volume 
       0          2.4   -7.8774228            0   -4.2783228   -2.8368304         4000 
    1000    2.4186999    -4.528985            0  -0.90184221     5.604126     4956.563 
    2000    2.4021529   -4.5158061            0  -0.91347764    5.7804288    4948.2094 
    3000    2.4283426   -4.5006538            0  -0.85905049    5.9225206    4939.3473 
    4000    2.4833111   -4.5733111            0  -0.84927566    5.6751161    4946.0837 
    5000    2.3854299   -4.5965872            0   -1.0193368    5.6013015    4916.2517 
    6000    2.4637909   -4.5565433            0  -0.86178093    5.7899435    4925.6025 
    7000    2.4351231   -4.5542427            0   -0.9024713    5.5735188    4947.5192 
    8000    2.3441001   -4.5600742            0    -1.044803    5.7126568    4928.8488 
    9000     2.475816   -4.5661608            0  -0.85336528    5.8346717    4918.3883 
   10000    2.4436683   -4.5556671            0  -0.89108095    5.3790639    4981.5266 
Loop time of 2.15085 on 48 procs for 10000 steps with 4000 atoms

Performance: 803401.555 tau/day, 4649.315 timesteps/s
99.7% CPU use with 48 MPI tasks x no OpenMP threads

MPI task timing breakdown:
Section |  min time  |  avg time  |  max time  |%varavg| %total
---------------------------------------------------------------
Pair    | 0.84184    | 0.94252    | 1.0733     |   3.5 | 43.82
Neigh   | 0.18321    | 0.19539    | 0.23638    |   1.8 |  9.08
Comm    | 0.6457     | 0.75139    | 0.84352    |   4.9 | 34.93
Output  | 0.00024786 | 0.00025277 | 0.00031568 |   0.0 |  0.01
Modify  | 0.18744    | 0.24686    | 0.30475    |   7.0 | 11.48
Other   |            | 0.01444    |            |       |  0.67

Nlocal:        83.3333 ave          90 max          77 min
Histogram: 5 3 3 10 5 5 7 3 2 5
Nghost:        1423.38 ave        1448 max        1397 min
Histogram: 3 3 6 5 5 9 4 2 5 6
Neighs:        7646.62 ave        8642 max        6843 min
Histogram: 4 2 8 11 6 2 6 4 3 2

Total # of neighbors = 367038
Ave neighs/atom = 91.759500
Neighbor list builds = 903
Dangerous builds = 186

# Equilibrate just above the melting temperature to avoid step fn in T

fix 1 all npt temp 1.25 1.25 0.1 iso 5.68 5.68 0.5 mtk yes tchain 5 pchain 5
run 2000
Per MPI rank memory allocation (min/avg/max) = 3.642 | 3.644 | 3.648 Mbytes
Step Temp E_pair E_mol TotEng Press Volume 
   10000    2.4436683   -4.5556671            0  -0.89108095    5.3790639    4981.5266 
   11000      1.23808   -6.1197215            0   -4.2630658    5.5738095    4085.8333 
   12000    1.2312869   -6.0661192            0   -4.2196506    5.5459955    4105.6695 
Loop time of 0.464409 on 48 procs for 2000 steps with 4000 atoms

Performance: 744170.999 tau/day, 4306.545 timesteps/s
99.7% CPU use with 48 MPI tasks x no OpenMP threads

MPI task timing breakdown:
Section |  min time  |  avg time  |  max time  |%varavg| %total
---------------------------------------------------------------
Pair    | 0.20178    | 0.21907    | 0.24424    |   1.9 | 47.17
Neigh   | 0.031145   | 0.033337   | 0.038688   |   0.7 |  7.18
Comm    | 0.13156    | 0.15884    | 0.177      |   2.5 | 34.20
Output  | 4.9753e-05 | 5.1173e-05 | 6.3516e-05 |   0.0 |  0.01
Modify  | 0.043614   | 0.048765   | 0.054947   |   1.5 | 10.50
Other   |            | 0.00435    |            |       |  0.94

Nlocal:        83.3333 ave          91 max          74 min
Histogram: 2 0 6 2 6 14 5 8 3 2
Nghost:        1609.79 ave        1629 max        1586 min
Histogram: 1 1 4 8 3 12 7 5 5 2
Neighs:        9288.38 ave       10413 max        7965 min
Histogram: 1 1 5 5 7 13 7 3 2 4

Total # of neighbors = 445842
Ave neighs/atom = 111.46050
Neighbor list builds = 145
Dangerous builds = 8

#############################
# L I N E A R  Q U E N C H  #
#############################

# Define solid atoms. This closely follows ten Wolde  Ruiz-Montero and Frenkel  Faraday Discuss  1996  104  93-110
# Compute components of the per-atom q6 vector
compute q6 all orientorder/atom degrees 1 6 components 6 nnn NULL cutoff 1.3 # compute the Q6 parameter.
                                                                             # Use all neighbours within 1.3 unit cell.

# get number of connections
compute coord_number all coord/atom orientorder q6 0.5

# An atom is solid if it has 8 or more connections (of a possible 14)
variable is_solid atom c_coord_number>=8
group solid dynamic all var is_solid    # Must be dynamic to update
dynamic group solid defined

# do clustering
compute cluster solid cluster/atom 1.3 # Create a cluster where all atoms within are solid and max 1.3 units from another member

# define chunks one chunk per cluster
compute clus_chunks solid chunk/atom c_cluster nchunk every compress yes  # Says which atoms are in which chunk

# count the size of each chunk
compute size_chunks solid property/chunk clus_chunks count


# Find the maximum entry in the vector of chunk sizes
variable max_n equal max(c_size_chunks)


# Thermo style which includes this variable
# thermo_style custom step temp pe vol v_max_n

thermo ${N}  # Print the thermo information every 100 steps
thermo 1000  

# Reset the npt fix at a lower temperature (below freezing)
fix 1  all npt temp  ${temp} ${temp}  0.1  iso  5.68  5.68  0.5  mtk yes tchain  5  pchain  5
fix 1  all npt temp  0.45 ${temp}  0.1  iso  5.68  5.68  0.5  mtk yes tchain  5  pchain  5
fix 1  all npt temp  0.45 0.45  0.1  iso  5.68  5.68  0.5  mtk yes tchain  5  pchain  5

dump dmp2 all dcd ${N} traj.dcd
dump dmp2 all dcd 1000 traj.dcd


compute msd all msd com yes
variable twopoint equal c_msd[4]/6/(step*dt+1.0e-6)
fix 9 all vector 10 c_msd[4]
variable fit equal slope(f_9)/6/(10*dt)
thermo_style custom step temp pe c_msd[4] v_twopoint v_fit v_max_n

fix 1 all npt temp 1.25 ${temp} 0.1 iso 5.68 5.68 0.5 mtk yes tchain 5 pchain 5
fix 1 all npt temp 1.25 0.45 0.1 iso 5.68 5.68 0.5 mtk yes tchain 5 pchain 5
run 5000000 # 5000000  # Run for this many steps
Neighbor list info ...
  update every 1 steps, delay 10 steps, check yes
  max neighbors/atom: 2000, page size: 100000
  master list distance cutoff = 3.8
  ghost atom cutoff = 3.8
  binsize = 1.9, bins = 9 9 9
  4 neighbor lists, perpetual/occasional/extra = 1 3 0
  (1) pair lj/cut, perpetual
      attributes: half, newton on
      pair build: half/bin/atomonly/newton
      stencil: half/bin/3d
      bin: standard
  (2) compute orientorder/atom, occasional
      attributes: full, newton on
      pair build: full/bin/atomonly
      stencil: full/bin/3d
      bin: standard
  (3) compute coord/atom, occasional
      attributes: full, newton on
      pair build: full/bin/atomonly
      stencil: full/bin/3d
      bin: standard
  (4) compute cluster/atom, occasional
      attributes: full, newton on
      pair build: full/bin/atomonly
      stencil: full/bin/3d
      bin: standard
Per MPI rank memory allocation (min/avg/max) = 9.739 | 9.747 | 9.754 Mbytes
Step Temp PotEng c_msd[4] v_twopoint v_fit v_max_n 
   12000    1.2312869   -6.0661192 2.7797486e-30 1.9303809e-32 8.3333333e+20            2 
   13000    1.2534833     -6.09323   0.56891634 0.0036468995  0.047155307            4 
   14000    1.2968872    -6.119465    1.1154449 0.0066395528  0.046064632            3 
   15000    1.2670463   -6.1121085    1.7110723  0.009505957  0.046751841            5 
   16000    1.2699728   -6.1057023    2.3149209  0.012056879  0.047607473            2 
   17000    1.2380695   -6.0899006     2.781536   0.01363498  0.047288747            4 
   18000    1.2382184   -6.1198257    3.3656816  0.015581859   0.04678567            2 
   19000    1.2468282   -6.1224488    3.9345205  0.017256668  0.046716524            2 
   20000    1.2429322   -6.1099792    4.4416349  0.018506812  0.046568651            4 
   21000    1.2249381   -6.1694671     4.914256  0.019501015  0.046084743            3 
   22000    1.2136386   -6.1143679     5.438701   0.02060114   0.04556861            3 
   23000    1.2569693   -6.1175397    5.9736894  0.021643802  0.045211856            2 
   24000    1.2297461   -6.1448689    6.4659019  0.022451048  0.044934836            3 
   25000    1.2450934   -6.1074183    6.9993401  0.023331133  0.044746872            4 
   26000     1.227173   -6.1364503    7.5603473  0.024231882  0.044629049            2 
   27000    1.2669461   -6.1199068    8.2129951   0.02534875  0.044693121            2 
   28000    1.2448907   -6.0880635    8.7875405  0.026153394  0.044896925            2 
   29000    1.2528003   -6.0831404    9.3653405  0.026911898  0.045037378            2 
   30000    1.2421879   -6.1421095    9.7829885  0.027174968  0.045050315            6 
   31000    1.2361536   -6.1402801    10.349178  0.027820371  0.045117747            5 
   32000    1.2503883   -6.0688932    10.942437   0.02849593  0.045089726            1 
   33000    1.2576988   -6.0702129    11.490701   0.02901692   0.04510939            4 
   34000    1.2214554   -6.1002914    11.983825   0.02937212  0.045157086            2 
   35000    1.2412676   -6.1148637    12.569136  0.029926514  0.045198912            3 
   36000     1.245755   -6.1201735    13.085051  0.030289471   0.04523779            3 
   37000    1.2840963   -6.1326889    13.639611  0.030719843  0.045216419            5 
   38000    1.2519538   -6.0878639    14.207779  0.031157411  0.045250679            2 
   39000    1.2288638   -6.1140129    14.755889  0.031529676  0.045252911            3 
   40000    1.2195628   -6.1007852    15.354685  0.031988926  0.045311262            2 
   41000    1.2299871   -6.0750837    15.908545  0.032334441  0.045381842            1 
   42000    1.2672009    -6.131232    16.459993  0.032658715  0.045404665            2 
   43000    1.2569588   -6.1048278     16.93681  0.032823274  0.045420933            5 
   44000    1.2648794   -6.1060458    17.527898  0.033196776  0.045435054            3 
   45000    1.2549978   -6.1096666    17.850134  0.033055804  0.045403435            3 
   46000    1.2311958   -6.1342857    18.487988  0.033492731  0.045360155            1 
   47000    1.2490543   -6.0934682     18.96764  0.033630567  0.045329269            6 
   48000    1.2271459    -6.096019    19.440364  0.033750632  0.045282691            2 
   49000    1.2349163   -6.0821657    19.970691  0.033963761    0.0452265            3 
   50000    1.2331212   -6.1262884    20.355193  0.033925322  0.045147522            2 
   51000    1.2634295   -6.1363104    20.961702  0.034251146  0.045060322            2 
   52000    1.2621628   -6.1552887    21.386652   0.03427348  0.044973964            4 
   53000    1.2384136   -6.1169803     21.88545  0.034411085  0.044873618            5 
   54000    1.2291357   -6.1095891    22.518342  0.034750528   0.04481328            2 
   55000    1.2359391   -6.1436955    22.980276    0.0348186  0.044758298            2 
   56000    1.2552189   -6.1307361    23.417728   0.03484781  0.044697068            3 
   57000    1.2418838   -6.1545895    23.893219  0.034931606   0.04463038            2 
   58000    1.2527018   -6.1139804    24.350278  0.034986031   0.04453057            2 
   59000    1.2200662    -6.079135    24.896719  0.035164857  0.044445987            2 
   60000    1.2274736    -6.134567      25.2986  0.035136944  0.044359642            3 
   61000    1.2445784   -6.0882595    25.978626  0.035489926  0.044299096            5 
   62000    1.2484585   -6.1207019    26.752113  0.035957141  0.044281798            4 
   63000    1.2885842   -6.0891654    27.182665  0.035955906  0.044269877            4 
   64000    1.2358502   -6.1057528    27.855214   0.03626981  0.044252318            3 
   65000    1.2581173   -6.1316428    28.255586   0.03622511  0.044239007            3 
   66000    1.2439242   -6.1036889    28.681012  0.036213399   0.04420444            2 
   67000    1.2366056   -6.1475483    29.320447  0.036468217  0.044181079            1 
   68000    1.2581896   -6.1234485    29.641226  0.036325031  0.044153146            2 
   69000    1.2567489   -6.0876724    30.207066  0.036481963  0.044113061            3 
   70000    1.2573321   -6.1677279    30.565973  0.036388063  0.044065595            2 
   71000    1.2273877    -6.119828    30.995881  0.036380142  0.044005735            2 
   72000    1.2375409   -6.1605145    31.337905  0.036270723   0.04393158            3 
   73000    1.2140097   -6.1602417    31.693544  0.036179845   0.04385072            4 
   74000    1.2567287   -6.0881008    32.431161  0.036521577  0.043779161            2 
   75000    1.2359846   -6.1349212    32.855587  0.036506207  0.043717449            5 
   76000     1.218534   -6.1287135    33.356064  0.036574632  0.043658007            2 
   77000    1.2620214   -6.1838092    33.805061  0.036585563  0.043594402            2 
   78000    1.2694956   -6.0844464    34.365195  0.036714952  0.043533502            2 
   79000    1.2084085   -6.1216799    34.933707  0.036849902  0.043484243            1 
   80000    1.2264208   -6.1150476    35.464117  0.036941788  0.043440962            2 
   81000    1.2182055   -6.1176922    36.274098  0.037319031   0.04341239            5 
   82000    1.2303207   -6.1370637     36.75877  0.037356473  0.043400528            3 
   83000    1.2101365   -6.0868839    37.384811   0.03753495  0.043385819            2 
   84000    1.2292494   -6.1554737    37.728103  0.037428673  0.043374408            2 
   85000    1.2353697   -6.1359469    38.290959  0.037540156  0.043362827            2 
   86000    1.2537637   -6.1404423    38.623185  0.037425567  0.043344344            1 
   87000    1.2282867   -6.1636462    39.012791  0.037368573  0.043316679            1 
   88000    1.2157253   -6.1259521    39.633858  0.037532062  0.043277474            2 
   89000    1.2400763   -6.1318209    40.149702  0.037593354  0.043246897            3 
   90000    1.2560658   -6.1623531    40.707672  0.037692288  0.043225633            1 
   91000    1.2285808     -6.11423    41.322411  0.037841036  0.043211853            3 
   92000    1.2134434   -6.1247903    41.766792  0.037832239  0.043206229            2 
   93000    1.2606004   -6.1346248    42.112776  0.037735462  0.043191912            2 
   94000    1.2480449   -6.1449769    42.803746  0.037946583  0.043179388            3 
   95000    1.2229478   -6.1048217    43.518088  0.038173761  0.043169239            7 
   96000     1.248196   -6.0810055    43.753213  0.037980219  0.043161627            2 
   97000    1.2287695   -6.1110514    44.556524  0.038278801   0.04316143            2 
   98000    1.2421311   -6.1215215    45.431108  0.038631894  0.043175575            2 
   99000    1.2347415   -6.1283097    45.631751  0.038410565  0.043192067            2 
  100000    1.2319635   -6.0995589    46.318691  0.038598909  0.043197912            1 
  101000    1.2269956   -6.1243966    46.690765  0.038523733  0.043205543            3 
  102000    1.2164001   -6.1575655    47.112242  0.038490394  0.043205261            2 
  103000    1.2339175   -6.1485045    47.698674   0.03859116  0.043201987            5 
  104000    1.2410758   -6.1586257    48.149419  0.038581265   0.04320006            1 
  105000     1.245583   -6.1328608    48.775201  0.038710477   0.04320054            2 
  106000    1.2299995   -6.1258193    49.186651  0.038668751  0.043204767            2 
  107000    1.2304736    -6.156348    49.612582  0.038639082  0.043204214            3 
  108000    1.2026057   -6.1588599    50.123252  0.038675349  0.043204812            4 
  109000    1.2290421   -6.1029658    50.727463  0.038782464  0.043207093            5 
  110000    1.2264777   -6.1554256    51.252068  0.038827324  0.043206717            3 
  111000    1.2336666    -6.125642    51.782585  0.038875815  0.043208351            4 
  112000     1.221017   -6.1217009    52.625963  0.039156222  0.043213175            4 
  113000    1.2046778   -6.1342376    53.183433  0.039220821   0.04321871            6 
  114000    1.2391179   -6.1206429    53.498412  0.039107026   0.04322588            2 
  115000    1.1917307   -6.1268384    54.100679   0.03920339  0.043239189            3 
  116000      1.22067   -6.1526929    54.704164  0.039298968  0.043250283            2 
  117000    1.2441993   -6.1366589     55.35095  0.039423753  0.043263979            3 
  118000    1.2377118   -6.1615308    55.753505  0.039373944  0.043277754            2 
  119000    1.2227203   -6.1299091    56.094787  0.039282063  0.043285252            2 
  120000    1.2451104   -6.1862969    56.542866  0.039265879  0.043292658            9 
  121000    1.2275431   -6.1239146    57.362417  0.039505797  0.043301096            2 
  122000    1.2289616   -6.1411337    57.409812  0.039214352  0.043297943            4 
  123000    1.2430294   -6.0915637    58.311303  0.039506303  0.043297638            5 
  124000    1.2507309   -6.1313584    58.688543  0.039441225  0.043297963            1 
  125000    1.2340478   -6.1212279    58.991794  0.039327862  0.043299148            4 
  126000    1.2302419   -6.1732958    59.864039  0.039592618  0.043303461            4 
  127000    1.2522428   -6.1485836    60.434608  0.039655254  0.043310283            2 
  128000    1.2388032   -6.1075662    60.761197  0.039558071  0.043314405            3 
  129000    1.2541064   -6.1313689     61.46271  0.039704593  0.043322234            3 
  130000    1.2438932   -6.1383151    62.066086  0.039785952  0.043332884            2 
  131000    1.2582597   -6.1282782    62.712149  0.039893224  0.043345916            2 
  132000    1.2426869   -6.1335981    63.343486  0.039989574  0.043359137            3 
  133000    1.2295025   -6.1797495    63.730764  0.039931557  0.043367392            2 
  134000    1.2366581    -6.115429    64.345404  0.040015798  0.043377903            2 
  135000    1.2196864   -6.1419483    64.770349  0.039981697    0.0433898            4 
  136000    1.2203418   -6.0949315    65.426992  0.040090068  0.043400063            2 
  137000     1.225611   -6.1139224    65.863762  0.040063116  0.043406547            5 
  138000     1.225768   -6.1268253    66.251382  0.040006873  0.043417528            3 
  139000    1.2468671   -6.0936704    67.157592  0.040262345  0.043431896            3 
  140000     1.238729   -6.1286701    67.482692  0.040168269  0.043448708            2 
  141000    1.2123222   -6.1441377    68.297057  0.040364691  0.043459999            2 
  142000    1.2392112   -6.1411765     68.76946  0.040357664  0.043470132            3 
  143000    1.1990786   -6.1592895    69.435472  0.040463561  0.043487314            2 
  144000    1.2118262    -6.155767    69.950679  0.040480717  0.043506914            2 
  145000    1.1951559   -6.1315491    70.400332  0.040459961  0.043524611            3 
  146000    1.2328858    -6.148725    71.377519  0.040740593  0.043550788            2 
  147000    1.2488675   -6.1698619    71.689475  0.040640292  0.043575806            3 
  148000     1.212158   -6.1328513    72.257157  0.040685336  0.043599404            3 
  149000    1.2437409   -6.1423187    72.760566  0.040693829  0.043619145            1 
  150000    1.2408289   -6.1232034    73.438445  0.040799136  0.043637567            2 
  151000    1.2376021   -6.1382937    74.007661   0.04084308  0.043657804            2 
  152000    1.2121122   -6.1274642    74.298476  0.040733813   0.04367636            2 
  153000     1.218419    -6.133343    74.784976  0.040732558  0.043693906            2 
  154000    1.2386663   -6.1314457    75.305607  0.040749787  0.043707629            2 
  155000    1.2205634    -6.133165     75.66942  0.040682484  0.043718093            3 
  156000    1.2320347   -6.1443946    76.370631  0.040796277  0.043732057            4 
  157000    1.2352694   -6.1223636    76.663637  0.040691952    0.0437488            2 
  158000    1.2081363   -6.1118236    77.602514  0.040929596  0.043758789            2 
  159000    1.2090452   -6.1029686    77.777036  0.040763646  0.043765026            5 
  160000    1.1999327   -6.1394545    78.119664  0.040687325  0.043767417            1 
  161000    1.2140913    -6.157895    78.820041  0.040797122   0.04377368            2 
  162000    1.2134924   -6.1283513    79.012516  0.040644298  0.043777988            2 
  163000    1.2035406   -6.1641389    79.549747  0.040669605   0.04377865            3 
  164000    1.2217734   -6.1361696    79.499022  0.040395844  0.043774402            3 
  165000    1.2400414   -6.1358694    80.247834  0.040529209  0.043763771            3 
  166000    1.2500627   -6.1155942    80.615826  0.040469792  0.043755773            4 
  167000    1.2154749   -6.1478446    80.677344  0.040258156  0.043741649            3 
  168000    1.2518796   -6.1051314     81.47872  0.040416032  0.043722334            1 
  169000    1.2347303   -6.1339159    81.771151   0.04032108  0.043704234            4 
  170000    1.2511577   -6.1436597     82.10781  0.040248926   0.04368494            3 
  171000    1.2018664   -6.1449758    82.972866   0.04043512  0.043665375            2 
  172000     1.211946   -6.1493189    83.253134  0.040335821  0.043646023            2 
  173000    1.2094868    -6.185078    83.738446  0.040336438    0.0436299            4 
  174000    1.1706049   -6.1695604    84.384786  0.040414169  0.043615196            7 
  175000    1.2156356   -6.1445112    84.951638  0.040453161   0.04360289            5 
  176000    1.2226521    -6.165875    85.590383  0.040525749  0.043591588            2 
  177000    1.2153026   -6.1301525    86.366225  0.040662064  0.043582515            5 
  178000    1.2220582   -6.1654772    86.530946  0.040510742  0.043572699            3 
  179000    1.2447198   -6.1378404    87.200586  0.040596176  0.043561756            6 
  180000    1.2120178     -6.16291     87.50362  0.040510935  0.043550209            5 
  181000    1.2517224   -6.1728288    87.940191  0.040488117  0.043540652            4 
  182000    1.2385577   -6.1465097    88.466453  0.040506618  0.043529137            2 
  183000     1.249172   -6.1880744    89.084362  0.040566649  0.043517127            3 
  184000    1.2345637   -6.1574835    89.777769  0.040660221  0.043509601            3 
  185000    1.2194324   -6.1498291    90.014463  0.040547055  0.043502715            1 
  186000     1.228261   -6.1356758    90.921083  0.040735252  0.043497123            5 
  187000    1.2149841   -6.1887681    91.043432  0.040571939  0.043492631            2 
  188000    1.2148292   -6.1677105    91.736287  0.040663248  0.043484895            3 
  189000     1.208681   -6.1686131    92.103106  0.040609835  0.043477517            3 
  190000     1.211308   -6.1402606    92.687311  0.040652329  0.043468298            5 
  191000    1.2524581    -6.185883     92.79114   0.04048479  0.043455381            1 
  192000    1.2205077   -6.1463911    93.342951  0.040513434  0.043444304            2 
  193000    1.2323497   -6.1412324    93.734463  0.040472566  0.043433141            2 
  194000    1.2532433   -6.1796943    94.479021  0.040583772   0.04341913            2 
  195000    1.2391523   -6.1553051     95.07755  0.040631431  0.043407778            2 
  196000    1.1938031    -6.151404    95.523515  0.040613739  0.043395473            1 
  197000    1.2280896   -6.0971088    96.192895  0.040690734  0.043385993            2 
  198000    1.2397432   -6.1776733    96.107842  0.040449428  0.043371736            3 
  199000    1.2104005   -6.1294166    96.958155  0.040602242  0.043359116            2 
  200000    1.2622601   -6.1602246    97.266708  0.040527795  0.043347208            3 
  201000    1.2100739   -6.1436084    97.936825   0.04060399   0.04333462            2 
  202000    1.2050762    -6.139682    98.187979  0.040506592  0.043321137            4 
  203000     1.198617   -6.1310764    98.766336  0.040544473  0.043306584            2 
  204000    1.2146239   -6.1467598    99.341051  0.040580494  0.043291449            3 
  205000    1.2123873   -6.1895067     99.51931  0.040455004  0.043275688            2 
  206000    1.2144138   -6.1474015    100.07577  0.040483726  0.043260323            2 
  207000    1.2164412   -6.1764834    100.35267  0.040399625  0.043243496            5 
  208000    1.2006677   -6.1696799    100.84735  0.040403587  0.043223126            3 
  209000    1.1816669   -6.0852431    101.47791  0.040461687  0.043203061            2 
  210000    1.2122413    -6.214987    101.55821  0.040300878  0.043185379            4 
  211000    1.2182014   -6.1359198    102.42475  0.040452113  0.043167563            2 
  212000    1.2248727   -6.1938169      102.863  0.040433568  0.043148194            3 
  213000    1.2022869   -6.1293437    103.79997  0.040610317  0.043131869            2 
  214000    1.2132389   -6.1599653    104.19533  0.040574505  0.043118922            3 
  215000    1.2119378   -6.1453406    104.78237   0.04061332  0.043108039            4 
  216000    1.2227132   -6.1199342    105.80737  0.040820743   0.04309672            1 
  217000    1.2159608   -6.1564764    105.98258  0.040699916   0.04308774            3 
  218000    1.2181359   -6.1523643     106.5737  0.040739182  0.043081742            2 
  219000     1.209432   -6.1934454    107.10545  0.040755497  0.043073986            3 
  220000    1.2573695   -6.1504656     107.3021  0.040644736  0.043064631            2 
  221000    1.2342603    -6.150002    108.01512  0.040729682   0.04305676            2 
  222000     1.239283   -6.2059778    108.27033  0.040642015  0.043047922            2 
  223000    1.2238465   -6.1537403    109.07389  0.040760049  0.043038814            4 
  224000    1.2019262   -6.1742588    109.54608   0.04075375  0.043030928            2 
  225000     1.237222   -6.1953356    109.79764  0.040665792  0.043022354            1 
  226000    1.2088218   -6.1797957    110.45941  0.040729871  0.043013261            2 
  227000    1.1870512   -6.1627218    110.92572  0.040721629  0.043004303            4 
  228000     1.212185   -6.1191845    111.71694  0.040832214  0.042995334            4 
  229000    1.2204671   -6.2212746    111.69145  0.040644633  0.042989462            4 
  230000    1.2061165   -6.1485562    112.47719  0.040752605  0.042982363            2 
  231000    1.2318113   -6.1633388     112.7647  0.040679907  0.042975042            2 
  232000    1.2167624   -6.1764099    113.22583  0.040670197  0.042967544            2 
  233000    1.2067474   -6.1528587    113.88956  0.040733034  0.042958877            4 
  234000    1.2130787   -6.1948707    114.32108  0.040712633  0.042949137            1 
  235000    1.2058235   -6.1687932    114.50775  0.040605585  0.042938733            2 
  236000    1.1992165   -6.1619858    114.72244  0.040509335  0.042923874            2 
  237000    1.2380508   -6.1635419    114.99581  0.040434533  0.042908431            3 
  238000    1.2070413    -6.173824    115.62464  0.040484818  0.042891495            2 
  239000    1.2180362   -6.1560306    116.06637  0.040469446  0.042876418            2 
  240000    1.2069809   -6.1868371    116.72267  0.040528704  0.042861284            3 
  241000    1.2227149   -6.1657868    117.09609  0.040489656  0.042846152            4 
  242000    1.2010165   -6.1704181     118.0994  0.040667837   0.04283213            3 
  243000    1.1865027   -6.1048813    118.73687  0.040719091  0.042821637            2 
  244000    1.2238784   -6.2006711    118.80966  0.040577069  0.042809914            4 
  245000    1.1939238   -6.1523722    120.22984  0.040894504  0.042801666            2 
  246000    1.2181455   -6.1710263     120.5878  0.040849526  0.042794837            2 
  247000    1.2110394   -6.1933429    120.81051  0.040759281  0.042790906            6 
  248000    1.2092642   -6.1780193    122.34356  0.041110068  0.042787389            8 
  249000    1.2249931   -6.1730265    122.83779  0.041110373  0.042787873            6 
  250000     1.242101   -6.1668515    123.06328  0.041021092  0.042787891            1 
  251000    1.2208781   -6.1945623    123.52144  0.041009776  0.042788045            3 
  252000    1.1941912   -6.1723199    124.35919  0.041124071  0.042788483            3 
  253000    1.2018461   -6.1801036    124.71772  0.041079618   0.04279041            2 
  254000    1.2173342   -6.1585956     125.4898  0.041171194  0.042792813            4 
  255000    1.2251917   -6.1398507    125.86126  0.041131132  0.042794862            3 
  256000    1.1983742   -6.1965421    126.07555  0.041040217  0.042795591            4 
  257000    1.2295279   -6.1780041    127.41629   0.04131527   0.04279663            2 
  258000    1.2138228      -6.1659    127.99232  0.041341188  0.042800058            2 
  259000     1.204412   -6.2038358    128.29579  0.041279212  0.042804898            2 
  260000    1.2239243    -6.195362    128.95881  0.041332951  0.042810136            2 
  261000    1.2175815   -6.1837259    129.42255  0.041322655  0.042816877            3 
  262000    1.2198856   -6.1767234    130.44973  0.041491645   0.04282312           10 
  263000    1.2168895   -6.2264002    130.64335  0.041395231  0.042829784            3 
  264000    1.2267281   -6.1978244    131.37716  0.041470064  0.042837951            2 
  265000    1.2245128   -6.1753077    132.00354  0.041510547  0.042845832            2 
  266000    1.2234227   -6.1556322    132.59714  0.041540456  0.042854334            3 
  267000     1.217142   -6.2259115     132.1474  0.041244507  0.042860843            3 
  268000    1.1874129   -6.1871995    133.79265  0.041602191  0.042867322            2 
  269000    1.2185784   -6.2053422    133.99504  0.041510234   0.04287443            4 
  270000    1.2342064   -6.2158184    134.40362  0.041482597   0.04288169            3 
  271000    1.2015472   -6.1638638    135.03967  0.041525115  0.042887322            3 
  272000     1.210729   -6.2246201    135.24887  0.041436542  0.042892911            2 
  273000    1.2262315   -6.1869001    136.42116  0.041642602  0.042897876            2 
  274000    1.2166549   -6.1748725    136.36614  0.041473886  0.042901556            2 
  275000    1.2280118    -6.152038     136.4949   0.04136209  0.042905872            3 
  276000    1.2196929   -6.1826479    137.63195  0.041555541  0.042911981            2 
  277000    1.2244341   -6.1151219    138.89568  0.041785705  0.042919463            1 
  278000    1.2365061   -6.2059443    138.29198  0.041454432  0.042925617            2 
  279000    1.2077696   -6.2331591    138.92348  0.041494467  0.042931386            2 
  280000    1.1968937   -6.1794332    139.65729  0.041564669  0.042937114            4 
  281000    1.2106813   -6.2126159    140.28416  0.041602657  0.042942548            2 
  282000    1.1900152   -6.1708683    141.08751  0.041692526  0.042946566            3 
  283000    1.2033125   -6.1645119    140.74841   0.04144535  0.042949176            3 
  284000    1.2129698    -6.162816    141.30077  0.041461494  0.042952751            3 
  285000    1.2028554   -6.1845074    142.24284  0.041591473  0.042956616            2 
  286000    1.1915591   -6.1560266    142.31503  0.041467084  0.042960977            2 
  287000    1.1972297   -6.1169951    143.46834  0.041657473  0.042965154            2 
  288000    1.1939625   -6.1941672    143.35579  0.041480262  0.042968017            2 
  289000    1.1974848     -6.19668    143.60674  0.041409095   0.04296889            2 
  290000    1.1934023   -6.1927241    144.22935  0.041445217  0.042970084            3 
  291000    1.2051266   -6.1698387    144.47002  0.041371711  0.042971288            6 
  292000    1.2134144   -6.2037057    145.36137  0.041484409  0.042971257            3 
  293000    1.2132039    -6.147013    146.07465  0.041545692  0.042971903            4 
  294000    1.2244782   -6.1588226    146.68238   0.04157664  0.042973496            3 
  295000    1.1973885   -6.2025928    146.57118  0.041404288  0.042973865            3 
  296000    1.2120878   -6.2097219    147.87411  0.041631225  0.042973761            2 
  297000     1.223929   -6.1740326    147.91933  0.041503739  0.042975627            3 
  298000     1.186932   -6.2122542    148.52451  0.041533698  0.042976511            3 
  299000     1.214964   -6.2091633     148.5066    0.0413898  0.042977284            6 
  300000    1.1931855   -6.1521893    149.63901   0.04156639  0.042979327            2 
  301000    1.2320848   -6.1947305    149.87601  0.041493913  0.042980589            3 
  302000    1.2309841   -6.1781845    150.41453  0.041505114  0.042979925            4 
  303000    1.1709993   -6.1830784    151.05776  0.041545038  0.042978783            3 
  304000    1.1760955   -6.1541214    151.11885  0.041425124  0.042978597            2 
  305000    1.1981051   -6.1470577    152.47271  0.041659211  0.042978172            2 
  306000     1.202182   -6.1811225    152.72805  0.041592607  0.042977999            2 
  307000     1.220444   -6.1882894    153.01491  0.041534992  0.042978835            3 
  308000    1.1929183   -6.1710859    153.73252  0.041594297  0.042979932            3 
  309000     1.207125   -6.1831716    154.55088  0.041680387  0.042981421            1 
  310000    1.2119212   -6.1881446    154.80978  0.041615532  0.042982824            1 
  311000    1.1835528   -6.1922475    155.23634  0.041596019  0.042984022            3 
  312000     1.168666   -6.1678843      156.133  0.041702191  0.042984617            1 
  313000     1.187347   -6.1831134    155.46368  0.041390756  0.042984244            3 
  314000    1.2107264   -6.2251278    156.47255  0.041526684  0.042983095            3 
  315000    1.1906023   -6.1900386    158.07495  0.041818769   0.04298344            1 
  316000    1.2288824   -6.1954265    157.84442  0.041625637  0.042985085            3 
  317000    1.2007709   -6.2041673    157.95722  0.041523981  0.042985245            4 
  318000    1.1827657    -6.191993    158.70967  0.041590584  0.042985191            3 
  319000     1.208174   -6.1663806    158.93327  0.041518617  0.042984714            4 
  320000    1.2148127   -6.1577376    158.95991  0.041395809  0.042983814            3 
  321000    1.2021156   -6.1780463    159.95889  0.041526191  0.042982583            4 
  322000    1.1895878   -6.2041911    160.65665  0.041577809  0.042980528            2 
  323000    1.2160363   -6.1712525    161.65897  0.041707681  0.042981184            3 
  324000    1.2186103   -6.1955251    162.07605  0.041686226  0.042982435            1 
  325000    1.1817768   -6.1696406    162.20636  0.041591373  0.042984066            3 
  326000    1.2023473   -6.2045345    162.31126  0.041490608  0.042983613            1 
  327000    1.2054156   -6.1798289    163.92495  0.041774961  0.042984712            4 
  328000    1.2026685   -6.1743757    164.04924  0.041679178  0.042985141            3 
  329000    1.2112724   -6.1932822    164.23023  0.041598336   0.04298633            4 
  330000    1.1977584   -6.1859182    165.29836  0.041742009  0.042987129            7 
  331000    1.2005155   -6.2027389    165.73962  0.041726994  0.042989202            4 
  332000    1.2121523   -6.1728625    166.19701  0.041716116  0.042991256            3 
  333000    1.2452709   -6.1771889    167.48634  0.041913499   0.04299351            2 
  334000    1.2122637   -6.2061717      167.009  0.041668912   0.04299544            2 
  335000    1.2179098   -6.1766656    167.77486  0.041735039  0.042996019            3 
  336000    1.1973762   -6.2202237    168.04086    0.0416768  0.042996344            2 
  337000     1.184388   -6.1927014    168.23413  0.041600923  0.042996122            1 
  338000    1.1720132   -6.2164585    168.71476   0.04159634  0.042994788            2 
  339000    1.2159818   -6.2177193    169.55941   0.04168127  0.042994599            3 
  340000    1.2127838   -6.2166831    169.91835  0.041646655  0.042993481            2 
  341000      1.19713   -6.2332995      170.335  0.041626343  0.042993048            4 
  342000    1.1455693   -6.1966967    170.82597  0.041624261  0.042992617            3 
  343000     1.186411   -6.2041545    171.62119  0.041696109  0.042992305            3 
  344000    1.1943175   -6.2017474     172.1496  0.041702908   0.04299279            2 
  345000    1.2080288   -6.2167547    172.56612  0.041682637  0.042994745            2 
  346000    1.2044448   -6.2216733    173.10807  0.041692695  0.042996636            5 
  347000    1.1971692   -6.2158507    173.90803  0.041764657  0.042998487            2 
  348000    1.2105001   -6.2334681    175.02127  0.041911224  0.043001854            3 
  349000    1.2134392   -6.2258191    175.27338  0.041851332  0.043004899            2 
  350000    1.2156279   -6.2009028    175.84209  0.041867163  0.043007138            2 
  351000    1.1817016   -6.2338125    176.12451  0.041814936   0.04300951            3 
  352000    1.1751326   -6.1972057    175.67661  0.041590107   0.04301005            2 
  353000    1.2137492   -6.2181706    176.60636  0.041691775  0.043011668            5 
  354000    1.1816408   -6.1900024    178.50331  0.042020553  0.043013998            2 
  355000    1.1936596   -6.2000839    178.53312  0.041909182  0.043016797            7 
  356000    1.1647405   -6.2056596    178.88667  0.041874221    0.0430203            2 
  357000    1.1711824   -6.1832125    180.10963  0.042042398  0.043024586            6 
  358000    1.1751491   -6.1869251    180.21347  0.041949133  0.043028605            3 
  359000    1.1833756    -6.185001    180.96562  0.042006876  0.043032662            5 
  360000    1.1854646   -6.2118744    181.05415  0.041910682  0.043036585            3 
  361000      1.21202   -6.2077707    181.74107  0.041953155  0.043039876            5 
  362000     1.199686   -6.2129827    182.04549  0.041907342  0.043041705            2 
  363000    1.1839864    -6.219473    182.37497  0.041867531  0.043043353            2 
  364000    1.1869002   -6.2157258    183.16804  0.041934076  0.043046046            3 
  365000    1.2018489   -6.2007567    184.12981   0.04203877  0.043049036            3 
  366000    1.2071267   -6.1772821    184.44287  0.041995189  0.043051535            4 
  367000    1.1927892   -6.2029055    184.45515  0.041883549  0.043055384            2 
  368000    1.1839433   -6.2130269    184.70692  0.041826748  0.043058086            3 
  369000    1.1849801   -6.2258377    185.51034  0.041894837  0.043059969            4 
  370000    1.1933996   -6.1938394    186.18299  0.041933107  0.043062256            2 
  371000    1.1907516   -6.2027197    186.46363  0.041883115  0.043064081            6 
  372000    1.1917565   -6.1960384    186.79002  0.041843642  0.043065038            2 
  373000    1.1910869   -6.2336676    187.45014   0.04187894  0.043066627            3 
  374000    1.1914607   -6.2419135    188.05141  0.041900939  0.043068452            3 
  375000    1.1851205   -6.2175344      188.982  0.041995999  0.043070214            2 
  376000    1.1797836   -6.2258058    189.52096  0.042003759  0.043072185            4 
  377000    1.1899232   -6.1863236    189.72431  0.041937293  0.043073324            2 
  378000    1.2052325   -6.1901633    189.98434  0.041883672   0.04307425            1 
  379000    1.2163119   -6.2228929    190.44368   0.04187416  0.043075054            3 
  380000    1.1925521   -6.2003588    191.52635  0.042001393  0.043075609            2 
  381000     1.186363   -6.2218651     191.0677  0.041790834  0.043076005            3 
  382000    1.2064182   -6.2216379    192.18483  0.041925137  0.043076495            3 
  383000    1.1764119   -6.2255365    192.41422  0.041865584  0.043076925            2 
  384000    1.1694105    -6.211471    193.18073  0.041922901  0.043078499            5 
  385000    1.2046976   -6.2626668    194.57106  0.042114947  0.043079692            1 
  386000    1.1882507   -6.2455756    193.92666  0.041866723  0.043080807            1 
  387000    1.1849665   -6.2219507    194.07213  0.041789864  0.043081201            2 
  388000    1.2153153   -6.2320677    195.06678  0.041895786  0.043081002            4 
  389000     1.192242   -6.2392388    195.12817  0.041801236  0.043080304            2 
  390000    1.1782237   -6.2178174    196.17615  0.041917981  0.043080055            3 
  391000    1.1714169   -6.1917912    196.82724   0.04194954  0.043079919            8 
  392000    1.1788646   -6.1717433     197.0013  0.041879527  0.043079087            2 
  393000    1.1876045   -6.2002415    196.92863  0.041757556  0.043078722            2 
  394000    1.1759767   -6.1603383    198.71061  0.042028471  0.043078449            1 
  395000    1.1961102   -6.1969991    199.14156  0.042012988  0.043078103            2 
  396000    1.1803011   -6.2758723    198.55832  0.041784158  0.043077357            4 
  397000    1.1774939   -6.2030269    200.13436  0.042009732  0.043076234            3 
  398000    1.1473137   -6.2089443    199.54191  0.041780133   0.04307548            2 
  399000    1.1851132   -6.2305739     200.0596  0.041783541  0.043073469            2 
  400000    1.1849995   -6.2230854    200.87721   0.04184942  0.043072155            5 
  401000    1.1898028   -6.1682704    202.11335  0.042001943  0.043071908            2 
  402000    1.1835493   -6.2370287     201.8494  0.041842745  0.043072045            3 
  403000    1.1798783   -6.2266522    202.32731  0.041837739  0.043071159            3 
  404000    1.2047688   -6.1934352    203.06357   0.04188605  0.043069438           10 
  405000    1.1892212   -6.2003919    202.92875  0.041754888  0.043066985            2 
  406000    1.1826927   -6.2132258    203.37318  0.041743263  0.043064322            5 
  407000    1.2041366   -6.2238399    203.92673   0.04175404  0.043061888            5 
  408000    1.1893461   -6.1817471    204.02013  0.041670778  0.043059585            4 
  409000    1.1780169   -6.2154131    205.60846  0.041892514  0.043057406            3 
  410000    1.1813565   -6.2329729    204.95995  0.041658526   0.04305487            3 
  411000    1.2064447   -6.2150519    205.74143  0.041715618  0.043052747            4 
  412000    1.1959002   -6.2066509    206.18618  0.041704324  0.043049992            7 
  413000    1.2092926   -6.2278096    207.01776  0.041771138  0.043046116            4 
  414000     1.177858   -6.1900911    208.04299  0.041876608  0.043042647            2 
  415000    1.1881488   -6.2334977    207.25823  0.041618119    0.0430391            2 
  416000    1.1774979    -6.212406    208.24093   0.04171493  0.043035231            3 
  417000    1.1907576   -6.2219315    208.34926  0.041636542  0.043031147            3 
  418000    1.1997913   -6.2093258    208.58087  0.041583109  0.043026918            3 
  419000     1.189843   -6.2065795    209.47149  0.041660996  0.043021858            7 
  420000    1.1843579   -6.2048303    208.71001  0.041410716  0.043016211            2 
  421000    1.1759962   -6.2230429    210.23636   0.04161448  0.043009614            3 
  422000    1.1726398   -6.2184065    210.76583  0.041620425  0.043002986            4 
  423000    1.1895534   -6.1997551    211.16049  0.041599782  0.042997201            6 
  424000    1.1620684   -6.2363383    211.71796  0.041611234  0.042991111            3 
  425000    1.1645697   -6.2002542    212.20515  0.041608852  0.042985296            5 
  426000     1.189417   -6.1996202    212.03484  0.041477865  0.042979492            4 
  427000    1.1860028   -6.2506762    212.77008  0.041524215  0.042973514            2 
  428000    1.1583212   -6.2108197    213.66791  0.041602007  0.042967009            2 
  429000    1.1850497   -6.2402844    213.64854  0.041501271  0.042960628            2 
  430000    1.1963107   -6.2065264    213.99089  0.041471103  0.042953358            2 
  431000    1.1646396   -6.2518863    213.77245  0.041332646  0.042945719            2 
  432000    1.1645172   -6.2525699    214.21634  0.041322596  0.042937281            4 
  433000    1.1834253   -6.2691404    214.01867   0.04118912   0.04292804            4 
  434000    1.1785394   -6.2122535    215.03397  0.041289165  0.042918875            3 
  435000    1.1834728   -6.2087983    214.45144  0.041082651  0.042909287            2 
  436000     1.176456    -6.221362    215.85098  0.041255921  0.042899537            4 
  437000    1.1801907   -6.2412108    215.64057   0.04112139  0.042889611            2 
  438000    1.1927925    -6.224702    216.79094  0.041246373  0.042879652            2 
  439000    1.1919164   -6.2137603    218.29107  0.041437182  0.042870553            2 
  440000    1.1906171    -6.262636    216.48758  0.041001436  0.042860295            5 
  441000    1.1870055   -6.2220564    218.01057  0.041196253   0.04284983            3 
  442000    1.1802924   -6.2501713    217.80395  0.041064094  0.042839669            2 
  443000     1.159593   -6.2005767    219.41395  0.041274257  0.042828389            3 
  444000    1.1840082   -6.2154091    219.35312  0.041169879  0.042817861            2 
  445000    1.1803083   -6.2427876    219.58164  0.041120157  0.042807699            4 
  446000    1.1752649   -6.2581849    220.28045  0.041158529  0.042797032            2 
  447000     1.172318   -6.2110778    221.21341  0.041240383  0.042787605            2 
  448000    1.1619076   -6.2199731    221.70786  0.041240302  0.042778221            3 
  449000    1.1883077   -6.2540838    221.07379  0.041030771  0.042767235            5 
  450000    1.1946229   -6.2192236    221.86418   0.04108596   0.04275564            2 
  451000    1.1682783   -6.2380272    221.62561  0.040950778  0.042744484            5 
  452000    1.1885914    -6.266004    221.55406  0.040846987  0.042732818            2 
  453000    1.2014942   -6.2607515    222.64691  0.040957856  0.042720566            3 
  454000     1.174782   -6.2193303    224.15792  0.041144992  0.042707631            3 
  455000    1.1649004   -6.2206969    224.14457   0.04105212  0.042695921            4 
  456000    1.1701069   -6.2353214    223.98494  0.040932921  0.042684196            2 
  457000    1.1955978   -6.2490052    224.54798  0.040946021  0.042672468            3 
  458000    1.1854521   -6.2478946    225.52813  0.041034958  0.042661221            3 
  459000    1.1689995   -6.2330804    225.10646  0.040869002   0.04265008            2 
  460000    1.1674578   -6.2541312    226.20427  0.040979034  0.042639067            3 
  461000    1.1868111    -6.247762    226.28208  0.040904209  0.042628606            2 
  462000     1.188174   -6.2697278    226.14304  0.040790592  0.042618038            2 
  463000    1.1959496   -6.2463709    226.74737  0.040811262  0.042607333            2 
  464000    1.1606087   -6.2397235    227.79456   0.04091138  0.042596595            3 
  465000    1.1684243   -6.2397689    229.26681  0.041087242  0.042586262            4 
  466000    1.1828905   -6.2571361    229.13036  0.040974672  0.042576643            2 
  467000    1.1849168   -6.2326982    229.80346  0.041007041   0.04256664            3 
  468000    1.2137036    -6.209601    230.47145  0.041038364  0.042556761            4 
  469000    1.1808924   -6.2026962      231.271  0.041092928  0.042546863            2 
  470000    1.1994561   -6.2596462    230.85625  0.040931958  0.042537183            4 
  471000    1.1791549   -6.2913459    230.96117  0.040863617  0.042527304            5 
  472000    1.1632668    -6.252876    232.16077  0.040988837  0.042517273            6 
  473000     1.163562   -6.2237162    233.08827  0.041065587  0.042508178            3 
  474000    1.1542928   -6.2246533    232.89607   0.04094516  0.042499023            4 
  475000    1.1805665   -6.2204325    234.36522  0.041116705  0.042489847            2 
  476000    1.1780962   -6.2534047    234.44738  0.041044709  0.042480529            4 
  477000    1.1787366   -6.2809855     234.6856   0.04100028  0.042471369            4 
  478000    1.1380422   -6.2398608    234.81399  0.040936888  0.042463346            4 
  479000     1.175759   -6.2615882    236.02521  0.041062145  0.042455272            4 
  480000    1.1882212    -6.242981    236.57616   0.04107225  0.042446376            2 
  481000    1.1907281   -6.2806396    235.90242  0.040870136  0.042437769            4 
  482000    1.1666938   -6.3095588    236.96496  0.040969045  0.042429526            3 
  483000    1.1764092   -6.1871718    238.52626  0.041153598  0.042421674            4 
  484000    1.1838509   -6.2807474    238.55061  0.041072763  0.042413633            4 
  485000    1.1671889   -6.2417081    238.47124  0.040974441  0.042403926            3 
  486000    1.1592443   -6.2553925    238.35259  0.040869786  0.042394388            2 
  487000    1.1706719   -6.2235961    238.07718  0.040738738  0.042384562            6 
  488000    1.1430295   -6.2250113    238.42133  0.040714024  0.042374034            2 
  489000    1.1522978    -6.240688    240.28919  0.040949078  0.042363985            3 
  490000    1.1825937   -6.2372073    240.03881  0.040822927  0.042353695            2 
  491000    1.1643219   -6.2205948    241.68571  0.041019299  0.042342574            2 
  492000    1.1586559   -6.2566866    240.65636  0.040761579   0.04233271            3 
  493000    1.1649439   -6.2440563    242.24857  0.040948035  0.042323791            3 
  494000    1.1643048    -6.250957    242.07345  0.040835603  0.042314496            2 
  495000    1.1823352   -6.2425596    242.40649  0.040809173  0.042305232            2 
  496000    1.1794142   -6.2739942    243.33827  0.040883446  0.042295326            1 
  497000    1.1602296   -6.2568459    243.22595  0.040782352   0.04228499            3 
  498000    1.2063726   -6.2348604    243.36838  0.040724293  0.042274488            2 
  499000    1.1668302   -6.2631034    243.40838  0.040649361  0.042264007            2 
  500000     1.192685   -6.2343687    244.01515  0.040669192  0.042253366            4 
  501000    1.1700088   -6.2363596    244.66269  0.040695723  0.042242417            2 
  502000    1.1822719   -6.2672568    245.19772  0.040703473  0.042231037            3 
  503000    1.1674599   -6.1995389    245.56501  0.040683401  0.042219939            2 
  504000    1.1735018   -6.2084518    245.85497  0.040650624  0.042209162           11 
  505000    1.1619443   -6.2825923    246.77921  0.040722641  0.042198719            5 
  506000    1.1794105    -6.254633    247.03428   0.04068417  0.042188331            2 
  507000    1.1780435   -6.2103503    247.33587  0.040653496  0.042177646            3 
  508000    1.1618446   -6.2347975    247.68843  0.040631304  0.042167369            8 
  509000    1.1479451   -6.2604598    248.27906  0.040648176  0.042156709            3 
  510000    1.1832306   -6.2476801    248.39221  0.040586963  0.042145951            2 
  511000    1.1707614   -6.2674064    249.16976  0.040634339  0.042135558            2 
  512000    1.1687294   -6.2626292    249.43194  0.040597647  0.042124999            3 
  513000    1.1569203   -6.2540539    250.24232  0.040650149  0.042114648            9 
  514000    1.1888509   -6.2646186    250.38456  0.040594124  0.042104112            4 
  515000    1.1776894   -6.2561281    251.27768  0.040659818  0.042093447            4 
  516000    1.1556861   -6.2924167    250.65404  0.040480303  0.042082835            5 
  517000    1.1653653   -6.2409455    251.93272  0.040608111   0.04207203            4 
  518000    1.1927571   -6.2406116     252.3464  0.040596267  0.042060783            2 
  519000    1.1880851   -6.2287057    252.89357  0.040605903  0.042050075            5 
  520000    1.1539901   -6.2549547    252.80393  0.040513451  0.042039129            2 
  521000    1.1513169    -6.174122    253.98137  0.040624019   0.04202783            3 
  522000    1.1613244   -6.2786971    254.24795  0.040588752  0.042016366            3 
  523000    1.1735933   -6.2839306    254.31507   0.04052184  0.042005095            3 
  524000    1.1864284   -6.2379412    254.76581  0.040516191  0.041994064            4 
  525000    1.1690095   -6.2735792     256.0017   0.04063519  0.041983127            3 
  526000    1.1700053   -6.2826217     255.1432  0.040421927   0.04197233            1 
  527000    1.1764514   -6.2320415    256.48695  0.040557709  0.041961644            5 
  528000    1.1774234      -6.2789     255.4357  0.040314978  0.041949852            3 
  529000     1.192587   -6.2909534    256.25432  0.040367725  0.041937509            3 
  530000    1.1534174   -6.2278469    256.90964  0.040394598  0.041924981            2 
  531000    1.1836226   -6.2667464     257.0263  0.040336833  0.041912919            4 
  532000    1.1799696   -6.2282031    257.40102  0.040319709  0.041900751            2 
  533000    1.1483523   -6.2378025    258.28936  0.040382952  0.041888415            3 
  534000     1.179591   -6.2503222    258.24719  0.040300747  0.041875298            2 
  535000    1.1329271   -6.2413587    258.63475  0.040285787  0.041862309            2 
  536000    1.1436706   -6.2258601    259.33857  0.040320051  0.041849782            2 
  537000    1.1507765   -6.2467285    260.19903  0.040378496  0.041837732            2 
  538000    1.1490693   -6.2542523    260.53975  0.040356219  0.041825202            4 
  539000    1.1518683   -6.2605356     260.4192  0.040262709  0.041812725            2 
  540000    1.2107602   -6.2414718    261.30607   0.04032501  0.041800311            4 
  541000    1.1563297   -6.2786726    261.21476  0.040236408  0.041787646            1 
  542000    1.1801153   -6.2646591    261.00446  0.040129837  0.041774827            4 
  543000    1.1583998   -6.2538446    262.22459  0.040243184  0.041762218            3 
  544000    1.1726577   -6.1999451    263.16265  0.040312905  0.041749593            2 
  545000    1.1867672   -6.2748295    262.61676  0.040155468  0.041736796            5 
  546000    1.1469872   -6.2690357     262.4281  0.040053129  0.041723842            2 
  547000     1.178617    -6.246694    264.23707  0.040255495  0.041710826            2 
  548000    1.1835213   -6.2385219    264.29994  0.040191597   0.04169819            3 
  549000     1.149857   -6.2351145    264.55082   0.04015647  0.041685762            5 
  550000    1.1842439   -6.2816916    265.60982  0.040243912  0.041674093            2 
  551000    1.1408266   -6.2407102    265.96418  0.040224468  0.041662434            3 
  552000    1.1678769   -6.2682084     266.7589  0.040271574  0.041651075            2 
  553000    1.1645938    -6.273466    267.76885  0.040350942  0.041640287            4 
  554000    1.1657189    -6.274731    268.07591  0.040324294  0.041630195            2 
  555000    1.1645006   -6.2559284    267.70035  0.040195247  0.041620221            4 
  556000    1.1502394   -6.2668498     269.2365  0.040353193  0.041609333            2 
  557000    1.1578028   -6.2504164    269.75516  0.040358342  0.041599576            3 
  558000    1.1621308   -6.2578229    270.22367  0.040355983   0.04158948            2 
  559000     1.169246   -6.2526378    269.81862  0.040223408  0.041580125            4 
  560000     1.143724   -6.2858922    270.86062   0.04030664   0.04157023            5 
  561000    1.1785721   -6.2750071    270.39222  0.040165214   0.04156025            2 
  562000    1.1582001   -6.2662146    272.35638  0.040384991  0.041550335            3 
  563000    1.1710231   -6.2685227    272.49209  0.040333346   0.04154073            3 
  564000     1.197072      -6.2892    272.89811  0.040321825  0.041530972            2 
  565000    1.1793886   -6.2272925    273.56671  0.040349072  0.041521557            2 
  566000    1.1793264   -6.2536481    274.62164  0.040433104  0.041512521            2 
  567000    1.1517191   -6.3096029    273.90647  0.040256682  0.041503154            2 
  568000    1.1600719   -6.2508645    275.41999  0.040407862  0.041493904            3 
  569000    1.1377367   -6.2682207    275.01751  0.040277901  0.041485688            7 
  570000    1.1504542   -6.2959236    276.65704  0.040446935  0.041476921            3 
  571000    1.1593983   -6.2687159    276.81222  0.040398748  0.041468294            4 
  572000     1.168068   -6.2540263    277.24924   0.04039179  0.041460746            3 
  573000    1.1368437   -6.2443313    278.76776   0.04054214  0.041453466            3 
  574000    1.1374895   -6.2617239    278.79622  0.040475641  0.041445751            3 
  575000    1.1660921    -6.265413    279.72466  0.040539806   0.04143807            2 
  576000     1.154825   -6.2612372    279.41037  0.040423953  0.041430731            3 
  577000    1.1541052   -6.2821321    280.35804  0.040490763  0.041424014            3 
  578000    1.1499154   -6.2569644     280.7594  0.040478576  0.041417167            4 
  579000    1.1563734   -6.2750615     281.0545  0.040451137  0.041410434            4 
  580000    1.1472909   -6.2856491    282.09141  0.040530376  0.041404097            8 
  581000    1.1501302   -6.2570957    284.16412  0.040757907  0.041398412            3 
  582000    1.1583818   -6.2658729    283.91044  0.040651552  0.041393111            3 
  583000    1.1902586   -6.2188786     283.6389   0.04054301  0.041387735            3 
  584000    1.1528287   -6.2502996    284.63369  0.040615538  0.041381714            4 
  585000    1.1794372   -6.2732176    285.00384  0.040598838     0.041376            5 
  586000    1.1553419   -6.2725336    284.71242  0.040488115  0.041369959            3 
  587000    1.1395095   -6.2618741    285.13481  0.040479104  0.041363636            3 
  588000    1.1713941   -6.2514245    285.63821  0.040481606  0.041357191            2 
  589000    1.1682052   -6.3010157     284.9417  0.040314331   0.04135007            3 
  590000    1.1628174   -6.2700021    286.84293  0.040514538  0.041342604            3 
  591000    1.1490516   -6.2547906     286.8823  0.040451537  0.041335908            3 
  592000    1.1850825   -6.2840095    286.27355  0.040297516  0.041329178            3 
  593000    1.1641823   -6.2531213    287.52919  0.040406013  0.041321962            9 
  594000    1.1550993   -6.2568871    288.24085  0.040437829  0.041314845            3 
  595000    1.1720614   -6.3222935    287.61303  0.040281937  0.041307672            2 
  596000    1.1641967   -6.3028221    288.62429  0.040355745  0.041300883            5 
  597000    1.1889683   -6.2629713    289.01157  0.040342206   0.04129356            2 
  598000    1.1655245   -6.2559158    288.74732   0.04023792  0.041286379            3 
  599000    1.1668639   -6.2692509    291.15112  0.040505164   0.04127997            2 
  600000    1.1799494   -6.2518005    290.14566  0.040298008  0.041273626            4 
  601000     1.171089   -6.2556917    291.60725  0.040433618  0.041267121            2 
  602000    1.1425775   -6.2629541    290.24136  0.040177375  0.041259825            2 
  603000    1.1687269   -6.2609803    291.01127  0.040217147  0.041251751            2 
  604000    1.1637049   -6.2542217    291.58599  0.040229855  0.041243811            2 
  605000    1.1617901   -6.2593576    292.16207  0.040242709  0.041235924            2 
  606000    1.1634631   -6.3009292    292.56396  0.040231567  0.041228014            7 
  607000    1.1428935   -6.2787545    293.60542  0.040308268  0.041220315            2 
  608000    1.1492758   -6.3021951    293.77453   0.04026515  0.041212189            3 
  609000    1.1533962   -6.2651296    293.86525  0.040211446   0.04120413            5 
  610000    1.1451226   -6.2961018    293.36618  0.040077348  0.041196207            2 
  611000    1.1332498   -6.2926608    294.00948  0.040099492  0.041187664            3 
  612000    1.1517752   -6.2930612       294.35  0.040080338  0.041179193            2 
  613000     1.150129   -6.2725404    294.91424  0.040091659   0.04117033            3 
  614000    1.1633314   -6.2912042    295.27534  0.040075372  0.041161636            2 
  615000    1.1627027   -6.3014963    294.79067  0.039944536  0.041152756            3 
  616000    1.1262092   -6.3172395    294.50882  0.039841562  0.041142898            2 
  617000    1.1548715   -6.2709049    296.68664  0.040071129  0.041133069            3 
  618000    1.1483091    -6.297624     296.7886  0.040020038  0.041123704            4 
  619000    1.1616908   -6.2503795    296.89752  0.039970048  0.041114676            2 
  620000    1.1461767   -6.2728526    298.72992  0.040151871  0.041105169            2 
  621000    1.1618568   -6.2881803     298.6001  0.040069793  0.041095869            5 
  622000    1.1672792   -6.2955022    298.10165  0.039938591  0.041086496            3 
  623000    1.1545393   -6.2889805    299.70633  0.040089129  0.041077797            2 
  624000    1.1471783   -6.3060145    299.91955  0.040053358  0.041069655            4 
  625000    1.1627255   -6.2955067    300.65908  0.040087877  0.041061132            3 
  626000      1.13357   -6.3201335    300.52291  0.040005712   0.04105263            2 
  627000    1.1628343   -6.3188424    300.60278  0.039952522  0.041043347            4 
  628000    1.1473655   -6.2663753    301.10182  0.039955125  0.041034332            3 
  629000    1.1838048   -6.2734185    301.06672  0.039886953  0.041025428            4 
  630000    1.1584381   -6.2620649    301.66064  0.039902202  0.041016315            2 
  631000    1.1523386   -6.2840675    303.11776    0.0400314  0.041007594            1 
  632000    1.1395704    -6.300811    301.95299  0.039814476  0.040998629            4 
  633000    1.1587137   -6.2776443    303.20091  0.039915865  0.040989502            4 
  634000    1.1456486   -6.2534045    303.94563  0.039950792  0.040980067            8 
  635000    1.1358302   -6.2688988    305.52406  0.040095021  0.040971628            3 
  636000    1.1666391   -6.2950134    305.10948  0.039977658  0.040962753            3 
  637000    1.1412159   -6.2140374    306.14415  0.040050255  0.040954224            4 
  638000       1.1599   -6.3164134    305.59963  0.039916357  0.040945252            3 
  639000    1.1620554   -6.2963186    305.48204  0.039838555  0.040935745            4 
  640000     1.146248   -6.2972187    305.95375  0.039837728  0.040926983            3 
  641000    1.1697029   -6.2779544    307.21132  0.039939069  0.040918471            3 
  642000     1.144864   -6.2979281    307.79477  0.039952592  0.040910278            4 
  643000    1.1344303   -6.2798623    309.18452   0.04007057  0.040901891            3 
  644000    1.1513732   -6.3249094    308.22612  0.039884332  0.040893537            2 
  645000    1.1662214   -6.3109073    309.38584  0.039972331  0.040884869            6 
  646000    1.1447297   -6.3221426    309.02829  0.039864331  0.040875879            4 
  647000    1.1210813   -6.2941576    309.38174  0.039848241  0.040866689            2 
  648000    1.1353618   -6.2528767    310.27426  0.039901525  0.040857945            3 
  649000    1.1555314   -6.3062073    310.35088  0.039849882  0.040848988            3 
  650000    1.1332503   -6.2988375    311.08002  0.039882054  0.040840877            2 
  651000    1.1584512   -6.2860781    310.76787  0.039780833  0.040831965            2 
  652000    1.1432295   -6.2796312    310.63942  0.039703402  0.040822893            4 
  653000    1.1843112   -6.2910541    312.53672  0.039884727  0.040814324            3 
  654000    1.1459077    -6.247526     313.4861  0.039944713  0.040806338            2 
  655000     1.151526   -6.2786316    312.85757  0.039803762  0.040798149            6 
  656000     1.147172   -6.2737802    313.36419  0.039807442  0.040789601            5 
  657000    1.1507032   -6.2874324    314.85148  0.039935499  0.040781404            2 
  658000    1.1455456   -6.2873668    314.02579  0.039770237  0.040773472            4 
  659000    1.1340382   -6.2573032    314.94399  0.039825998  0.040765737            5 
  660000    1.1517917   -6.3073909     316.2949  0.039936224  0.040757772            4 
  661000    1.1325745   -6.2821335     316.5507  0.039908056  0.040749726            7 
  662000    1.1502503   -6.2859475    317.57013  0.039976099    0.0407425            3 
  663000    1.1444063   -6.2995901    317.24628  0.039875098  0.040735291            3 
  664000    1.1562222   -6.2799977    318.88574  0.040020801  0.040727988            2 
  665000    1.1607108   -6.3077676    316.95117  0.039718192  0.040720653            3 
  666000    1.1365737   -6.2746617    318.96594  0.039910654  0.040713079            4 
  667000    1.1387785    -6.327886    318.38221  0.039777887   0.04070523            3 
  668000    1.1658182   -6.3023984     317.1138  0.039560105  0.040697023            2 
  669000    1.1336382   -6.2606759    319.90749  0.039848965   0.04068876            2 
  670000    1.1517931   -6.2912578    320.34713   0.03984417  0.040680729            5 
  671000    1.1745732   -6.2888817    320.27404  0.039775713  0.040673103            3 
  672000    1.1540838   -6.3104312    320.90148   0.03979433  0.040665479            4 
  673000    1.1331954   -6.3076519    321.89511  0.039858235  0.040657376            4 
  674000     1.142536   -6.2737685    322.74017  0.039903582  0.040649904            2 
  675000    1.1477251   -6.2965033    322.14756  0.039771304  0.040642523            6 
  676000    1.1515399    -6.310166    323.35005  0.039860706  0.040635079            3 
  677000    1.1746081   -6.3058303    322.95993  0.039753808  0.040627525            3 
  678000    1.1511653   -6.2289861    324.47028  0.039880812  0.040620361            3 
  679000    1.1649257   -6.2842963    324.86448  0.039870456  0.040613287            3 
  680000    1.1350242   -6.2951187    324.31429  0.039744398  0.040606287            6 
  681000    1.1629238   -6.2816398    325.69754  0.039855304  0.040598769            2 
  682000    1.1135991   -6.3137832    325.49716   0.03977238  0.040591272            2 
  683000    1.1539647   -6.3310913    325.88523  0.039761498  0.040583419            3 
  684000    1.1362951   -6.3169628    324.71883  0.039561261  0.040575575            5 
  685000     1.142775   -6.2926615    325.33448  0.039578404  0.040567223            8 
  686000    1.1464161    -6.313086    326.39548  0.039649597  0.040558777            2 
  687000    1.1633353   -6.3125753    326.59758  0.039616397  0.040550068            4 
  688000    1.1328907   -6.2878263    327.26993  0.039640253  0.040541266            7 
  689000    1.1509547   -6.2419896    327.27867  0.039583778  0.040532229            4 
  690000      1.19715   -6.2856657    328.03922  0.039618263  0.040523094            3 
  691000    1.1576922   -6.3153496    327.98264  0.039554105  0.040513509            3 
  692000    1.1489549   -6.3043337    327.91323  0.039488588  0.040503778            2 
  693000    1.1285655   -6.3000999    327.60595  0.039394655  0.040494281            2 
  694000    1.1429138   -6.2771972    329.10571  0.039517977  0.040484811            5 
  695000    1.1137936   -6.3170643    329.22895  0.039475894  0.040475351            3 
  696000    1.1439772    -6.274065    330.66084  0.039590618  0.040466085            2 
  697000    1.1522324    -6.282421    330.82908  0.039553931  0.040456888            3 
  698000    1.1404388   -6.3167004    330.13057   0.03941387  0.040447607            3 
  699000    1.1522344   -6.2784996    331.03712   0.03946556  0.040438308            1 
  700000    1.1182975   -6.2770623    332.03844  0.039528386  0.040429196            3 
  701000    1.1614589   -6.2817425    330.99311   0.03934773  0.040420124            2 
  702000     1.120717   -6.3104853    332.48124  0.039468333  0.040411393            3 
  703000    1.1335936   -6.3254466    332.48177  0.039412254  0.040402279            2 
  704000    1.1419088   -6.3272491    333.25063   0.03944728  0.040393208            4 
  705000    1.1113329   -6.2832759    332.59164  0.039313433  0.040383929            5 
  706000    1.1677256   -6.3230362    333.41645  0.039355105  0.040374262            1 
  707000    1.1354474   -6.2930453    334.41447  0.039417076  0.040364832            2 
  708000    1.1292718   -6.3265782    334.18583  0.039334491  0.040355019            3 
  709000    1.1313621    -6.338456    335.18708  0.039396695  0.040345579            5 
  710000      1.12002   -6.2921706    335.15324  0.039337235  0.040336033           16 
  711000     1.123205   -6.2926749     335.8948  0.039368823  0.040326643            3 
  712000    1.1349908   -6.3151793     335.9908  0.039324766  0.040317258            2 
  713000    1.1135152   -6.3047223    336.19162  0.039293084  0.040307659            5 
  714000    1.1267159   -6.3413269    336.49634  0.039273615  0.040298146            2 
  715000      1.15443   -6.3005751    337.49209  0.039334742  0.040288813            3 
  716000    1.1579466   -6.2914027     338.2869  0.039372311   0.04027965            2 
  717000    1.1369556   -6.3271748    338.53782  0.039346562  0.040270393           12 
  718000    1.1365778   -6.3064475    338.89624  0.039333361  0.040261529            2 
  719000    1.1402236   -6.2762751    340.33969  0.039445953  0.040252832            2 
  720000     1.142578   -6.3042752    339.72709  0.039320265  0.040244016            4 
  721000     1.159559   -6.3312677    340.79712  0.039389404  0.040235091            2 
  722000    1.1364441   -6.3172605    340.50179  0.039300761  0.040226396            3 
  723000    1.1266681   -6.2985902     340.3931  0.039233875   0.04021718            3 
  724000    1.1214785   -6.2980613    342.09315  0.039375362  0.040208195            9 
  725000    1.1278993   -6.3051618    342.17739  0.039330735  0.040198865            2 
  726000    1.1345838   -6.2942092    341.87303  0.039241624  0.040189769            3 
  727000    1.1318497   -6.3015462    342.91285  0.039306837  0.040180429            3 
  728000    1.1427623   -6.2774252    343.09349  0.039273522  0.040171486            3 
  729000    1.1209453   -6.3182458    344.13252  0.039338422  0.040162523            3 
  730000    1.1454453   -6.3386353    344.02835  0.039272642  0.040153481            4 
  731000    1.1278685    -6.288302     344.1075  0.039227941  0.040144788            5 
  732000    1.1422547   -6.3221361    345.06009  0.039282797  0.040135814            6 
  733000    1.1364678   -6.2989298    346.26345  0.039366012  0.040127197            2 
  734000    1.1576564   -6.3496435    345.45811  0.039220948  0.040119087            5 
  735000     1.114391   -6.3295451     346.6669  0.039304637  0.040110553            3 
  736000    1.1285344   -6.3044117    347.15081  0.039306025  0.040102466            6 
  737000    1.1296073    -6.294347    346.86693  0.039220593  0.040093896            2 
  738000     1.167005   -6.3293248    347.90077  0.039284188  0.040085393            3 
  739000    1.1446098   -6.2915701    347.67885  0.039206005  0.040076822            4 
  740000    1.1472768   -6.2823074      347.976  0.039186487  0.040067764            2 
  741000    1.1406076   -6.2915033     348.5192  0.039194692  0.040058739            3 
  742000    1.1296033   -6.3446103    348.08173  0.039092737  0.040049519            2 
  743000    1.1197622   -6.3409505    349.08773  0.039152953  0.040039972            3 
  744000    1.1334928    -6.330264    348.93804  0.039083562  0.040031059            3 
  745000    1.1459997   -6.3018579    349.42498  0.039085568  0.040022274            4 
  746000    1.1606452   -6.2505104    350.52663  0.039156236  0.040013604            2 
  747000    1.1468022    -6.289985    351.58809  0.039222233  0.040004601            4 
  748000    1.1187553   -6.3056587    350.73091  0.039074299    0.0399954            6 
  749000    1.1183055    -6.344879    350.58506  0.039005903  0.039985981            2 
  750000    1.1338058   -6.3279598    350.91731  0.038990812  0.039976158            4 
  751000    1.1063494   -6.3201488    352.09605   0.03906969  0.039966412            5 
  752000    1.1427654   -6.3187111    351.25251  0.038924258  0.039956733            3 
  753000    1.1087578   -6.3376232    353.26878  0.039095704  0.039947415            3 
  754000    1.1413621   -6.3056843    352.41573  0.038949573  0.039938152            5 
  755000    1.1252535   -6.3140775    353.16165  0.038980314  0.039928541            5 
  756000    1.1491936   -6.3475868    352.86988  0.038896591   0.03991871            3 
  757000    1.1288723   -6.3127481    352.85974  0.038844093  0.039908613            3 
  758000    1.1436015   -6.3123212    352.98903  0.038807061  0.039898699            3 
  759000    1.1479263   -6.3374114    353.28436  0.038788358  0.039888336            3 
  760000    1.1297789   -6.3263642     353.9359  0.038808761  0.039878313            2 
  761000    1.1359357    -6.319366    354.83078  0.038855758  0.039868227            4 
  762000    1.1214958   -6.3317924     356.4142  0.038977931  0.039858066            3 
  763000    1.1261907   -6.2965669    356.89411  0.038979261  0.039848129            4 
  764000     1.120902   -6.3343696    356.30898  0.038864418   0.03983788            4 
  765000    1.1158795   -6.3170697    356.94897   0.03888333   0.03982813            5 
  766000    1.1207472    -6.333834    356.66705  0.038801898  0.039818237            4 
  767000    1.1131437   -6.3500288    358.24947  0.038923237  0.039808467            3 
  768000    1.1425613   -6.3478711    357.92575   0.03883743  0.039798611           10 
  769000    1.1161601   -6.3542132     357.2373  0.038712321  0.039788643            4 
  770000    1.1167951   -6.3209872     358.6038  0.038809935  0.039778713            5 
  771000    1.1051159   -6.3460772     358.8622  0.038787527   0.03976866            4 
  772000    1.1065106   -6.3109284    360.27478  0.038889765  0.039758518            2 
  773000    1.1494788   -6.3365968    359.68166  0.038775513  0.039748924            5 
  774000    1.1374304   -6.3112879    360.85819  0.038852088   0.03973895            2 
  775000    1.1185751   -6.3314195     360.9567  0.038812548  0.039728716            4 
  776000    1.1369071   -6.3568314    360.30781  0.038692849  0.039718474            5 
  777000    1.1242122   -6.3152126    361.27132  0.038746388  0.039707871            7 
  778000    1.1162979   -6.3123255    361.79115  0.038752265  0.039698074            3 
  779000    1.1386924   -6.3015939    362.77186   0.03880743  0.039688034            3 
  780000    1.1502984   -6.3501893    362.12429  0.038688493  0.039678444            3 
  781000    1.1458392   -6.3199506    364.17688  0.038857968  0.039669201            1 
  782000    1.1193801   -6.3432548    364.23587  0.038814564  0.039659568            3 
  783000    1.1223507   -6.3130434    364.14414   0.03875523  0.039649896            5 
  784000    1.1239617   -6.3245984    363.90389   0.03868026  0.039640439            4 
  785000    1.1428309   -6.3547515    364.68512  0.038713919   0.03963065            5 
  786000    1.1261614        -6.29    364.64754   0.03866068   0.03962074            3 
  787000    1.1212923   -6.3449482    365.43044  0.038694456  0.039610915            3 
  788000    1.1603371    -6.336835    365.94011  0.038699251  0.039600845            4 
  789000    1.1357467   -6.3218212    366.43825  0.038702815  0.039591141            2 
  790000    1.1113227   -6.3151983    367.48423  0.038764159  0.039581493            2 
  791000    1.1258844   -6.3177279    367.15553  0.038680523   0.03957196            2 
  792000    1.1291799   -6.3109444    367.48332  0.038666174  0.039562448            7 
  793000     1.152235   -6.2780092    368.40502  0.038714273  0.039552902            3 
  794000    1.1261999   -6.3229754    368.13455  0.038637128  0.039543014            2 
  795000    1.1218408   -6.3338075      367.539    0.0385261  0.039532906            5 
  796000    1.1026057   -6.3206816    368.96219  0.038626695  0.039523258            5 
  797000    1.1274779   -6.3197432    369.50619   0.03863511  0.039513046            8 
  798000    1.1513507   -6.3371638    369.31239  0.038566457  0.039502856            2 
  799000      1.11994   -6.3215552    368.50148  0.038433613  0.039492751            4 
  800000    1.1178553   -6.3446537    369.69996  0.038510412  0.039482207            6 
  801000    1.1456621   -6.3134456    370.08864  0.038502772  0.039471937            1 
  802000    1.1430483   -6.2982137    369.85548  0.038430536    0.0394616            1 
  803000    1.1061663   -6.2805261    370.34497  0.038433475  0.039450825            2 
  804000    1.1404568   -6.3101744    371.32852  0.038487616  0.039440277            2 
  805000    1.0929094   -6.3103719    371.09302  0.038415426  0.039429354            2 
  806000    1.1258643   -6.3358773    371.14713  0.038373359   0.03941847            5 
  807000    1.1144165   -6.3279166    372.12268  0.038426547  0.039407381            4 
  808000    1.1054994   -6.3281547    370.81419  0.038244038  0.039396048            7 
[...]
 4800000   0.48424085   -7.6774065    865.62977  0.015028295  0.013710052         1682 
 4801000   0.47715855   -7.6862662    865.36974  0.015020651  0.013705796         1662 
 4802000   0.48058058   -7.6801002    865.09417  0.015012741  0.013701541         1629 
 4803000   0.48431106   -7.6580188    865.11643  0.015010001   0.01369729         1709 
 4804000   0.47939116   -7.6820559    865.74243  0.015017736  0.013693038         1685 
 4805000   0.47312249   -7.6699085    865.89808   0.01501731  0.013688793         1633 
 4806000   0.47869705   -7.6799045    865.95569  0.015015184  0.013684548         1698 
 4807000    0.4927377   -7.6787484    865.26549  0.015000095  0.013680302         1651 
 4808000   0.49011215   -7.6834416    866.12542   0.01501188   0.01367606         1639 
 4809000   0.48567914   -7.6799567     865.2835  0.014994169  0.013671813         1672 
 4810000   0.47909273   -7.6724294    865.32531  0.014991776  0.013667571         1627 
 4811000   0.48236579   -7.6765658    865.90964  0.014998781  0.013663331         1670 
 4812000   0.48688485   -7.6858384    865.16487  0.014982767  0.013659094         1646 
 4813000   0.47248385   -7.6760488    866.35308  0.015000227  0.013654856         1657 
 4814000   0.48290908   -7.6880104    867.15394  0.015010974  0.013650621         1625 
 4815000   0.48225435   -7.6627608    866.64924  0.014999122  0.013646387         1641 
 4816000   0.48125116   -7.6687747    866.72471  0.014997313  0.013642153         1618 
 4817000   0.48586665   -7.6800452    865.08146  0.014965771  0.013637925         1636 
 4818000   0.48172097   -7.6791308    865.14488  0.014963762  0.013633697         1683 
 4819000   0.49097609   -7.6844608    865.28756  0.014963124  0.013629468         1669 
 4820000   0.48193965   -7.6892583    864.84018  0.014952285  0.013625243         1648 
 4821000   0.48221278   -7.6842816    865.00167  0.014951975  0.013621018         1654 
 4822000   0.47360223   -7.6823778    867.07371  0.014984683  0.013616792         1650 
 4823000   0.47796898   -7.6826328    865.12355  0.014947881  0.013612572         1656 
 4824000   0.47710142   -7.6825373    865.67081  0.014954236  0.013608351         1659 
 4825000   0.47322106   -7.6925681    865.18147  0.014942685  0.013604129         1715 
 4826000   0.47785624   -7.6959756    864.99459  0.014936362  0.013599911         1744 
 4827000   0.48158418   -7.6924114    863.85871  0.014913658  0.013595696         1706 
 4828000    0.4721186   -7.6834469    865.75047  0.014943221  0.013591485         1715 
 4829000   0.48260932    -7.679862    864.91597  0.014925726  0.013587271         1697 
 4830000   0.47748908   -7.6908434     866.5152  0.014950228  0.013583059         1654 
 4831000    0.4755263   -7.6809114    866.02019  0.014938594  0.013578848         1710 
 4832000   0.47797107   -7.6766637    865.45014  0.014925672  0.013574641         1700 
 4833000   0.47419249   -7.6959067    867.38851  0.014956006  0.013570435         1670 
 4834000   0.47210628   -7.6981472     865.8803  0.014926912  0.013566233         1603 
 4835000   0.48372868   -7.6863504     865.3771  0.014915152  0.013562032         1657 
 4836000   0.47901455   -7.6899309    863.92467  0.014887039  0.013557833         1601 
 4837000   0.48564745   -7.6829048    865.28244  0.014907354  0.013553632         1666 
 4838000   0.47471431   -7.6892881    864.54595  0.014891587  0.013549433         1699 
 4839000   0.48009208   -7.6895193     865.7903  0.014909938  0.013545232         1658 
 4840000   0.48447055   -7.6814766    865.89033   0.01490858  0.013541033         1667 
 4841000   0.48034976   -7.6732054    865.06521  0.014891297  0.013536837         1651 
 4842000   0.46934733   -7.6962101    865.48502  0.014895446  0.013532644         1658 
 4843000   0.46951373   -7.6876507    865.68326  0.014895782  0.013528451         1673 
 4844000   0.47739555    -7.692548    864.92857  0.014879724   0.01352426         1682 
 4845000   0.47326777   -7.6934401    864.42904  0.014868061  0.013520072         1661 
 4846000   0.47598558   -7.6804687    864.82539  0.014871808  0.013515884         1697 
 4847000   0.46999307   -7.7090546    864.63004  0.014865381  0.013511697         1695 
 4848000   0.47479204   -7.6894325    866.01894  0.014886189  0.013507513         1630 
 4849000   0.47555613   -7.6945309    866.61047  0.014893285   0.01350333         1642 
 4850000   0.47774386    -7.690663     866.0071  0.014879847  0.013499147         1676 
 4851000    0.4768619   -7.7071981    864.43389  0.014849754  0.013494966         1698 
 4852000   0.46758978   -7.6932819    864.42778  0.014846589  0.013490787         1679 
 4853000   0.47058544   -7.7051889    865.44154  0.014860937   0.01348661         1729 
 4854000   0.47233526   -7.7015282     864.8339  0.014847444  0.013482435         1699 
 4855000   0.47660846   -7.6885237     865.1299  0.014849466   0.01347826         1674 
 4856000   0.48190693   -7.6866611    865.63842  0.014855135  0.013474087         1674 
 4857000   0.46346407   -7.6970827    864.73754   0.01483662  0.013469915         1702 
 4858000   0.45978048   -7.6795993    864.71103  0.014833111  0.013465742         1639 
 4859000   0.47188323   -7.6872029    864.61511  0.014828413  0.013461575         1644 
 4860000    0.4740299   -7.6930226    864.60656  0.014825215  0.013457408         1644 
 4861000   0.47502267   -7.6904809    865.26802  0.014833505  0.013453241         1625 
 4862000   0.47568263   -7.6998003    865.25993  0.014830315  0.013449078         1649 
 4863000   0.47340038   -7.6944312    864.53185  0.014814789  0.013444919         1677 
 4864000   0.46694757   -7.6947386    865.84653  0.014834268  0.013440761         1644 
 4865000    0.4766943   -7.6836632     865.7224  0.014829092  0.013436602         1639 
 4866000   0.47330457   -7.6903895    864.94756  0.014812775  0.013432442         1663 
 4867000   0.47807438   -7.6780416     864.4862  0.014801832  0.013428286         1657 
 4868000   0.47659609   -7.6838991    864.94407   0.01480663  0.013424129         1629 
 4869000   0.47837376   -7.6865233    865.42166  0.014811763  0.013419974         1644 
 4870000    0.4796277   -7.6966997    865.25661  0.014805897  0.013415823         1593 
 4871000   0.47742749   -7.7020903    864.45144  0.014789082  0.013411674         1705 
 4872000   0.47532246   -7.6941476    864.73498  0.014790897  0.013407529         1690 
 4873000   0.47906033   -7.7075522    865.81577  0.014806344  0.013403379         1628 
 4874000   0.47619232   -7.6939943     864.9524  0.014788545  0.013399232         1689 
 4875000   0.46334916   -7.7103878    865.14278  0.014788766  0.013395087         1670 
 4876000   0.45944653   -7.6800081    864.37517  0.014772614  0.013390945         1650 
 4877000   0.45600761   -7.7026366    865.28235  0.014785086  0.013386806         1653 
 4878000   0.48769306   -7.7100262    864.39717  0.014766933  0.013382665         1685 
 4879000   0.47768983   -7.7002977    864.32121  0.014762609   0.01337853         1652 
 4880000   0.47555071   -7.7024107    865.12096   0.01477324  0.013374391         1689 
 4881000   0.46667624    -7.710724    864.65597  0.014762275  0.013370252         1711 
 4882000   0.46368752   -7.6818799    865.11491  0.014767085  0.013366117         1660 
 4883000    0.4658728   -7.6818954    864.27122  0.014749662  0.013361988         1690 
 4884000   0.46998686   -7.6930489     865.0001  0.014759079  0.013357859         1711 
 4885000   0.46593105   -7.7066507    865.40764   0.01476301  0.013353734         1695 
 4886000   0.46439735   -7.7001226    864.55306  0.014745413  0.013349607         1714 
 4887000   0.47576686   -7.7042157    865.38563  0.014756593  0.013345483         1694 
 4888000   0.46966348   -7.7099451    864.26048  0.014734392  0.013341359         1704 
 4889000   0.46537379   -7.6934193    865.06258   0.01474505  0.013337236         1701 
 4890000   0.46430398   -7.6934954    866.15918  0.014760722  0.013333113         1686 
 4891000   0.46825974   -7.6951562     864.2703  0.014725521  0.013328992         1626 
 4892000   0.46239757    -7.673847    865.24017  0.014739033  0.013324871         1642 
 4893000   0.47246374   -7.6970994    864.27188  0.014719529  0.013320755         1688 
 4894000   0.45524278   -7.7015968    865.38042  0.014735397  0.013316642         1687 
 4895000   0.47169422   -7.7004104    864.68901  0.014720616  0.013312525         1675 
 4896000   0.46881578   -7.6986331     864.7186  0.014718113   0.01330841         1669 
 4897000   0.47512047   -7.6956058    865.75663  0.014732772  0.013304299         1661 
 4898000   0.47389927   -7.7079965    864.25735  0.014704256  0.013300191         1714 
 4899000   0.45997236   -7.7050549    864.00574  0.014696974  0.013296077         1638 
 4900000   0.47445543   -7.7070316    864.38586   0.01470044  0.013291972         1679 
 4901000   0.46934298   -7.7037325    865.31544  0.014713246  0.013287865         1689 
 4902000   0.45767764   -7.6880569    863.73637  0.014683401  0.013283758         1636 
 4903000   0.46932165   -7.7097048    865.00906  0.014702037  0.013279655         1683 
 4904000   0.46155228   -7.7207294    865.95744  0.014715155  0.013275552         1697 
 4905000   0.46756449   -7.6930436    864.68168  0.014690481  0.013271453         1670 
 4906000   0.47254238   -7.6959169    863.63182  0.014669653  0.013267354         1638 
 4907000    0.4632686   -7.6916398    864.90573  0.014688298  0.013263261         1659 
 4908000   0.46142041   -7.6859571    865.18238  0.014690002  0.013259165         1652 
 4909000   0.46621812   -7.6950462    863.46652  0.014657882  0.013255071         1664 
 4910000   0.47417575   -7.6853467    865.57958   0.01469076  0.013250981         1655 
 4911000   0.46459514   -7.7089763    865.25602  0.014682278  0.013246891         1679 
 4912000   0.46749473   -7.7162412    863.91556  0.014656548  0.013242802         1700 
 4913000    0.4635555   -7.6974188    864.37778  0.014661405  0.013238715         1630 
 4914000    0.4677184   -7.7079596    864.84737  0.014666385  0.013234624         1675 
 4915000   0.47260517   -7.7007361    864.32263  0.014654504   0.01323054         1669 
 4916000     0.476778   -7.6989032    865.12812  0.014665177  0.013226454         1671 
 4917000   0.47352619   -7.7058709    864.91275  0.014658544  0.013222371         1760 
 4918000   0.46459834   -7.6983362    864.93945  0.014656016  0.013218288         1675 
 4919000   0.47428939   -7.6917912    864.23258  0.014641062  0.013214204         1729 
 4920000   0.46223258   -7.7086577    865.27323  0.014655712  0.013210125         1710 
 4921000   0.46506954   -7.7101808    864.99075   0.01464795  0.013206043         1698 
 4922000   0.46216909   -7.7226048    864.61519  0.014638616  0.013201966         1693 
 4923000   0.46110081    -7.706957    863.88287  0.014623246  0.013197893         1691 
 4924000   0.47834393   -7.6846913    864.67121  0.014633618   0.01319382         1682 
 4925000   0.46952401   -7.7044676    865.26136  0.014640632  0.013189751         1693 
 4926000   0.47128695   -7.7103219    864.28457  0.014621136  0.013185681         1669 
 4927000   0.46974305   -7.6993426    866.20172  0.014650594  0.013181612         1674 
 4928000   0.48118551   -7.7076774    864.23543  0.014614371  0.013177543         1698 
 4929000   0.45685264   -7.6964336    863.79223  0.014603913  0.013173478         1710 
 4930000   0.46290471   -7.7182905    863.15672  0.014590208  0.013169413         1703 
 4931000    0.4692169   -7.7053364    864.50428  0.014610023  0.013165349         1679 
 4932000   0.46370175   -7.7008785      863.928  0.014597324  0.013161287         1731 
 4933000   0.44942531   -7.7159486    864.54429  0.014604775  0.013157224         1736 
 4934000   0.45984729    -7.711817    864.63048  0.014603271  0.013153162         1686 
 4935000   0.46281117   -7.7009365    863.49952  0.014581214  0.013149102         1708 
 4936000   0.46544425   -7.7268304    864.49169  0.014595011  0.013145049         1705 
 4937000   0.45884709   -7.7169559    864.07041  0.014584944  0.013140995         1683 
 4938000    0.4643042   -7.7277849    864.11657  0.014582769  0.013136944         1731 
 4939000   0.45700652   -7.7254102    862.75233  0.014556799  0.013132888         1696 
 4940000   0.45305466    -7.707779    864.32477  0.014580377  0.013128837         1643 
 4941000   0.47022567   -7.7082042    864.34444  0.014577758   0.01312479         1717 
 4942000   0.45331858   -7.7124642    864.62139  0.014579478  0.013120746         1645 
 4943000   0.45868441   -7.7260768     864.7212  0.014578212  0.013116706         1692 
 4944000   0.46110907   -7.7034206    864.39638  0.014569788  0.013112662         1737 
 4945000   0.46582019     -7.70827    864.52565   0.01456902  0.013108619         1720 
 4946000   0.45406893   -7.7065568    864.18179  0.014560281  0.013104578         1704 
 4947000   0.45708591    -7.716715    863.28535  0.014542237   0.01310054         1702 
 4948000   0.46403078   -7.7177245    864.01577    0.0145516  0.013096504         1636 
 4949000   0.46490002   -7.7177469    864.40649  0.014555238  0.013092469         1652 
 4950000   0.46544629   -7.6996797    863.89481  0.014543684  0.013088435         1702 
 4951000   0.45683258   -7.7136998    864.59221  0.014552485  0.013084401         1716 
 4952000   0.45747528   -7.7079958    864.66504  0.014550771  0.013080368         1679 
 4953000   0.45996742   -7.7163078    864.23967  0.014540677  0.013076338         1655 
 4954000   0.45600467   -7.7122285    863.43241  0.014524162   0.01307231         1680 
 4955000    0.4696481    -7.701834    864.83392  0.014544802  0.013068283         1711 
 4956000   0.45590667   -7.7200075    864.91981  0.014543311  0.013064256         1695 
 4957000   0.45482461   -7.7201074    863.16023  0.014510797   0.01306023         1695 
 4958000   0.45429089   -7.7217805    864.43436  0.014529285  0.013056206         1725 
 4959000   0.45742532   -7.7251085    864.51972   0.01452779  0.013052183         1632 
 4960000   0.46467019   -7.7203916    863.67927   0.01451074  0.013048165         1627 
 4961000   0.45772507   -7.7155135    864.95829    0.0145293  0.013044144         1689 
 4962000   0.45378946   -7.7225371    864.18506  0.014513386  0.013040125         1710 
 4963000   0.45468706     -7.72671    863.83686  0.014504615  0.013036111         1737 
 4964000   0.45091258    -7.714685    864.65204  0.014515378  0.013032098         1716 
 4965000   0.46155255   -7.7064903    862.26991  0.014472472  0.013028085         1678 
 4966000   0.46264195   -7.7115889    864.25911  0.014502938  0.013024074         1693 
 4967000   0.46417787   -7.7105657    863.54288  0.014488002  0.013020067         1719 
 4968000   0.45320384     -7.70681    863.26711   0.01448046   0.01301606         1714 
 4969000   0.45506771   -7.7270122    864.56157  0.014499255  0.013012057         1670 
 4970000   0.45862092   -7.7185072    863.59769  0.014480176  0.013008053         1727 
 4971000   0.47201957   -7.7193186    864.23995   0.01448803  0.013004053         1658 
 4972000   0.45347332   -7.7121082    864.84468  0.014495251   0.01300005         1646 
 4973000   0.45868556   -7.7169791    865.05641  0.014495885  0.012996051         1711 
 4974000   0.46088431   -7.7132114     863.7189  0.014470562  0.012992053         1790 
 4975000   0.44437792   -7.7168511    863.91652  0.014470963  0.012988058         1685 
 4976000   0.45124629   -7.7129285    864.24711  0.014473592  0.012984062         1697 
 4977000   0.46006176   -7.7375006    863.73585  0.014462123  0.012980067         1686 
 4978000   0.45686123   -7.7171845    862.99764   0.01444686  0.012976077         1679 
 4979000    0.4581275   -7.7271395    865.08358  0.014478871  0.012972086         1675 
 4980000   0.46579346   -7.7141643    863.59154  0.014450996  0.012968094         1720 
 4981000    0.4631888   -7.7128104    863.30615   0.01444332  0.012964104         1698 
 4982000   0.46120902   -7.7060655    864.67368  0.014463296  0.012960115         1756 
 4983000   0.46061096   -7.7176853    864.22264   0.01445285  0.012956132         1746 
 4984000   0.45444053   -7.7305752    864.08969  0.014447728  0.012952151         1703 
 4985000   0.45399288   -7.7422831    864.23557  0.014447268  0.012948165         1725 
 4986000    0.4573695   -7.7150074    863.02843  0.014424195  0.012944182         1704 
 4987000   0.45728568   -7.7140751    864.83047  0.014451415  0.012940203         1684 
 4988000   0.45930881   -7.7211279    864.33424  0.014440227  0.012936226         1719 
 4989000   0.45053992   -7.7112161    864.42537  0.014438855  0.012932248         1705 
 4990000   0.45255147   -7.7098471    864.82754  0.014442678  0.012928273         1716 
 4991000   0.45469882   -7.7265872     864.0677  0.014427097  0.012924299         1672 
 4992000   0.46400975   -7.7123772    864.28006  0.014427752  0.012920327         1716 
 4993000   0.46428581   -7.7317889    864.15667  0.014422803  0.012916353         1713 
 4994000   0.44844426   -7.7267177    862.74548  0.014396367  0.012912383         1753 
 4995000   0.45107297   -7.7088378    864.10184  0.014416113  0.012908414         1733 
 4996000   0.45430401   -7.7196175    864.13489  0.014413779  0.012904448         1720 
 4997000   0.45062855    -7.711095    862.87956   0.01438996  0.012900484         1696 
 4998000   0.45402846   -7.7323414    863.75829  0.014401732  0.012896518         1716 
 4999000   0.45237754   -7.7252335    864.97031  0.014419056  0.012892553         1732 
 5000000   0.45488057    -7.730571    864.74786  0.014412464  0.012888592         1708 
 5001000   0.45165427   -7.7291585    862.88062  0.014378468  0.012884633         1724 
 5002000   0.44799641   -7.7175967    862.83567  0.014374845  0.012880677         1733 
 5003000   0.45123886   -7.7204466    864.15249  0.014393905  0.012876722         1672 
 5004000   0.45944197   -7.7228734     863.7241  0.014383894  0.012872764         1791 
 5005000   0.45917347   -7.7284209    864.05986  0.014386611  0.012868811         1699 
 5006000   0.45152372   -7.7216684    863.14154   0.01436845  0.012864857         1724 
 5007000   0.44619611   -7.7155442    863.99874  0.014379847  0.012860905         1688 
 5008000   0.44573823   -7.7268192    862.51257  0.014352246  0.012856954         1718 
 5009000   0.45036964   -7.7268022    864.48934  0.014382268  0.012853006         1728 
 5010000    0.4544573   -7.7033094    863.61853  0.014364912   0.01284906         1712 
 5011000   0.46026947   -7.7316213    862.60509  0.014345192  0.012845118         1690 
 5012000   0.45571588   -7.7319898    863.11376  0.014350787  0.012841172         1707 
Loop time of 10803 on 48 procs for 5000000 steps with 4000 atoms

Performance: 79977.947 tau/day, 462.835 timesteps/s
99.4% CPU use with 48 MPI tasks x no OpenMP threads

MPI task timing breakdown:
Section |  min time  |  avg time  |  max time  |%varavg| %total
---------------------------------------------------------------
Pair    | 719.98     | 775.14     | 804.81     |  52.7 |  7.18
Neigh   | 67.054     | 68.249     | 69.419     |   6.5 |  0.63
Comm    | 575.58     | 620.87     | 671.99     |  73.9 |  5.75
Output  | 14.203     | 14.207     | 14.285     |   0.3 |  0.13
Modify  | 9163.5     | 9201.5     | 9249.6     |  22.6 | 85.18
Other   |            | 123        |            |       |  1.14

Nlocal:        83.3333 ave          90 max          78 min
Histogram: 3 4 10 3 8 7 5 2 5 1
Nghost:        1795.67 ave        1819 max        1774 min
Histogram: 2 2 7 7 10 5 7 2 4 2
Neighs:        10988.3 ave       12741 max       10145 min
Histogram: 7 8 7 13 2 6 3 1 0 1
FullNghs:      21977.4 ave       23902 max       20425 min
Histogram: 1 6 9 6 11 1 6 1 5 2

Total # of neighbors = 1054917
Ave neighs/atom = 263.72925
Neighbor list builds = 269728
Dangerous builds = 1

#clear
#
#next RN
#
#jump SELF
Total wall time: 3:00:05
