
units lj                  # Use reduced LJ style units
atom_style atomic         # Uncharged point particles
atom_modify map hash      # Needed for indexing of clusters etc
                          # Used to be able to find where atoms are in relation to each other.

lattice fcc 1.0 spacing 1 1 1
Lattice spacing in x,y,z = 1.5874011 1.5874011 1.5874011
region box block 0 10 0 10 0 10 units lattice
create_box 2 box
Created orthogonal box = (0.0000000 0.0000000 0.0000000) to (15.874011 15.874011 15.874011)
  3 by 4 by 4 MPI processor grid
create_atoms 1 box
Created 4000 atoms
  using lattice units in orthogonal box = (0.0000000 0.0000000 0.0000000) to (15.874011 15.874011 15.874011)
  create_atoms CPU = 0.002 seconds
set type 1 type/fraction 2 0.65 78393
Setting atom values ...
  2613 settings made for type/fraction
mass 1 1.0
mass 2 1.0
pair_style lj/cut  3.5
pair_modify tail  yes
pair_coeff 1  1  1.0  1.0   # Intearaction between 1 and 1 set with epsilon = 1 and sigma = 1
pair_coeff 1  2  1.5  0.8
pair_coeff 2  2  0.5  0.88

write_data data.0
System init for write_data ...
Neighbor list info ...
  update every 1 steps, delay 10 steps, check yes
  max neighbors/atom: 2000, page size: 100000
  master list distance cutoff = 3.8
  ghost atom cutoff = 3.8
  binsize = 1.9, bins = 9 9 9
  1 neighbor lists, perpetual/occasional/extra = 1 0 0
  (1) pair lj/cut, perpetual
      attributes: half, newton on
      pair build: half/bin/atomonly/newton
      stencil: half/bin/3d
      bin: standard
WARNING: Not all mixed pair coeffs generated from mixing. Use write_data with 'pair ij' option to store all pair coeffs. (../write_data.cpp:312)


#############################
#   M E L T   S Y S T E M   #
#############################

velocity all create 2.4 8172548 mom yes dist gaussian # Assign velocities
                                                    # Temperature 2.4, random number seed, zero linear momentum
                                                                                # Gaussian distribution

timestep 0.002   # simulation timestep
thermo 1000       # output thermodynamic data every 1000 steps bf 100

# Define a fix  in this case with index 1 applied to all
# particles in the simulation. This fix is for simulations
# in the anisotropic NPT ensemble. Note that we use the MTK
# correction.
fix 1 all npt temp 2.4 2.4 0.1 iso 5.68 5.68 0.5 mtk yes tchain 5 pchain 5 # Use NPT ensemble
                                                                         # Set temperature and pressure and damping
                                                                         # Numbers of thermostats in chain and in barostat
run 10000          # run for 10000 steps
Per MPI rank memory allocation (min/avg/max) = 3.642 | 3.644 | 3.648 Mbytes
Step Temp E_pair E_mol TotEng Press Volume 
       0          2.4   -4.4517567            0  -0.85265669   -3.9326408         4000 
    1000    2.4196289   -4.1010989            0  -0.47256292    5.7920201    3645.3022 
    2000    2.4085077   -4.1466893            0  -0.53483086    5.3666587    3657.2638 
    3000     2.405367   -4.1242119            0  -0.51706349    5.5133936    3656.9607 
    4000    2.3921203   -4.1019629            0  -0.51467953    6.0230843    3619.3779 
    5000    2.4316178   -4.1715906            0  -0.52507574     5.554805    3623.6176 
    6000     2.380725   -4.1728145            0  -0.60261981    5.6621086    3623.4858 
    7000    2.4478425   -4.2133204            0   -0.5424746    5.6943902    3604.4732 
    8000    2.3942321   -4.2322607            0  -0.64181031    5.4903869    3586.1985 
    9000    2.4401162   -4.1691079            0  -0.50984869    5.6094104    3625.9626 
   10000    2.4110904   -4.1608357            0  -0.54510425    5.5664966    3643.4265 
Loop time of 2.65838 on 48 procs for 10000 steps with 4000 atoms

Performance: 650019.475 tau/day, 3761.687 timesteps/s
99.6% CPU use with 48 MPI tasks x no OpenMP threads

MPI task timing breakdown:
Section |  min time  |  avg time  |  max time  |%varavg| %total
---------------------------------------------------------------
Pair    | 1.223      | 1.2671     | 1.3663     |   2.6 | 47.67
Neigh   | 0.21812    | 0.22401    | 0.23922    |   0.8 |  8.43
Comm    | 0.8043     | 0.89279    | 0.95175    |   3.4 | 33.58
Output  | 0.00024109 | 0.00024716 | 0.0003224  |   0.0 |  0.01
Modify  | 0.22952    | 0.25872    | 0.29036    |   3.1 |  9.73
Other   |            | 0.01547    |            |       |  0.58

Nlocal:        83.3333 ave          96 max          75 min
Histogram: 3 6 10 9 5 6 6 0 1 2
Nghost:        1747.46 ave        1774 max        1719 min
Histogram: 2 3 3 9 9 3 8 3 3 5
Neighs:        10476.9 ave       13130 max        9304 min
Histogram: 5 8 16 7 5 4 0 2 0 1

Total # of neighbors = 502889
Ave neighs/atom = 125.72225
Neighbor list builds = 907
Dangerous builds = 218

# Equilibrate just above the melting temperature to avoid step fn in T

fix 1 all npt temp 1.25 1.25 0.1 iso 5.68 5.68 0.5 mtk yes tchain 5 pchain 5
run 2000
Per MPI rank memory allocation (min/avg/max) = 3.644 | 3.646 | 3.650 Mbytes
Step Temp E_pair E_mol TotEng Press Volume 
   10000    2.4110904   -4.1608357            0  -0.54510425    5.5664966    3643.4265 
   11000    1.2435186   -6.1213569            0   -4.2565453    5.7603408    2765.8957 
   12000    1.2739547    -6.168967            0   -4.2585127    5.7201518    2751.0052 
Loop time of 0.670985 on 48 procs for 2000 steps with 4000 atoms

Performance: 515063.922 tau/day, 2980.694 timesteps/s
99.7% CPU use with 48 MPI tasks x no OpenMP threads

MPI task timing breakdown:
Section |  min time  |  avg time  |  max time  |%varavg| %total
---------------------------------------------------------------
Pair    | 0.29784    | 0.32529    | 0.38361    |   2.5 | 48.48
Neigh   | 0.040962   | 0.043725   | 0.05098    |   0.8 |  6.52
Comm    | 0.19303    | 0.2516     | 0.28319    |   3.0 | 37.50
Output  | 5.1618e-05 | 5.2996e-05 | 6.9803e-05 |   0.0 |  0.01
Modify  | 0.038461   | 0.045436   | 0.050742   |   1.9 |  6.77
Other   |            | 0.004878   |            |       |  0.73

Nlocal:        83.3333 ave          90 max          76 min
Histogram: 3 1 4 7 6 6 7 9 4 1
Nghost:        2119.69 ave        2146 max        2097 min
Histogram: 6 2 6 9 4 3 5 9 3 1
Neighs:        13868.4 ave       15501 max       12132 min
Histogram: 2 3 4 8 5 6 7 7 4 2

Total # of neighbors = 665685
Ave neighs/atom = 166.42125
Neighbor list builds = 143
Dangerous builds = 22

#############################
# L I N E A R  Q U E N C H  #
#############################

# Define solid atoms. This closely follows ten Wolde  Ruiz-Montero and Frenkel  Faraday Discuss  1996  104  93-110
# Compute components of the per-atom q6 vector
compute q6 all orientorder/atom degrees 1 6 components 6 nnn NULL cutoff 1.3 # compute the Q6 parameter.
                                                                             # Use all neighbours within 1.3 unit cell.

# get number of connections
compute coord_number all coord/atom orientorder q6 0.5

# An atom is solid if it has 8 or more connections (of a possible 14)
variable is_solid atom c_coord_number>=8
group solid dynamic all var is_solid    # Must be dynamic to update
dynamic group solid defined

# do clustering
compute cluster solid cluster/atom 1.3 # Create a cluster where all atoms within are solid and max 1.3 units from another member

# define chunks one chunk per cluster
compute clus_chunks solid chunk/atom c_cluster nchunk every compress yes  # Says which atoms are in which chunk

# count the size of each chunk
compute size_chunks solid property/chunk clus_chunks count


# Find the maximum entry in the vector of chunk sizes
variable max_n equal max(c_size_chunks)


# Thermo style which includes this variable
# thermo_style custom step temp pe vol v_max_n

thermo ${N}  # Print the thermo information every 100 steps
thermo 1000  

# Reset the npt fix at a lower temperature (below freezing)
fix 1  all npt temp  ${temp} ${temp}  0.1  iso  5.68  5.68  0.5  mtk yes tchain  5  pchain  5
fix 1  all npt temp  0.45 ${temp}  0.1  iso  5.68  5.68  0.5  mtk yes tchain  5  pchain  5
fix 1  all npt temp  0.45 0.45  0.1  iso  5.68  5.68  0.5  mtk yes tchain  5  pchain  5

dump dmp2 all dcd ${N} traj.dcd
dump dmp2 all dcd 1000 traj.dcd


compute msd all msd com yes
variable twopoint equal c_msd[4]/6/(step*dt+1.0e-6)
fix 9 all vector 10 c_msd[4]
variable fit equal slope(f_9)/6/(10*dt)
thermo_style custom step temp pe c_msd[4] v_twopoint v_fit v_max_n

fix 1 all npt temp 1.25 ${temp} 0.1 iso 5.68 5.68 0.5 mtk yes tchain 5 pchain 5
fix 1 all npt temp 1.25 0.45 0.1 iso 5.68 5.68 0.5 mtk yes tchain 5 pchain 5
run 2000000 # 5000000  # Run for this many steps
Neighbor list info ...
  update every 1 steps, delay 10 steps, check yes
  max neighbors/atom: 2000, page size: 100000
  master list distance cutoff = 3.8
  ghost atom cutoff = 3.8
  binsize = 1.9, bins = 8 8 8
  4 neighbor lists, perpetual/occasional/extra = 1 3 0
  (1) pair lj/cut, perpetual
      attributes: half, newton on
      pair build: half/bin/atomonly/newton
      stencil: half/bin/3d
      bin: standard
  (2) compute orientorder/atom, occasional
      attributes: full, newton on
      pair build: full/bin/atomonly
      stencil: full/bin/3d
      bin: standard
  (3) compute coord/atom, occasional
      attributes: full, newton on
      pair build: full/bin/atomonly
      stencil: full/bin/3d
      bin: standard
  (4) compute cluster/atom, occasional
      attributes: full, newton on
      pair build: full/bin/atomonly
      stencil: full/bin/3d
      bin: standard
Per MPI rank memory allocation (min/avg/max) = 9.845 | 9.853 | 9.861 Mbytes
Step Temp PotEng c_msd[4] v_twopoint v_fit v_max_n 
   12000    1.2739547    -6.168967 8.3205104e-31 5.778132e-33 8.3333333e+20            2 
   13000     1.282386   -6.1477863   0.52682719 0.0033770973  0.043372131            3 
   14000    1.2476133   -6.1901636    1.0294715 0.0061278064  0.042227233            2 
   15000     1.249235    -6.166423    1.5144178  0.008413432  0.041420631            2 
   16000    1.2560998   -6.1922387    2.0122982   0.01048072  0.041264218            3 
   17000     1.247561   -6.2200847    2.5305784  0.012404796  0.041453966            1 
   18000    1.2673052   -6.2244476    3.0904043  0.014307427  0.042119624            3 
   19000    1.2443299   -6.2172932    3.6056357  0.015814191  0.042606252            4 
   20000     1.238214   -6.1991534    4.0760035  0.016983347  0.042674653            4 
   21000     1.240433   -6.1650794    4.6062962  0.018278953  0.042566412            2 
   22000    1.2374727   -6.2195869    5.1180506  0.019386555  0.042686827            4 
   23000    1.2479717   -6.1484186     5.617263  0.020352402  0.042626646            2 
   24000    1.2428016   -6.1766029    6.0390561  0.020968944  0.042433202            3 
   25000    1.2413174   -6.1976943    6.5321378  0.021773792  0.042189841            5 
   26000    1.2560507   -6.2055945    7.0135422  0.022479301  0.041976471            2 
   27000     1.261846    -6.173533    7.6097278  0.023486814  0.041926229            3 
   28000    1.2444514   -6.2343845    8.0848741  0.024062125  0.041953899            3 
   29000    1.2567292   -6.1663487    8.6581478  0.024879735  0.042047121            3 
   30000    1.2663426   -6.2277359    9.0633113  0.025175864  0.042100392            2 
   31000    1.2536958   -6.2045345     9.526356  0.025608483   0.04199893            1 
   32000    1.2220958   -6.1956497    10.072322  0.026230005  0.041958591            2 
   33000    1.2492057   -6.2476631    10.467495  0.026433067   0.04186581            1 
   34000    1.2487314   -6.2632581    10.903308  0.026723793  0.041713473            4 
   35000     1.239996   -6.1641107    11.467021   0.02730243   0.04157067            2 
   36000    1.2352994   -6.2760244    11.802829  0.027321362  0.041435056            1 
   37000    1.2535003   -6.2201862    12.291624  0.027683836  0.041300909            4 
   38000    1.2406392   -6.2547488    12.803384  0.028077595  0.041180058            3 
   39000    1.2103417   -6.2418375    13.294393  0.028406821  0.041082883            2 
   40000    1.2410683   -6.2572625    13.913353  0.028986151  0.041042965            3 
   41000    1.2267494   -6.1953841    14.522527   0.02951733  0.041078639            4 
   42000    1.2182306   -6.1948076    15.107796  0.029975786  0.041159492            1 
   43000    1.2458251   -6.2626857    15.382233  0.029810529  0.041216097            2 
   44000     1.222759    -6.210889    15.922472  0.030156197  0.041221496            2 
   45000    1.2341668   -6.2192418    16.289457  0.030165661  0.041199993            1 
   46000    1.2260293   -6.2451253    16.849421  0.030524314  0.041150908            1 
   47000    1.2290346   -6.2065832    17.180928  0.030462637  0.041106768            3 
   48000    1.2507239     -6.18655    17.881135  0.031043637  0.041050402            3 
   49000    1.2145351   -6.2301049    18.288116  0.031102237  0.041043894            5 
   50000    1.2268791   -6.2208812    18.805699  0.031342832  0.041036597            4 
   51000    1.2483084   -6.2491448    19.303425  0.031541544  0.041046924            4 
   52000    1.2489339   -6.2384619    20.077913  0.032176143  0.041090638            2 
   53000     1.226563   -6.1840635    20.556835  0.032322068  0.041141411            6 
   54000    1.2395545   -6.2286728    21.011179  0.032424659   0.04118609            3 
   55000     1.230891    -6.252184      21.4132  0.032444242  0.041195451            2 
   56000    1.2353242   -6.2390669    21.855587  0.032523195  0.041195437            5 
   57000    1.2393591   -6.2271721    22.269257  0.032557393  0.041182583            2 
   58000    1.2508505   -6.2140643    23.031288  0.033090931  0.041191435            2 
   59000    1.2095559   -6.2478835    23.457568  0.033132157  0.041225268            3 
   60000    1.2122456   -6.2590737    23.666477  0.032870107   0.04120751            2 
   61000    1.2134242   -6.2683597    23.955601   0.03272623  0.041152807            2 
   62000    1.2513438   -6.2228961    24.520573  0.032957759  0.041090561            3 
   63000    1.2423094   -6.2400577    24.940863  0.032990559   0.04104043            3 
   64000    1.2380538   -6.1915739    25.488941  0.033188725  0.040999067            2 
   65000    1.2138426   -6.2555969    25.989395  0.033319737  0.040951579            1 
   66000    1.2087346    -6.203859    26.561397  0.033537117  0.040919293            4 
   67000    1.2106812   -6.2550293    26.970447  0.033545332  0.040886217            2 
   68000    1.2219821   -6.2708748    27.241331  0.033383984   0.04083543            3 
   69000    1.2323351   -6.2557817    27.755975  0.033521709  0.040780907            5 
   70000    1.2502001   -6.2341427     28.10481  0.033458107  0.040726365            2 
   71000    1.2070163   -6.2268788     28.71311  0.033700833   0.04067089            3 
   72000    1.1849108   -6.2621287    29.080567  0.033658064  0.040620535            2 
   73000    1.2266642   -6.2136077    29.631401  0.033825799  0.040571878            3 
   74000    1.2186352   -6.1997394    30.117931  0.033916588  0.040531832            2 
   75000    1.2321386   -6.2176862    30.516637  0.033907375  0.040500231            1 
   76000    1.2339782   -6.2571011    31.081551  0.034080647  0.040454482            1 
   77000    1.2274608   -6.2501187    31.272763  0.033844981  0.040408439            3 
   78000    1.2241584   -6.2873108    31.681683  0.033847951  0.040355735            3 
   79000    1.2125351   -6.2233513     32.24451  0.034013196  0.040289654            5 
   80000    1.2486156   -6.2709732    32.503036  0.033857329  0.040221872            5 
   81000    1.2275228   -6.2487444    33.024721  0.033976051  0.040156339            2 
   82000    1.2096946   -6.2350494    33.535854  0.034081152  0.040097761            2 
   83000     1.224526    -6.295646     33.88078  0.034016847  0.040035577            1 
   84000    1.1973031    -6.275199    34.134324  0.033863417   0.03996079            2 
   85000     1.210294   -6.2371743    34.661061  0.033981432  0.039889621            4 
   86000    1.2172674   -6.2639544    35.313936   0.03421893  0.039828719            1 
   87000    1.2578278   -6.2421738    35.681363   0.03417755  0.039773371            2 
   88000     1.201101   -6.2711611    35.943199   0.03403712  0.039720443            8 
   89000    1.2183676   -6.2547656    36.531082  0.034205133  0.039660603            2 
   90000    1.2150788    -6.249026    36.918305  0.034183616    0.0396106            6 
   91000    1.2207489    -6.232454    37.187472  0.034054461  0.039555625            3 
   92000    1.2065258   -6.2186752    37.896133  0.034326208  0.039499524            2 
   93000    1.1963632   -6.2833239    38.139583  0.034175253  0.039441283            5 
   94000    1.2077032     -6.28769    38.458489  0.034094405  0.039377751            3 
   95000    1.2136187   -6.2411362    38.979694  0.034192714  0.039313948            2 
   96000    1.2318136   -6.2550598    39.169163  0.034001009   0.03924639            2 
   97000    1.2289119    -6.328938    39.617415   0.03403558  0.039175116            3 
   98000    1.2254743   -6.2746842    40.048394  0.034054757  0.039103551            2 
   99000    1.2124672   -6.2820701    40.387464  0.033996182  0.039038287            2 
  100000    1.2079783   -6.2451196    40.952634  0.034127195  0.038974461            2 
  101000    1.2270364   -6.2950379    41.282937  0.034061829  0.038906528            4 
  102000    1.2150208   -6.2393425    41.734585  0.034096883  0.038839486            3 
  103000    1.1771491   -6.2847593    42.288649  0.034214117  0.038784948            3 
  104000     1.222729   -6.2721642    42.659981  0.034182677  0.038732278            2 
  105000    1.2105225     -6.25332    43.110675  0.034214821  0.038677814            2 
  106000    1.1936644    -6.251095    43.562752  0.034247447  0.038622544            3 
  107000    1.2165192   -6.2601069    43.915347  0.034201984  0.038565818            4 
  108000    1.2210561   -6.2713214     44.28782  0.034172701   0.03851352            3 
  109000    1.2338886   -6.3073413    44.400862  0.033945613  0.038453816            2 
  110000    1.2002835   -6.3220546    45.060936  0.034137073  0.038395068            2 
  111000     1.195851   -6.2884252    45.649866  0.034271671   0.03834932            5 
  112000    1.2078381   -6.3071144    45.972183  0.034205493  0.038304996            6 
  113000    1.2020196   -6.2705446    46.428078  0.034238996  0.038262314            3 
  114000    1.2003579   -6.3458674    46.943785  0.034315632  0.038224794            2 
  115000    1.2123087   -6.2557897    47.780419  0.034623492  0.038198025            1 
  116000    1.2179669   -6.3060611    48.103405  0.034557044  0.038176765            3 
  117000    1.2184222   -6.3201857    48.655807  0.034655133  0.038154773            4 
  118000    1.2030289   -6.3251444    48.978397  0.034589263  0.038134376            3 
  119000     1.229903   -6.2817421    49.945732  0.034976003  0.038115937            3 
  120000    1.2003806   -6.2726075    50.147354  0.034824551  0.038103553            6 
  121000    1.2094071    -6.319703    50.632308  0.034870736  0.038093493            1 
  122000    1.2124225   -6.3379712    50.633381  0.034585642  0.038079101            2 
  123000    1.2010008   -6.2821752    51.302436  0.034757748  0.038058103            1 
  124000    1.2148145   -6.3383476    51.285427  0.034466013   0.03803836            2 
  125000    1.1925267   -6.3076353    52.215318  0.034810212  0.038015812            3 
  126000    1.1738844   -6.3054811    52.585929  0.034779053  0.037994166            2 
  127000    1.2114241   -6.3224203    52.711523  0.034587614  0.037969987            2 
  128000    1.1802199   -6.3059096    53.397439  0.034763957  0.037946311            2 
  129000    1.2207496    -6.311909    53.871242  0.034800544  0.037924979            2 
  130000    1.2075058   -6.3232022    54.034461  0.034637475  0.037898251            2 
  131000    1.2150539   -6.3481602    54.729724  0.034815346   0.03787328            1 
  132000    1.1922905   -6.3118594    55.227124  0.034865608  0.037852796            3 
  133000    1.2217667   -6.3049655     55.66184  0.034875839  0.037836335            2 
  134000    1.2021299   -6.3092571    56.533748  0.035157804  0.037826662            2 
  135000     1.207896   -6.2368396    56.949902  0.035154261  0.037822977            4 
  136000    1.2166511   -6.2799935    57.364243  0.035149659   0.03781849            2 
  137000    1.2061699    -6.273884    57.967853  0.035260251   0.03781371            2 
  138000    1.2054219    -6.327837    58.018519  0.035035338  0.037805102            2 
  139000    1.1906218   -6.3402213    58.415014  0.035020992  0.037794023            3 
  140000    1.1665332   -6.2915147    58.946161     0.035087  0.037783457            3 
  141000    1.1850924    -6.310915     59.20722  0.034992447  0.037768777            4 
  142000     1.214725   -6.3082223    59.758586  0.035069593  0.037757957            4 
  143000    1.2006838   -6.3083698    59.966564   0.03494555   0.03773921            2 
  144000    1.1967325   -6.3153089     60.65864  0.035103379  0.037724969            2 
  145000    1.1935487   -6.3330785    60.675383  0.034870909  0.037708388            4 
  146000    1.1651103   -6.3437566    61.022493   0.03483019  0.037688285            4 
  147000    1.2022167   -6.3503815    61.584048  0.034911591  0.037668692            3 
  148000    1.1878077   -6.2757652    61.904004  0.034855858   0.03764572            1 
  149000    1.1990443   -6.3517221    62.152917  0.034761139  0.037625837            1 
  150000     1.187808   -6.3303194    62.885804  0.034936557    0.0376049            4 
  151000    1.1948831   -6.3307025    63.121491   0.03483526   0.03758238            2 
  152000    1.2107449   -6.3387145    63.388402  0.034752413  0.037559794            3 
  153000    1.1765381   -6.3424902    63.690628  0.034689885  0.037532494            2 
  154000    1.1853194   -6.3368447    64.334259  0.034812911  0.037505564            3 
  155000    1.1948428   -6.3761027     64.85461   0.03486807  0.037480794            2 
  156000    1.1911541   -6.3661688    65.045183  0.034746359  0.037452659            1 
  157000    1.1879545   -6.3405959    65.141339  0.034576082  0.037423184            2 
  158000    1.1878015   -6.3417286    65.823361  0.034716963  0.037392125            2 
  159000    1.1937985   -6.3343374    65.879452  0.034528014  0.037362774            1 
  160000    1.1775644   -6.3533008     66.19154   0.03447476  0.037329332            3 
  161000    1.2041654    -6.337201    66.629639  0.034487391  0.037294731            2 
  162000    1.1960296   -6.3156036    67.329932  0.034634738  0.037264943            2 
  163000    1.1745367   -6.3447199    67.494451  0.034506365  0.037233125            4 
  164000    1.1894876   -6.3881504    68.048302  0.034577389  0.037202567            5 
  165000     1.168193   -6.3521231    68.219673   0.03445438  0.037170045            2 
  166000    1.1959844   -6.3828527     68.64499  0.034460336  0.037139299            4 
  167000    1.1823391   -6.3290318    69.256608  0.034559185  0.037110435            3 
  168000    1.1914533   -6.3319022    69.815904  0.034630905   0.03708019            3 
  169000    1.2050608   -6.3809461    70.098696  0.034565432  0.037053956            2 
  170000    1.1754767   -6.3440002     70.65893   0.03463673  0.037029706            4 
  171000    1.2195835   -6.3217254     70.84148  0.034523139  0.037003913            3 
  172000    1.1891553   -6.3575466      70.9051  0.034353246  0.036973128            2 
  173000    1.1626784   -6.3323109    71.857401  0.034613391  0.036946427            2 
  174000    1.1682514   -6.3831216    72.186172  0.034571921  0.036919684            2 
  175000    1.1717239   -6.3144444    72.387265  0.034470126    0.0368957            3 
  176000    1.1751949   -6.3423207    72.658429  0.034402665  0.036864694            4 
  177000    1.1964531   -6.3170517    72.917453  0.034330251   0.03683485            2 
  178000    1.1840147   -6.3086908    73.623056  0.034467723  0.036804679            3 
  179000    1.1694488   -6.3511122    73.941538  0.034423435  0.036774957            2 
  180000    1.1879647   -6.3225842    74.287832  0.034392515  0.036745026            2 
  181000    1.1708225   -6.3754044    74.373177  0.034241794  0.036713208            4 
  182000    1.1869058    -6.345893    75.331573  0.034492478  0.036689099            6 
  183000      1.19659    -6.356834    75.681525  0.034463354  0.036663339            2 
  184000     1.171801    -6.331817    76.258996  0.034537589  0.036639114            2 
  185000    1.1733463   -6.3590224    76.725385  0.034560984  0.036619436            2 
  186000    1.1794729   -6.3667493    76.819804  0.034417475  0.036597964            3 
  187000    1.1929875   -6.3253172    77.212723  0.034408522  0.036572808            4 
  188000    1.1430255   -6.3875893     77.35287   0.03428762  0.036546158            2 
  189000    1.1709185   -6.3287535    78.015367   0.03439831  0.036517848            3 
  190000    1.2013209   -6.3855821    78.286004  0.034335967  0.036491749            3 
  191000    1.1928792   -6.3537819    78.647507  0.034313921  0.036466298            3 
  192000    1.1943983   -6.3701399    78.685992  0.034151906  0.036438469            4 
  193000    1.1804352    -6.380183    79.426546  0.034294709  0.036411615            3 
  194000    1.1640771    -6.403267    79.421844  0.034115912  0.036383202            2 
  195000    1.1836372   -6.3690086    79.722866  0.034069601  0.036352573            4 
  196000    1.1626569   -6.4001962     80.15854  0.034081012  0.036322981            3 
  197000      1.17104   -6.3868991    80.999217  0.034263628  0.036296001            2 
  198000    1.2100647   -6.4075941    81.162841  0.034159445    0.0362692            2 
  199000    1.1757321   -6.3481087    81.475285  0.034118628  0.036243443            3 
  200000    1.2051991   -6.3157108    82.574568   0.03440607   0.03621635            3 
  201000    1.1500364   -6.3862688    82.522912  0.034213479  0.036190642            3 
  202000    1.2051945   -6.3780232    82.915807  0.034206191  0.036165618            2 
  203000    1.1696682   -6.3959447    83.223926  0.034164173  0.036142107            1 
  204000    1.1839136   -6.3301966    83.937416   0.03428816  0.036119464            3 
  205000    1.1533031   -6.3777355    84.191491  0.034224183  0.036099822            3 
  206000    1.1759464   -6.4201734    84.368019  0.034129457  0.036078086            4 
  207000    1.1899254   -6.3597785    85.655879  0.034483043   0.03605727            2 
  208000    1.1641706   -6.3519773    85.902667  0.034416132  0.036038182            5 
  209000    1.1847796     -6.37984    86.205453   0.03437219  0.036022161            3 
  210000    1.1582104   -6.3398646    86.449795  0.034305474  0.036005056            3 
  211000    1.1637528   -6.3808666    86.903997  0.034322274  0.035986465            3 
  212000     1.160991   -6.3441307    87.553223  0.034415575  0.035969992            5 
  213000    1.1539359   -6.3916967    87.639324  0.034287685   0.03595104            4 
  214000    1.1670617    -6.375234    87.767835  0.034177506   0.03593142            4 
  215000    1.1907506   -6.3826725    88.265522  0.034211443  0.035911767            1 
  216000     1.206873   -6.3550325    88.591566  0.034178845  0.035891134            2 
  217000    1.1712241   -6.3703791    88.911624  0.034144249  0.035870391            2 
  218000    1.1656029   -6.3893985    89.174149  0.034087978   0.03584728            2 
  219000    1.1775166   -6.3373547    89.607974  0.034097403  0.035822747            6 
  220000    1.1408056   -6.4200045    89.885425  0.034047509  0.035799215            2 
  221000    1.1753349   -6.3842422    90.401792  0.034088157  0.035776414            3 
  222000    1.1687496   -6.4137472    91.130647  0.034208201  0.035757765            3 
  223000    1.1599562   -6.4463523    91.449839   0.03417408  0.035739745            4 
  224000    1.1644979   -6.3849391    91.776002  0.034142858  0.035721856            3 
  225000    1.1900575   -6.4102831    91.972451  0.034063871  0.035704929            2 
  226000     1.145314   -6.3795446    92.803929  0.034219738  0.035688251            2 
  227000    1.1630749   -6.3861657    92.815887   0.03407338  0.035671679            1 
  228000    1.1852518   -6.3864255    93.570797  0.034199852  0.035653352            3 
  229000    1.1815388   -6.3819144     93.77122  0.034123442  0.035636198            2 
  230000    1.1544423   -6.3837582    93.902679   0.03402271  0.035618454            2 
  231000    1.1465664    -6.393627    94.307295  0.034021391  0.035599211            3 
  232000    1.1644067   -6.4189532    94.698633  0.034015314   0.03557905            2 
  233000    1.1747949    -6.414784    95.054146  0.033996475   0.03555845            2 
  234000     1.157049   -6.3801849    95.996236  0.034186694  0.035539854            2 
  235000    1.1395763   -6.4353458    95.794392  0.033969642  0.035520557            3 
  236000    1.1591135   -6.4445199    96.036095   0.03391105  0.035501599            2 
  237000    1.1695082   -6.3996355    96.466269  0.033919223  0.035483499            2 
  238000    1.1295819   -6.3790014    97.002187  0.033964351  0.035463067            3 
  239000    1.1495482   -6.3985619     97.44578  0.033976911  0.035442623            4 
  240000     1.165642   -6.4181473    97.724878  0.033932249  0.035422614            2 
  241000    1.1740679   -6.3977766    98.335272  0.034002514   0.03540244            3 
  242000    1.1508334   -6.4386579    98.572301   0.03394363  0.035382991            2 
  243000    1.1688186   -6.3842745    99.389456  0.034084176  0.035364582            5 
  244000    1.1585554   -6.4118733    99.697887  0.034049825  0.035348123            3 
  245000    1.1471723   -6.4251976    99.197627  0.033740689  0.035329575            2 
  246000    1.1437476    -6.455422    99.886232    0.0338368  0.035309823            3 
  247000    1.1486831   -6.3860611    100.08372  0.033766438  0.035287952            1 
  248000    1.1505653   -6.3926545    100.42927  0.033746393  0.035267632            3 
  249000    1.1241912   -6.4198747    100.49375  0.033632445  0.035244892            4 
  250000    1.1393936   -6.4201851    101.30115  0.033767051  0.035223045            3 
  251000    1.1455787   -6.3755217    101.71636  0.033770372  0.035200902            2 
  252000    1.1260026    -6.426874    101.69907  0.033630646  0.035178951            3 
  253000    1.1639606   -6.4359897    102.43673   0.03374069  0.035159233            2 
  254000    1.1669364   -6.4271602    102.61046  0.033664848   0.03513902            3 
  255000    1.1339211   -6.4557938    102.71769  0.033567872  0.035117929            3 
  256000    1.1710853   -6.4313586    103.73617  0.033768285  0.035098283            5 
  257000     1.125691   -6.4441366    104.05914  0.033741613  0.035079116            1 
  258000    1.1443423   -6.4313671    104.51826  0.033759127  0.035060286            2 
  259000    1.1216421   -6.4307901     104.7488   0.03370296  0.035041103            3 
  260000    1.1735614   -6.4461228     104.7225  0.033564905   0.03502185            3 
  261000    1.1404043   -6.4487425    105.08837  0.033553121   0.03500216            4 
  262000    1.1467997    -6.459954     105.5287   0.03356511   0.03498274            4 
  263000    1.1326029   -6.4510489    106.08667   0.03361428  0.034962455            4 
  264000    1.1368782   -6.4291915    106.25811  0.033541069  0.034942232            2 
  265000    1.1479691   -6.4760191     106.3698  0.033449624  0.034922088            4 
  266000    1.1386636    -6.457584    106.76979  0.033449182   0.03490016            4 
  267000    1.1451809   -6.4999123    106.59058  0.033267972  0.034877486            2 
  268000    1.1393815   -6.4530545    107.40358  0.033396637  0.034855326            4 
  269000     1.164264   -6.3833075    108.26824  0.033540346  0.034834257            6 
  270000    1.1440065   -6.4013878    108.12731  0.033372628   0.03481209            3 
  271000    1.1609599     -6.48492    108.69606  0.033424374  0.034790613            3 
  272000    1.1365896    -6.458113    108.61947  0.033278023  0.034767155            4 
  273000    1.1407827   -6.4360113    109.41744  0.033399707  0.034742632            6 
  274000    1.1267941   -6.4480993    109.53463  0.033313453  0.034718779            5 
  275000    1.1441204   -6.4319957    109.78214  0.033267314  0.034694631            3 
  276000    1.1301227    -6.418054    110.74941  0.033438831  0.034672313            2 
  277000    1.1473673   -6.4661342    110.27361  0.033174972  0.034649816            7 
  278000    1.1408684   -6.4959248    110.40212   0.03309416   0.03462661            4 
  279000     1.150461   -6.4716968    111.41602  0.033278382  0.034604832            2 
  280000    1.1471017   -6.4533846    111.76473  0.033263312  0.034582832            2 
  281000    1.1607879   -6.4371326    112.12178  0.033250824  0.034562095            3 
  282000    1.1380139   -6.4324365    112.84763  0.033347409  0.034541344            3 
  283000    1.1550725   -6.4424726    112.77448  0.033208034  0.034518993            2 
  284000    1.1523984    -6.466009    112.85809  0.033115636  0.034496193            3 
  285000     1.124534   -6.4458583    113.52979  0.033195846  0.034473365            5 
  286000    1.1529802   -6.4783831     113.7783  0.033152184  0.034451402            9 
  287000    1.1295297   -6.4717363    114.35662  0.033204594  0.034428652            4 
  288000    1.1538757   -6.4440588    114.73353  0.033198359   0.03440715            3 
  289000    1.1424012    -6.474798    114.82975  0.033111232  0.034384868            3 
  290000      1.15269   -6.4941798     114.8418  0.033000517  0.034363297            4 
  291000    1.1578278   -6.4529403    115.64962  0.033118447  0.034342394            5 
  292000    1.1389699   -6.4575928    115.76428  0.033037751  0.034320047            4 
  293000    1.1367041   -6.4259518    116.19936  0.033048737  0.034297138            3 
  294000    1.1271433   -6.5183934    116.62352  0.033056554  0.034275521            2 
  295000     1.132758   -6.4569332    117.21705  0.033112161  0.034254888            1 
  296000    1.1309859   -6.5443865    117.11383  0.032971236  0.034234216            5 
  297000    1.1525311   -6.4711928    117.76268  0.033042278  0.034212717            6 
  298000    1.1496209   -6.4820696    118.00297  0.032998592  0.034192078            4 
  299000    1.1598061   -6.5060028    118.25617    0.0329588  0.034172976            2 
  300000     1.127743      -6.4697    119.40831  0.033168975  0.034154107            3 
  301000    1.1530788   -6.4504093    119.65448  0.033126934  0.034136082            3 
  302000    1.1212973   -6.4766238    119.75193   0.03304413  0.034118663            2 
  303000    1.1625218   -6.5009228    120.15084  0.033044786  0.034099789            2 
  304000    1.1356809   -6.4658464     120.7847  0.033109841  0.034082398            3 
  305000    1.1197706     -6.48104    121.21756  0.033119552  0.034063979            1 
  306000    1.1379339   -6.5060521    120.97505  0.032945276  0.034044914            1 
  307000      1.14318   -6.4842914    120.97368   0.03283759  0.034024762            2 
  308000    1.0897384   -6.4848154    121.49463  0.032871923  0.034004432            3 
  309000    1.1343194   -6.4559417    121.75349  0.032835354  0.033983468            8 
  310000    1.1048313   -6.4400108    122.43754  0.032913316   0.03396333            2 
  311000     1.127498   -6.4714312    122.17661  0.032737569  0.033941776            1 
  312000    1.1251564    -6.438785    122.67339  0.032765328  0.033920068            2 
  313000    1.1490127   -6.4785099    122.78819  0.032691211  0.033897445            2 
  314000    1.1274855   -6.4828371    123.57824  0.032796774  0.033874487            3 
  315000    1.1160198   -6.5599989    122.39135  0.032378664  0.033851169            4 
  316000     1.121913   -6.5329886    122.95738   0.03242547   0.03382589            7 
  317000    1.1313184   -6.5116197    123.71612   0.03252264  0.033801489           10 
  318000    1.1480256   -6.4808189    124.68254  0.032673621  0.033778218            1 
  319000    1.1131506   -6.4923128    124.49351  0.032521814  0.033754875            2 
  320000    1.1235881   -6.4929885     124.7364  0.032483438  0.033731209            2 
  321000    1.1461682   -6.4790225    125.22064  0.032507955  0.033708354            4 
  322000    1.1382286   -6.4758566    125.62902  0.032512686  0.033685457            1 
  323000    1.1396719   -6.5008396    126.03067  0.032515653  0.033662598            6 
  324000    1.1126301   -6.4566019    126.74033  0.032597821  0.033639719            2 
  325000    1.1191698   -6.5227438    126.61811  0.032466183  0.033618077            2 
  326000    1.1444356   -6.5017539    126.98751  0.032461019   0.03359648            3 
  327000    1.1210978   -6.4989404    127.41426  0.032470504  0.033574504            4 
  328000    1.1392154   -6.4975911    127.65306  0.032432179  0.033552864            2 
  329000    1.1231403   -6.4637915    128.49375  0.032546542  0.033532015            3 
  330000    1.1269863   -6.5471279    128.12767  0.032355473  0.033512167            7 
  331000    1.1258093   -6.5282306    128.69164  0.032399707  0.033491167            3 
  332000    1.1108788   -6.5073762    129.34454  0.032465998  0.033471005            2 
  333000    1.1003461   -6.5025473     129.4105   0.03238501  0.033450687            2 
  334000    1.1407695   -6.4833378    129.74964  0.032372663   0.03343048            2 
  335000    1.1100977   -6.5707066    129.47798  0.032208454  0.033408947            5 
  336000    1.1039835   -6.5206203    129.86459  0.032208479  0.033385091            4 
  337000    1.1239689   -6.5016983    130.69348  0.032317873  0.033361798            2 
  338000    1.1026755   -6.5503246    130.80466  0.032249668  0.033340338            2 
  339000     1.117937   -6.5263764     131.6413  0.032360202  0.033320271            2 
  340000    1.1292111   -6.4552169    132.50601  0.032476963  0.033301318            2 
  341000    1.1134094   -6.5287883    132.18243  0.032302647   0.03328248            2 
  342000    1.1385213   -6.4755151    133.03416   0.03241573  0.033262844            1 
  343000    1.1093033   -6.5175119    132.90387  0.032289571  0.033243636            2 
  344000    1.1294437   -6.5506377    133.15754  0.032257156  0.033223273            3 
  345000    1.1101352   -6.5083535    133.51028   0.03224886  0.033202242            2 
  346000    1.1392683   -6.5246287    133.65521   0.03219056  0.033181343            4 
  347000    1.1169422   -6.5141095    134.15741  0.032218398  0.033160577            3 
  348000    1.1261823    -6.498269    134.73566  0.032264285  0.033140302            2 
  349000    1.1163463   -6.5298956     134.6597  0.032153701  0.033120157            2 
  350000    1.1023398   -6.5225641      134.563   0.03203881   0.03309926            4 
  351000    1.1260149   -6.5113325    135.55726  0.032183584  0.033077746            3 
  352000    1.1152214   -6.5172037    135.61794  0.032106519    0.0330565            8 
  353000    1.1264856   -6.5383326    135.90046   0.03208226  0.033035051            7 
  354000    1.1271397   -6.5065307    135.90932   0.03199372  0.033013566            3 
  355000    1.1096823   -6.5676289    136.32057  0.032000134  0.032992154            4 
  356000    1.0976838   -6.5084383    136.73324  0.032006844  0.032971252            4 
  357000    1.1056709   -6.5134036    136.96987  0.031972425   0.03294984            3 
  358000    1.1080285   -6.5381349    137.59089  0.032027675  0.032928372            3 
  359000    1.1209084   -6.5005862    138.11358   0.03205979  0.032908096            2 
  360000    1.0984615   -6.4964116    138.25968  0.032004555  0.032887944            2 
  361000    1.1296672   -6.5477698    138.47793  0.031966281  0.032867954            3 
  362000    1.1244192   -6.5446133    138.94754  0.031986082  0.032847771            1 
  363000    1.1012688    -6.521656    139.67996  0.032066107  0.032828176            2 
  364000    1.0945363   -6.5261351    139.64967  0.031971078  0.032807965            2 
  365000    1.0827875   -6.5325634    140.05986  0.031977137  0.032787374            2 
  366000    1.0847677    -6.527658    140.11428  0.031902159  0.032766413            3 
  367000    1.1466307   -6.5452909    140.29282  0.031855773  0.032746754            2 
  368000    1.0929721   -6.5053871    141.02898   0.03193591  0.032727426            2 
  369000    1.0966516   -6.5081549    141.17729  0.031882856   0.03270852            3 
  370000    1.0908138   -6.5122731    142.33449  0.032057317  0.032690305            3 
  371000    1.1050427    -6.555039    141.78117  0.031846624  0.032672163            5 
  372000      1.09788   -6.5936237    142.29791  0.031876773  0.032653819            4 
  373000    1.1172054   -6.5013299    143.45366  0.032049523  0.032636182            3 
  374000    1.0896814   -6.5586946    142.68158  0.031791796  0.032618287            2 
  375000    1.1059209   -6.5991441    143.27042  0.031837871  0.032599334            2 
  376000    1.1118806   -6.5176529    144.02657  0.031920783  0.032581841            4 
  377000    1.1100263   -6.5903796    143.83036   0.03179274   0.03256484            5 
  378000    1.1212654   -6.5893057    143.96714  0.031738788  0.032546624            3 
  379000    1.0775096   -6.6322054    144.31557  0.031731656  0.032528436            4 
  380000    1.0771663   -6.5751961    145.29717  0.031863415  0.032510627            5 
  381000    1.1073584   -6.5642208    145.83891  0.031898275  0.032493478            3 
  382000    1.0948794   -6.5738572    145.88865  0.031825622  0.032476996            6 
  383000    1.0944757    -6.621371    145.19488  0.031591575  0.032460226            8 
  384000     1.103698   -6.5940975    147.01517  0.031904334  0.032442075            4 
  385000     1.097633   -6.5426813    147.02144  0.031822823  0.032425151            3 
  386000    1.0980584   -6.5537924    146.98273  0.031732023  0.032407621            4 
  387000     1.111556   -6.5819304    147.99665  0.031868358  0.032390359            4 
  388000    1.1042583   -6.5516446    147.81013  0.031746163  0.032373748            5 
  389000    1.1169746    -6.568336    147.90842  0.031685608  0.032356896            4 
  390000    1.1042879   -6.5564881    148.34819  0.031698332  0.032339818            3 
  391000    1.1163721    -6.574284    148.41481   0.03163146  0.032321349            4 
  392000    1.0885231   -6.5654066    148.86734  0.031646969  0.032302326            2 
  393000     1.086191   -6.5299342    148.53641   0.03149627  0.032284141            4 
  394000    1.0828142   -6.6070811    148.66209  0.031442913  0.032264706            5 
  395000    1.0855614   -6.5890828    148.53855  0.031337247  0.032244352            2 
  396000    1.1196416   -6.6085423    149.27627  0.031413356  0.032223414            8 
  397000    1.1031825   -6.5799028     149.0892  0.031294962   0.03220224            6 
  398000     1.098565   -6.5726711    149.71808  0.031348007  0.032181012            6 
  399000    1.0977492    -6.585808    150.12882  0.031355226  0.032159217            2 
  400000    1.1080068   -6.5919885    149.81405   0.03121126  0.032137962            3 
  401000    1.1013604   -6.6125564    149.99932  0.031171929  0.032116122            3 
  402000    1.0874556   -6.5698477    151.18682  0.031340552  0.032094662            2 
  403000    1.1002019   -6.6020501    150.68299  0.031158601  0.032073108            1 
  404000    1.0860947   -6.5700258    151.28825  0.031206321  0.032051798            4 
  405000    1.1057175   -6.5774807    151.54762  0.031182638  0.032029286            3 
  406000    1.0823337   -6.5683284    151.86432  0.031170837  0.032006897            3 
  407000    1.0931919   -6.5929313    151.47789  0.031015128   0.03198393            4 
  408000    1.0842751   -6.6064181    151.60907  0.030965904  0.031960654            3 
  409000    1.1038902    -6.556946    152.23374  0.031017469  0.031937412            7 
  410000    1.0763851   -6.5964202    151.94644  0.030883422   0.03191456            5 
  411000    1.1043832   -6.6208845    152.09087  0.030837565  0.031891233            8 
  412000    1.0830632   -6.6054581    152.76876   0.03089983  0.031868105            6 
  413000    1.0761548   -6.5602572    153.66466  0.031005784  0.031844363            5 
  414000    1.0644544    -6.558639    153.45175  0.030888034  0.031820867            5 
  415000    1.1001016   -6.5777671     153.8702   0.03089763  0.031797941            3 
  416000     1.090642   -6.5913038    154.63503  0.030976568  0.031775587            6 
  417000    1.0951341   -6.6147773    154.71777  0.030918819   0.03175353            3 
  418000    1.0875993   -6.5864174     155.0699  0.030915051  0.031732359            3 
  419000    1.0864133   -6.5860146    155.49336   0.03092549  0.031711498            2 
  420000    1.1083202   -6.5567269    156.05609   0.03096351  0.031690455            3 
  421000    1.0999679   -6.5972393    156.51107  0.030980021  0.031668643            2 
  422000    1.0900395   -6.6119315    155.44041  0.030695184  0.031645839            4 
  423000    1.0915365   -6.5923434    155.91926  0.030716953  0.031623562            3 
  424000    1.0946796   -6.5816543    157.23468  0.030903043   0.03160208            4 
  425000    1.0858606   -6.6060452    156.78873  0.030742887  0.031580958            3 
  426000    1.0957452   -6.6072478    157.13398   0.03073826  0.031559156            5 
  427000    1.0930444   -6.6065387    156.65061  0.030571937  0.031536833            5 
  428000    1.1073363   -6.6423797    156.72796  0.030515569  0.031513948            4 
  429000    1.0946579   -6.6456441    156.97528  0.030492479   0.03149083            3 
  430000    1.1007297   -6.5925397    157.88768  0.030598387  0.031467405            2 
  431000    1.0627094   -6.5871218    157.86806    0.0305236  0.031444453            3 
  432000    1.0618298   -6.6324361    157.71137  0.030422718  0.031421093            3 
  433000    1.0665896   -6.5474013    159.12393  0.030624314  0.031397955            3 
  434000    1.0775509   -6.5890212    159.41965  0.030610532  0.031375076            4 
  435000    1.0950771   -6.5975333    159.18522  0.030495252  0.031351732            2 
  436000    1.0845423   -6.6313117    158.64621  0.030322289  0.031328046            5 
  437000    1.0696414   -6.6125632    159.26482  0.030370866  0.031304357            6 
  438000    1.0624114   -6.6125055    159.71031  0.030386284  0.031280818            5 
  439000    1.0634838   -6.6123598    159.99667  0.030371426  0.031257318            3 
  440000     1.091365   -6.6386998    159.81092   0.03026722  0.031232125            5 
  441000    1.1029425   -6.6495444    160.18276  0.030268851  0.031207692            7 
  442000    1.0686618   -6.5917336     160.8849  0.030332748  0.031183295            6 
  443000    1.0755472   -6.6013456    160.00279  0.030098342  0.031158613            3 
  444000    1.0632485   -6.6695675    160.44411  0.030113384   0.03113358            3 
  445000    1.0545989   -6.6446019    160.78118  0.030108836  0.031108889            4 
  446000    1.0598563   -6.6216449    161.69962  0.030212934  0.031084626            4 
  447000    1.0875228   -6.6410758    161.58117   0.03012326  0.031060686            1 
  448000    1.0671822   -6.6219265    161.70955  0.030079902  0.031036495            3 
  449000    1.0996266   -6.6089307    162.45132  0.030150579  0.031011683            6 
  450000    1.0432292   -6.6287537    162.71873  0.030133097  0.030987539            6 
  451000    1.0650227   -6.6299524    163.06611   0.03013047  0.030963639            2 
  452000    1.0758228   -6.6247874    163.31774  0.030110202  0.030940898            4 
  453000    1.0721287   -6.6358363    163.94446  0.030159024  0.030918368            4 
  454000    1.0759707   -6.6381089    163.89083  0.030082752  0.030895262            6 
  455000    1.0936388   -6.6347099    163.88121  0.030014873  0.030872558            3 
  456000    1.0906576   -6.6566624    164.40331  0.030044464   0.03084936            2 
  457000    1.0762922   -6.6455902    164.62443  0.030019042  0.030826739            8 
  458000    1.0811895   -6.6595477    164.19382   0.02987515  0.030803744            3 
  459000     1.047762   -6.6187191    164.93689  0.029944969  0.030780736            4 
  460000    1.0793879   -6.6506918    165.87016  0.030048942  0.030757801            4 
  461000     1.068864   -6.6229658     165.8696  0.029983658  0.030734962            2 
  462000    1.0781353   -6.6506223    165.77408  0.029901529  0.030712523            3 
  463000    1.0546989   -6.6545399    166.52397  0.029971916  0.030690375            5 
  464000    1.0567898   -6.6595577    166.72018  0.029942562  0.030667746            2 
  465000    1.0724121   -6.6255425    167.49539  0.030017095  0.030645966            4 
  466000    1.0464253   -6.6207945    167.37202  0.029930619   0.03062429            2 
  467000    1.0545425   -6.6245504    167.33824  0.029860499  0.030602368            2 
  468000    1.0549274   -6.6513893    167.91111  0.029898702  0.030580593            3 
  469000    1.0506688   -6.6640993    168.65382   0.02996692  0.030559358            3 
  470000    1.0531984   -6.6478206    169.26608  0.030011716  0.030538261            2 
  471000    1.0828965   -6.6083792    169.42146  0.029975488  0.030517935           10 
  472000    1.0607653   -6.6529957    169.62641  0.029948166  0.030497811            5 
  473000    1.0459369   -6.6304554    169.39783  0.029844579  0.030477069            3 
  474000    1.0631482   -6.6775497    169.40736  0.029783292  0.030456394            2 
  475000     1.049418   -6.6309762    170.45663  0.029904673  0.030435825            3 
  476000     1.050645   -6.6893728    169.77457  0.029722439  0.030415373            5 
  477000     1.063198   -6.6890111    170.11779  0.029720088  0.030394156            3 
  478000    1.0677115   -6.6866093    169.92168  0.029623724   0.03037276            2 
  479000    1.0658014   -6.6519293    170.38026   0.02964166  0.030351102            4 
  480000    1.0445014   -6.6500151    170.70091  0.029635575  0.030329918            3 
  481000    1.0710929   -6.6364578    171.62795  0.029734573  0.030308322            4 
  482000    1.0470335   -6.6462346    171.46488  0.029644688  0.030286469            3 
  483000     1.067952   -6.6954475    170.73785  0.029457876  0.030264665            5 
  484000    1.0730303   -6.6818602    171.14374  0.029466898  0.030242451            3 
  485000     1.073857   -6.6632242    171.49853  0.029467102  0.030220728            9 
  486000    1.0540331   -6.6442636    172.14877  0.029517965   0.03019883            7 
  487000    1.0637572   -6.6912791    172.29847  0.029482969   0.03017746            6 
  488000    1.0535373   -6.6403818    172.80352  0.029508798  0.030155576            6 
  489000    1.0525388   -6.6543713    173.24957  0.029524467  0.030133981            5 
  490000    1.0616274   -6.6431605    173.19275   0.02945455  0.030111997            2 
  491000    1.0708211    -6.658616    173.34979  0.029421214  0.030089996            5 
  492000    1.0663045   -6.6875905    173.12623  0.029323548  0.030068216            4 
  493000    1.0602887   -6.6262043     173.5237  0.029331255  0.030046139            2 
  494000    1.0480342   -6.6625068    174.13993  0.029375831  0.030023457            4 
  495000    1.0628037   -6.7149008    173.53491  0.029214631  0.030000686            4 
  496000     1.055555   -6.6784918    174.83981  0.029374968  0.029977989            6 
  497000    1.0619045   -6.6776708    174.41899  0.029245304  0.029955108            5 
  498000     1.059606   -6.6549214    175.12478  0.029304682  0.029932593            4 
  499000    1.0779776   -6.6471908    175.53512  0.029314483  0.029910548            3 
  500000    1.0418695   -6.6562245    175.31908  0.029219846  0.029888351            3 
  501000    1.0454821   -6.6638258    174.93223  0.029097178  0.029866187            5 
  502000    1.0811881   -6.6742262    175.59578  0.029149366    0.0298438            4 
  503000    1.0262436   -6.6603226    175.44285  0.029066078  0.029821871            3 
  504000    1.0579548    -6.684457    176.36238  0.029160446  0.029799569            2 
  505000    1.0729371    -6.682099    175.97234   0.02903834  0.029777318            3 
  506000    1.0529906   -6.6800813    176.52871   0.02907258  0.029755297            4 
  507000    1.0552204   -6.6648722    177.04133  0.029099496  0.029733181            4 
  508000    1.0763357   -6.6730139    177.40304  0.029101548  0.029710732            6 
  509000    1.0534128   -6.6484597     177.7948  0.029108514  0.029688882            4 
  510000    1.0673867   -6.6762951    176.99996  0.028921562  0.029666801            4 
  511000    1.0655191   -6.6957316    177.56478  0.028957075  0.029644101            2 
  512000    1.0714504   -6.7087525    177.87355  0.028950773   0.02962151            3 
  513000    1.0592149   -6.6891113    177.71011  0.028867789  0.029597964            4 
  514000    1.0335678   -6.7055325     177.7072  0.028811154  0.029574339            8 
  515000     1.059425   -6.6763674    178.33591  0.028856944  0.029551344            5 
  516000    1.0348773   -6.6825475    178.90527  0.028892971  0.029528791            4 
  517000    1.0488109    -6.723135    178.52551  0.028775871  0.029506746            7 
  518000    1.0423012   -6.6893459    179.13729   0.02881874   0.02948389            2 
  519000    1.0327999   -6.6866611    178.70432  0.028693693  0.029460463            5 
  520000    1.0551459   -6.7181252    179.25316  0.028726468  0.029437365            3 
  521000    1.0487575   -6.6765154    180.05003   0.02879879  0.029414104            5 
  522000    1.0761228   -6.7183421    179.72514  0.028691753   0.02939066            2 
  523000    1.0564724   -6.7058452    179.85339  0.028657328  0.029367654            4 
  524000    1.0500903   -6.7255534    180.09793  0.028641529  0.029344966            6 
  525000    1.0275335   -6.6785439    180.47078  0.028646156  0.029321861            2 
  526000    1.0569721   -6.7106867    180.14214  0.028539629  0.029298728            2 
  527000    1.0394816   -6.7154598    180.44686  0.028533658  0.029275158            3 
  528000    1.0351804   -6.6714413    180.82868  0.028539879  0.029251523            4 
  529000     1.053878   -6.7526378    180.42473  0.028422295  0.029228383            4 
  530000    1.0243939    -6.730149    180.87749  0.028439856  0.029204836            5 
  531000    1.0300751   -6.7236411     182.0648   0.02857263  0.029182221            3 
  532000    1.0442622   -6.6879576     182.5438  0.028593953  0.029159494            9 
  533000     1.043651    -6.679155     182.5933  0.028548045  0.029137563            4 
  534000    1.0416333    -6.690334    182.51235  0.028481952  0.029115674            7 
  535000     1.050301   -6.7542796    182.22028  0.028383221  0.029093179            4 
  536000    1.0674566   -6.7038425    183.27732  0.028494608  0.029070546            3 
  537000    1.0357189   -6.7101517    182.85081  0.028375359  0.029048169            7 
  538000    1.0451599   -6.6865286    183.50733  0.028424307  0.029025857            3 
  539000    1.0443609   -6.6905345    184.33453  0.028499464  0.029003777            3 
  540000    1.0401442   -6.7348024    183.39003  0.028300931  0.028981714            5 
  541000    1.0505229   -6.7370727    184.31231  0.028390682  0.028959648            3 
  542000    1.0427714    -6.675573    185.35105  0.028498008  0.028937744            2 
  543000    1.0321287   -6.7013881    184.59194  0.028329027  0.028916032            5 
  544000    1.0576779   -6.7631351    184.70229  0.028293855  0.028894383            2 
  545000    1.0412871   -6.7444999    185.46716  0.028358893  0.028872932            5 
  546000    1.0631845   -6.7066605    186.59944  0.028479768   0.02885182            2 
  547000    1.0380205    -6.715026    186.26346  0.028376518  0.028830903           13 
  548000    1.0313786   -6.7518942    185.77938  0.028251123  0.028809357            3 
  549000    1.0508854   -6.7377161    185.94258  0.028224435  0.028788347            3 
  550000    1.0149068   -6.7205042    186.30107  0.028227434  0.028767264            3 
  551000    1.0337856    -6.782956    186.43757  0.028196849  0.028746016            5 
  552000    1.0380876   -6.7289766    187.19084  0.028259487  0.028724951            3 
  553000    1.0249165   -6.7382921    187.13577  0.028200086  0.028703887            2 
  554000    1.0313226   -6.7341502    187.38323  0.028186407  0.028683081            5 
  555000    1.0307763    -6.691354    188.63765  0.028323971  0.028662506            3 
  556000    1.0449879     -6.73302    188.84447  0.028304027  0.028642492            6 
  557000    1.0181206   -6.7664688    188.34618  0.028178663  0.028622154           11 
  558000    1.0444965   -6.7746487    188.01146  0.028078174   0.02860102            7 
  559000    1.0153562   -6.7319499    189.06557  0.028185088  0.028580275            5 
  560000    1.0307153   -6.7899044     188.8719  0.028105938  0.028560028            4 
  561000    1.0129271   -6.7565379    189.07743  0.028086368  0.028539524            3 
  562000    1.0154959   -6.7797046    188.96815  0.028020189  0.028518961            3 
  563000    1.0168793   -6.7317348    189.46243  0.028043581  0.028498493            7 
  564000    1.0438269   -6.7299184    190.40015  0.028132409  0.028478513            2 
  565000    1.0335604   -6.7612236    190.60277  0.028112502  0.028458975            4 
  566000    1.0338378   -6.7526814    191.22975  0.028155146  0.028439588            2 
  567000    1.0362018   -6.7689808    191.09002  0.028084953  0.028419817            2 
  568000    1.0303302   -6.7399711    190.88138  0.028004897  0.028399309            5 
  569000     1.027198   -6.7712298    190.29773  0.027870201  0.028378962            3 
  570000    1.0160805   -6.7496594     191.2167  0.027955658  0.028358345            9 
  571000    1.0066018   -6.7961508     190.6532   0.02782446  0.028337612            7 
  572000    1.0479283   -6.7137507    192.09492  0.027985856  0.028317169            2 
  573000    1.0119146   -6.7563241    191.25509  0.027814876  0.028296602            5 
  574000    1.0196627   -6.8005621    191.62886  0.027820683  0.028276351            3 
  575000     1.022771   -6.7775466    191.98855  0.027824428  0.028255827            2 
  576000    1.0324885   -6.7075687    192.94289  0.027914191  0.028235572            5 
  577000    1.0130283   -6.7528896    191.59681  0.027671405  0.028214833            4 
  578000    1.0336837   -6.7645473    192.15225  0.027703612  0.028193597            5 
  579000    1.0340797   -6.7620586    192.90206  0.027763681  0.028172827            7 
  580000    1.0301987   -6.8154602    192.96398   0.02772471  0.028152223            5 
  581000    1.0290164   -6.7791646    193.98544    0.0278235  0.028132051            2 
  582000    1.0180129   -6.7555574    193.53379  0.027711023  0.028111574            8 
  583000    1.0035864   -6.7433429    194.02098   0.02773313  0.028091146            8 
  584000    1.0212978   -6.7812854     194.0604  0.027691267  0.028070837            2 
  585000   0.99924212   -6.7512405    194.11203  0.027651286  0.028050685            2 
  586000    1.0179537   -6.7668459    194.56716  0.027668823  0.028030497            4 
  587000    1.0105874   -6.7423914    195.16511  0.027706575  0.028010562            7 
  588000    1.0334402   -6.7528893    195.53504  0.027711882  0.027990899            3 
  589000    1.0347883   -6.7396456    195.83087  0.027706688  0.027971436            3 
  590000    1.0309486   -6.7554268    196.45039   0.02774723  0.027952752            6 
  591000   0.99952377   -6.7478723    195.91131  0.027624269  0.027933314            4 
  592000    1.0167359    -6.778828    196.37987  0.027643562  0.027913815            4 
  593000    1.0182287   -6.7686207    196.94848  0.027676852  0.027894338            5 
  594000    1.0327781    -6.821272    196.72408  0.027598777  0.027875044            6 
  595000    1.0224369   -6.7746101    197.67082  0.027684988  0.027855714            4 
  596000     1.009441   -6.7500358    197.58498  0.027626535  0.027836966            2 
  597000    1.0069839   -6.7939188     197.7171  0.027598701  0.027817804            4 
  598000    1.0318183   -6.8080767    197.52631  0.027525963  0.027798394            5 
  599000    1.0093805   -6.7654156    197.59332  0.027489332  0.027779242            4 
  600000    1.0049425   -6.7939408    197.66561  0.027453557  0.027759722            6 
  601000   0.99865977   -6.7771666    197.64038  0.027404379    0.0277405            2 
  602000    1.0113766   -6.7916228    198.37962  0.027461188  0.027721371            3 
  603000    1.0036606   -6.8136505    197.67593  0.027318399  0.027702101            4 
  604000    1.0194266   -6.8117621    199.03609  0.027460829  0.027682741            9 
  605000    1.0331409   -6.7830405    199.14565   0.02743053  0.027663523            5 
  606000    1.0098913   -6.7939887    199.08911   0.02737749  0.027644369            4 
  607000    1.0028898   -6.8001044    199.42625  0.027378672  0.027625472            8 
  608000   0.99568459   -6.8198913     199.1592  0.027297039  0.027606277            7 
  609000    1.0092863   -6.8176011    199.59442   0.02731177  0.027586884            2 
  610000    1.0180341   -6.7842068    200.17576  0.027346415  0.027567342            5 
  611000    1.0069635   -6.7715697    200.23247  0.027309392   0.02754804            3 
  612000   0.99889875   -6.7996893    200.34986  0.027280755  0.027528902            8 
  613000    1.0246712   -6.8108057    199.93922  0.027180427  0.027509642            3 
  614000   0.99906984   -6.8094112    201.26341  0.027315881  0.027490177            5 
  615000    0.9888546   -6.7829281    201.47818  0.027300566  0.027470767            6 
  616000    1.0225058   -6.7875117    200.39789  0.027110105  0.027451496            4 
  617000     1.040162   -6.7958896    201.12601  0.027164506  0.027432146            4 
  618000   0.98970763   -6.7924397    201.26906  0.027139841  0.027412956            2 
  619000    1.0097155   -6.8151795    202.25062  0.027228139  0.027394013            3 
  620000   0.99038045   -6.7732534    202.26899  0.027186693  0.027375346            9 
  621000    1.0197358   -6.8331562    202.02114  0.027109653  0.027356546            5 
  622000    0.9907407   -6.8225517    201.74261  0.027028752  0.027337263            9 
  623000    1.0112459   -6.8225486    202.21217  0.027048176  0.027318164            5 
  624000   0.99115064   -6.8439427    202.56844  0.027052409   0.02729936            6 
  625000   0.99437732   -6.8104242    202.72447  0.027029929   0.02728035            3 
  626000   0.99087613   -6.7878442    202.94932  0.027016683  0.027261268            6 
  627000    1.0073159   -6.7864619    203.06896  0.026989495  0.027242444            5 
  628000   0.99148515   -6.8193245    203.80607   0.02704433  0.027223539            3 
  629000   0.97062397    -6.840313    203.69904  0.026987155  0.027204537            3 
  630000   0.99864413   -6.7802451    204.60928   0.02706472  0.027185896            5 
  631000    0.9840669   -6.7735471    204.88055  0.027057653   0.02716761            4 
  632000    1.0145559    -6.800243    204.57638  0.026974733  0.027149105            3 
  633000   0.98833027   -6.8172858    204.39482  0.026908218  0.027130002            4 
  634000   0.99332927   -6.8471343    204.38123  0.026863989  0.027110811            4 
  635000   0.99029613   -6.8135344    205.01667  0.026905075  0.027091832            4 
  636000     1.014002   -6.8292979    204.79922   0.02683428  0.027073254            3 
  637000    1.0085687   -6.8145112    205.67961  0.026907328    0.0270546            5 
  638000    1.0041014   -6.7988701    206.24976  0.026939624  0.027036421            4 
  639000    1.0047085   -6.8186307    206.17308  0.026887465  0.027018063            5 
  640000    1.0092645   -6.8607206    205.50176  0.026758041  0.026999153            3 
  641000   0.99210792   -6.8418037    206.21536  0.026809069  0.026980305            3 
  642000     1.000156   -6.8663441    206.92168  0.026858993  0.026961911            9 
  643000   0.99193966   -6.8526418    206.56087   0.02677046  0.026943403            5 
  644000    1.0035681   -6.8458063    206.31869  0.026697552  0.026924785            3 
  645000    1.0011526   -6.8584378    207.48011  0.026806216  0.026906336            3 
  646000    1.0097233   -6.8700934    206.59648  0.026650732  0.026887747            4 
  647000   0.99091552    -6.830112    207.61495  0.026740719  0.026869079            3 
  648000   0.96737045     -6.84988    207.27494  0.026655728   0.02685048            4 
  649000   0.98961416   -6.8626122    207.14691  0.026598216   0.02683143            6 
  650000   0.98803151   -6.8257962    208.07109   0.02667578   0.02681255            6 
  651000   0.98729871   -6.8222689     207.8756   0.02660978   0.02679384            4 
  652000   0.98960515   -6.7995907    208.51047  0.026650111  0.026775526            7 
  653000   0.98891955    -6.839686    208.37489  0.026591997  0.026757029            5 
  654000    1.0111359   -6.8613266    208.55489  0.026574273  0.026737847            7 
  655000   0.98106882   -6.8508466    208.70043  0.026552217  0.026719245            4 
  656000   0.95368372   -6.8396045    208.60541  0.026499671  0.026700258            3 
  657000   0.98163485   -6.8368334    208.72316  0.026474272  0.026681382            6 
  658000    1.0113338   -6.8442647    209.09408  0.026481013  0.026662769            4 
  659000   0.97263744   -6.8232147    209.91502   0.02654464  0.026644315            6 
  660000   0.99161921   -6.8536248    209.48014  0.026449513  0.026625654            6 
  661000   0.99278677   -6.9060458     209.2991  0.026386674  0.026606591            4 
  662000   0.98381909   -6.8456521    209.29126  0.026345828  0.026587658            6 
  663000   0.99574453   -6.8713931    209.33473  0.026311555   0.02656804            4 
  664000   0.99214999   -6.8594085    209.40361  0.026280573  0.026548799            3 
  665000   0.99974281   -6.8759949    209.44247  0.026245923  0.026529175            5 
  666000   0.99904055   -6.8174096    210.86891  0.026384999  0.026509794            5 
  667000   0.98754196   -6.8568677    210.70169  0.026324549  0.026490689            2 
  668000   0.99097388   -6.8657626    210.52968  0.026263682   0.02647144            3 
  669000   0.99922986   -6.8600379    210.24163  0.026188543  0.026452242            3 
  670000   0.99687121   -6.8743205    210.23727  0.026148914  0.026433191            4 
  671000   0.99140378   -6.8593272    210.65866  0.026162277  0.026414135            9 
  672000   0.96426556   -6.8546085    210.65229  0.026122555  0.026395072            6 
  673000   0.99541909   -6.8493466     212.1475  0.026268883  0.026376162            6 
  674000   0.99099396   -6.8708928    211.32613  0.026128355  0.026357313            9 
  675000   0.99289301    -6.921597    211.22821  0.026077557   0.02633829            3 
  676000   0.98261134   -6.8860511    211.98076   0.02613175  0.026319052            5 
  677000   0.98053617   -6.9223482    211.21446  0.025998825  0.026299833            5 
  678000   0.97812287   -6.8879691     212.0681  0.026065401  0.026280789            5 
  679000    1.0013694   -6.8789634    212.20426  0.026043723  0.026262133           11 
  680000   0.96354418   -6.8546187    212.73739  0.026070758   0.02624356            4 
  681000   0.98229503   -6.8835765    212.60203  0.026015911  0.026225183            4 
  682000   0.97776925   -6.8794017    213.55652  0.026094394  0.026206808            5 
  683000   0.98288328   -6.8627102    214.23171  0.026138569  0.026188186            3 
  684000   0.98595347   -6.8646133    214.26868  0.026104859  0.026169993            5 
  685000   0.97128777   -6.8876074    214.10056  0.026046297   0.02615175            3 
  686000   0.98419712   -6.8800688    214.77797  0.026090619  0.026133697            3 
  687000   0.97756403   -6.8922089     214.7788  0.026052741  0.026115641            5 
  688000   0.99426254   -6.8758024    215.15872  0.026060891  0.026097705            4 
  689000    0.9563537   -6.8775815    214.63911  0.025960221   0.02607943            6 
  690000   0.98182785   -6.8874096    215.12552  0.025981343  0.026061006            4 
  691000   0.96165485   -6.8897417     215.0405   0.02593349  0.026042478           10 
  692000     0.964953   -6.8852728    215.09241  0.025902265  0.026023863            4 
  693000   0.97522616   -6.8425348    215.69401   0.02593723  0.026005454            4 
  694000   0.98285984   -6.8884028    215.53561  0.025880837  0.025986793            5 
  695000   0.96565045   -6.8948665    215.74363  0.025868541  0.025968144            4 
  696000   0.97558918   -6.8952575    215.60382  0.025814634  0.025949509            3 
  697000   0.95522647     -6.88184    215.52428  0.025768087  0.025930959            3 
  698000   0.98101187    -6.888807    215.76673  0.025760116  0.025912443            5 
  699000   0.97204896   -6.9090869    216.58782  0.025821152  0.025894241            5 
  700000   0.98859114   -6.8600343    216.65937  0.025792782  0.025876211            2 
  701000   0.96413866    -6.872539    216.36907  0.025721478  0.025857924            4 
  702000   0.97528437   -6.9027629     216.5309  0.025704048  0.025839388            3 
  703000   0.96766595   -6.9249541     216.5719  0.025672345  0.025821046            7 
  704000   0.95938527   -6.8959314    217.21892  0.025712467  0.025802439            2 
  705000   0.96469607   -6.8999682    216.36991  0.025575639   0.02578366            6 
  706000   0.97647523   -6.8600316    218.60842  0.025803637  0.025765441            3 
  707000   0.97605211   -6.8685754    217.70787  0.025660994  0.025747082            5 
  708000   0.96449679   -6.9085241    217.18712  0.025563455  0.025728775            3 
  709000   0.98204128    -6.910804    218.10902  0.025635756  0.025710333            4 
  710000   0.98151766   -6.8984038    217.90427  0.025575619  0.025692056            5 
  711000     0.975652   -6.9778764    217.22999  0.025460618  0.025673774            4 
  712000   0.94906468   -6.9058075    218.60841   0.02558619   0.02565565            9 
  713000   0.96809048   -6.9212679    219.19625   0.02561901  0.025637806            5 
  714000   0.96031655   -6.9468054    218.31579  0.025480367  0.025619781            6 
  715000   0.95629454   -6.9095131    219.54321  0.025587787     0.025602            6 
  716000   0.97582218   -6.9637668    219.46373  0.025542799    0.0255841            7 
  717000   0.95093208   -6.9397043    219.38232  0.025497713  0.025566392            8 
  718000   0.94982891   -6.8868142    220.26079  0.025564158  0.025548813            5 
  719000   0.97577875   -6.9452728    219.20358  0.025406071  0.025531421            4 
  720000   0.97432927   -6.8815392     220.9621  0.025574317  0.025514051            7 
  721000   0.95703524   -6.9375957       220.56  0.025492372  0.025496713            9 
  722000   0.95717536   -6.9391337    220.78432  0.025482955  0.025479106            7 
  723000   0.95760619    -6.916859    220.78583  0.025447882   0.02546142            5 
  724000   0.94266051   -6.9492113    221.16822  0.025456747  0.025443995            5 
  725000   0.96040513   -6.9550819    221.09685  0.025413431  0.025426273            4 
  726000   0.95854789   -6.9313984    220.66553  0.025328918  0.025408225            7 
  727000   0.95730831   -6.9013689      222.533  0.025508138  0.025390557            7 
  728000   0.95984652    -6.941197    221.87016  0.025397226  0.025373259            7 
  729000   0.95214195   -6.9240635    222.31782   0.02541356  0.025356081            5 
  730000   0.95770283   -6.9400955    221.81979  0.025321894   0.02533884            2 
  731000   0.95415614   -6.9304628    222.66212  0.025383279  0.025321562            3 
  732000   0.97038177   -6.9711374    221.86622  0.025257994  0.025304203            4 
  733000   0.97495739   -6.9451053    222.26811  0.025269226  0.025286942            6 
  734000   0.97263602    -6.987613    222.30633  0.025239139  0.025269603            8 
  735000   0.96838711   -6.9241692    223.06547   0.02529087   0.02525251            5 
  736000    0.9713138   -6.9313842    223.40325  0.025294752  0.025235517            2 
  737000    0.9379837   -6.9233054    223.50432  0.025271859  0.025218343            3 
  738000   0.96024822    -6.929831     223.1706  0.025199932  0.025201139            7 
  739000   0.95491436   -6.9502891     223.8652  0.025244159  0.025184389            3 
  740000   0.96355934   -6.9536321      224.359  0.025265653  0.025167803            6 
  741000   0.94517521   -6.9619568    223.95289  0.025185885  0.025151182            7 
  742000   0.95198014    -6.910213    225.34264  0.025308023  0.025134604            2 
  743000   0.96096005   -6.9229067    225.60389  0.025303263  0.025118121            6 
  744000   0.95664666   -6.9033018    225.42242  0.025248927  0.025101562            4 
  745000   0.96239125   -6.9188325     224.9385  0.025160906  0.025085018            2 
  746000   0.96834971   -6.9614249    225.49364  0.025189191  0.025068732           14 
  747000   0.96156789   -6.9684472    225.36464   0.02514108   0.02505215           10 
  748000   0.96585719   -6.9666386    225.63582  0.025137681     0.025035            6 
  749000   0.96146441   -6.9687331    225.66183  0.025107013  0.025018651            5 
  750000     0.974898   -6.9498367     225.5644  0.025062711  0.025001818            6 
  751000   0.93121429   -6.9531455    226.14208   0.02509344  0.024985015           12 
  752000    0.9467827   -6.9761743    225.96737   0.02504071  0.024968032           16 
  753000   0.95591244   -6.9937404     225.8602  0.024995596  0.024951003            7 
  754000   0.96561306   -6.9961832    225.97951  0.024975631  0.024933898            3 
  755000   0.93402713   -6.9632379    226.02104  0.024947135  0.024916605            6 
  756000   0.97489029   -6.9806352    226.35424  0.024950864  0.024899559            5 
  757000    0.9525476   -6.9334042    226.45809  0.024929337   0.02488241            4 
  758000   0.94432633    -6.921003    226.88022  0.024942856  0.024865345            2 
  759000   0.93890964   -6.9630777    226.74147  0.024894759  0.024848164            3 
  760000   0.95422413   -6.9326811    226.66677  0.024853813  0.024831021            4 
  761000   0.94044114   -6.9189692    227.32638  0.024893384    0.0248139            5 
  762000   0.95681669   -6.9024994    227.81977  0.024914673  0.024797154            2 
  763000   0.93718035   -6.9311246    228.04252  0.024906348  0.024780009            2 
  764000    0.9352364   -6.9614532    228.01703  0.024870967  0.024762983            7 
  765000   0.94901522   -6.9853105    227.97662  0.024834054  0.024745589            5 
  766000    0.9521105   -6.9706287    228.05171  0.024809803  0.024728351            4 
  767000    0.9545377   -6.9693837     227.4416  0.024711169  0.024711404            9 
  768000   0.94066546   -6.9836876    228.11048  0.024751571  0.024694329            6 
  769000   0.94306706    -6.928208    228.59199  0.024771564  0.024677461            3 
  770000   0.95215867   -6.9773102    228.63682  0.024744244  0.024660443            9 
  771000   0.94289152   -6.9582023    228.39124  0.024685607  0.024643431            6 
  772000   0.93920388   -6.9988456    228.57956  0.024673959  0.024626307            5 
  773000   0.93695582   -6.9589735    228.65129  0.024649773  0.024608896            3 
  774000   0.94173639   -6.9971359    228.90992  0.024645771  0.024591374            5 
  775000   0.96059421   -6.9694384    229.05508  0.024629578  0.024573907            9 
  776000   0.94909047   -6.9789236    229.50819  0.024646498  0.024556668            8 
  777000   0.96707638    -6.998024    228.99548   0.02455979  0.024539675            4 
  778000    0.9490748   -6.9642726    229.88878  0.024623905   0.02452248            3 
  779000   0.94808338   -6.9882276    230.19256  0.024624793  0.024505432            9 
  780000   0.92413415   -6.9661413    229.44678  0.024513545  0.024488562            8 
  781000   0.93263165   -6.9531015    229.57341  0.024495669  0.024471244            6 
  782000   0.93601666   -6.9891131     229.5308  0.024459804  0.024453838            9 
  783000   0.95109658   -7.0409167    228.92718  0.024364323  0.024436112            9 
  784000   0.95417442   -6.9597864    229.59624  0.024404362  0.024418626            7 
  785000   0.94841044   -6.9867813    230.01372  0.024417593  0.024401169            5 
  786000   0.93802422   -6.9719551    230.90691  0.024481225  0.024383593            7 
  787000   0.94059994    -6.974609    230.31928  0.024387894  0.024366152            3 
  788000   0.93922707   -7.0609565    229.52406  0.024272849  0.024348748           15 
  789000   0.93835847   -6.9915987    229.89467  0.024281228  0.024331127            5 
  790000    0.9410355   -6.9759263    230.51136  0.024315544  0.024313531            3 
  791000   0.95609271   -6.9948365    231.24206  0.024361784  0.024296228            6 
  792000   0.96387615    -6.981453    231.07663  0.024313619  0.024278927            5 
  793000   0.90243129    -6.993486    231.14814  0.024290473  0.024261629           10 
  794000   0.92533734    -6.990948    231.55292  0.024302364  0.024244369            5 
  795000   0.94955332   -6.9844021     231.5555  0.024272065  0.024227129            7 
  796000   0.92300101   -6.9987983    231.50144  0.024235913  0.024209695            3 
  797000   0.93431442   -6.9860953    231.93461  0.024250795  0.024192054           15 
  798000   0.94864859   -7.0395954    231.34028  0.024158342  0.024174504            5 
  799000   0.91881276   -6.9824885    232.19011   0.02421674  0.024157095            3 
  800000   0.91837514   -7.0066671    232.21768  0.024189342  0.024139567           10 
  801000   0.92635685   -6.9860315    231.92713  0.024128914  0.024122066            7 
  802000   0.91562778   -6.9983237    231.76787  0.024082281  0.024104507            4 
  803000   0.93468919   -7.0062906    231.74669  0.024050092  0.024087123           17 
  804000   0.93743855   -6.9773479    232.03157  0.024049707   0.02406963            4 
  805000   0.91993134   -6.9549264    232.07587  0.024024417  0.024052034            4 
  806000    0.9454042   -6.9643052     232.5473  0.024043352  0.024034387            6 
  807000    0.9488566   -7.0119771    232.71354  0.024030725  0.024016845            4 
  808000   0.90696986   -6.9944134    232.88194  0.024018352  0.023999371           12 
[...]
 1800000   0.53209537   -8.2071679    251.48036  0.011642609  0.010015859         2211 
 1801000   0.53054427   -8.2142732    251.24052  0.011625047  0.010006737         2090 
 1802000   0.53936842   -8.2202442    251.89146  0.011648698 0.0099976229         2129 
 1803000   0.54258387   -8.2184024    251.61614  0.011629513 0.0099885215         2197 
 1804000   0.53421585   -8.2290947    251.56128  0.011620532 0.0099794197         2171 
 1805000   0.52767787   -8.2147872    251.48291  0.011610476 0.0099703421         2187 
 1806000   0.52649549    -8.219407    251.41536   0.01160093 0.0099612776         2131 
 1807000   0.53469654   -8.2065132    251.16178  0.011582816 0.0099522177         2195 
 1808000   0.53905338   -8.2093182     251.3795  0.011586444 0.0099431728         2169 
 1809000   0.54140826   -8.2201263    251.42073  0.011581939 0.0099341338         2207 
 1810000   0.52765434   -8.2034947    251.33413  0.011571553 0.0099250947         2168 
 1811000   0.52752357   -8.2149225    251.45781  0.011570855 0.0099160748         2209 
 1812000    0.5202516   -8.2160742    251.66918   0.01157419 0.0099070742         2210 
 1813000   0.54751405   -8.2221782    251.43851  0.011557203 0.0098980854         2202 
 1814000   0.53079619   -8.2169459    251.49367  0.011553366 0.0098890846         2231 
 1815000    0.5274795   -8.2332011    251.53567  0.011548929 0.0098801051         2131 
 1816000   0.54894321   -8.2189721    252.11474  0.011569142 0.0098711359         2144 
 1817000   0.51875544   -8.2174731    251.97583  0.011556404 0.0098621879         2122 
 1818000   0.52484104    -8.219527    251.30172  0.011519147  0.009853235         2121 
 1819000   0.51408748   -8.2366968    251.38753  0.011516746 0.0098443033         2165 
 1820000   0.52378888   -8.2034282    250.82344   0.01148459  0.009835372         2207 
 1821000   0.52240836   -8.2187083     251.5109  0.011509743 0.0098264617         2103 
 1822000   0.52693377   -8.2315382    251.79456    0.0115164 0.0098175532         2183 
 1823000   0.52457742   -8.2206956    251.06408   0.01147669 0.0098086461         2176 
 1824000   0.52875627   -8.2189312    251.65972  0.011497611 0.0097997529         2255 
 1825000   0.51877608   -8.2339358    251.30447   0.01147509 0.0097908718         2192 
 1826000    0.5373218   -8.2309803    251.74417  0.011488872 0.0097820078         2212 
 1827000    0.5218765   -8.2194812    251.25371  0.011460213 0.0097731495         2222 
 1828000   0.52717543   -8.2212552    251.64346  0.011471712 0.0097642982         2133 
 1829000   0.52612473   -8.2368123    251.65676  0.011466045 0.0097554709         2205 
 1830000    0.5193972    -8.258048    251.32795  0.011444806 0.0097466503         2187 
 1831000   0.51637014   -8.2391118    251.17573  0.011431628 0.0097378293         2194 
 1832000   0.52654026   -8.2509365    251.14243  0.011423873  0.009729026         2151 
 1833000   0.51679392   -8.2393734    251.40047  0.011429372 0.0097202363         2154 
 1834000    0.5194228   -8.2365528    251.17732  0.011413001  0.009711447         2154 
 1835000   0.52995262   -8.2414907    251.33603  0.011413989 0.0097026804         2117 
 1836000   0.51354352   -8.2582897    251.24721  0.011403741 0.0096939104         2182 
 1837000    0.5209379   -8.2254443    251.11563  0.011391564 0.0096851558         2142 
 1838000   0.51644394    -8.227603    251.25092    0.0113915 0.0096764071         2097 
 1839000   0.51846307   -8.2343774     251.0313  0.011375354 0.0096676791         2167 
 1840000   0.51806646   -8.2303326    251.38318  0.011385108 0.0096589572         2142 
 1841000   0.52129682   -8.2433267    251.26517  0.011373582 0.0096502464         2161 
 1842000   0.52736291   -8.2295211    251.27255  0.011367741 0.0096415444         2155 
 1843000    0.5199449   -8.2316554    251.14085  0.011355618  0.009632848         2118 
 1844000   0.52087851   -8.2399529    250.94765  0.011340729 0.0096241694         2238 
 1845000   0.52005745   -8.2416946    251.35261  0.011352873 0.0096154985         2286 
 1846000   0.51406871   -8.2460313    250.98517  0.011330136 0.0096068356         2236 
 1847000   0.52302445   -8.2449269    251.08414  0.011328467 0.0095981787         2276 
 1848000   0.52591403   -8.2358653    251.25963   0.01133025 0.0095895454         2244 
 1849000   0.52183679    -8.256313    251.17786  0.011320437 0.0095809145         2303 
 1850000   0.51562773    -8.241141    251.34821  0.011321992 0.0095722872         2183 
 1851000   0.51494269   -8.2523218    251.05748  0.011302786 0.0095636877         2281 
 1852000   0.51978122   -8.2290554    250.87476  0.011288461  0.009555081         2201 
 1853000   0.51795596   -8.2504316    251.18012  0.011296102 0.0095464823         2255 
 1854000   0.53000844   -8.2472295    250.94017  0.011279224 0.0095378971         2222 
 1855000   0.51968728   -8.2437642    250.90066  0.011271368 0.0095293298         2253 
 1856000   0.51345353   -8.2512766    250.72689  0.011257493 0.0095207615         2150 
 1857000   0.51798036   -8.2463171    251.35241  0.011279501 0.0095122099         2247 
 1858000    0.5116647   -8.2664051    251.02165  0.011258596 0.0095036614         2258 
 1859000   0.51091625   -8.2423907    251.10027  0.011256064 0.0094951181         2178 
 1860000   0.49609194    -8.255219    251.17802  0.011253496 0.0094865813         2166 
 1861000   0.53130075   -8.2497302    251.22889  0.011249726 0.0094780673         2177 
 1862000   0.49797685    -8.255927    251.36901  0.011249956  0.009469565         2224 
 1863000   0.50252403   -8.2390473    250.99392  0.011227139 0.0094610621         2246 
 1864000   0.51125653   -8.2584508    250.71245  0.011208532 0.0094525657         2187 
 1865000   0.50390558   -8.2491065    251.27737  0.011227765 0.0094440826         2220 
 1866000   0.51104114   -8.2587427    250.99596   0.01120918 0.0094356167         2281 
 1867000   0.49516333    -8.250363    251.13794  0.011209514 0.0094271535         2282 
 1868000   0.51859528   -8.2580151    251.34716  0.011212846 0.0094187035         2265 
 1869000     0.500185   -8.2483686    250.94074  0.011188726 0.0094102638         2219 
 1870000   0.51272459   -8.2763588    250.68446  0.011171322 0.0094018288         2244 
 1871000   0.50769433   -8.2652494     250.9807  0.011178546 0.0093934123         2248 
 1872000   0.50444551   -8.2604964    250.93502   0.01117054 0.0093849941         2323 
 1873000    0.5115666   -8.2777183    250.82837  0.011159831 0.0093765918         2361 
 1874000   0.50482718   -8.2665803     251.0525  0.011163843 0.0093681957         2311 
 1875000   0.50365627   -8.2535006    250.70773  0.011142566 0.0093598142         2224 
 1876000   0.50078069   -8.2570383    251.10622  0.011154327  0.009351443         2313 
 1877000   0.49620482   -8.2705937    250.53824  0.011123168 0.0093430755         2285 
 1878000   0.49941606   -8.2610988    250.93373  0.011134794 0.0093347201         2250 
 1879000   0.49716818   -8.2580444    251.01673  0.011132549 0.0093263744         2275 
 1880000   0.50184368    -8.268234    250.66809  0.011111174 0.0093180393         2270 
 1881000   0.50792612   -8.2657178    251.03008  0.011121304 0.0093097121         2314 
 1882000   0.50332321   -8.2622532    250.61293  0.011096924  0.009301397         2307 
 1883000   0.50894838   -8.2659562    250.58153  0.011089641 0.0092930988         2325 
 1884000   0.49778241   -8.2540648    250.83315  0.011094884 0.0092848044         2282 
 1885000   0.51784115   -8.2682009    251.02557  0.011097505 0.0092765199         2280 
 1886000   0.50993711   -8.2781153    251.24891   0.01110149 0.0092682426         2228 
 1887000    0.4978504   -8.2696451    250.97199  0.011083377 0.0092599757         2208 
 1888000   0.49833203   -8.2775599    250.95239  0.011076642 0.0092517287         2263 
 1889000   0.48172927   -8.2570216    251.03536  0.011074438 0.0092434903         2261 
 1890000   0.49818765   -8.2584521    250.97764  0.011066033 0.0092352609         2270 
 1891000   0.50112018   -8.2683487    250.57006   0.01104222 0.0092270337         2284 
 1892000    0.5040982    -8.258799    250.79717  0.011046387 0.0092188162         2278 
 1893000   0.49941297   -8.2626222    250.93498  0.011046618 0.0092106036         2296 
 1894000   0.50269932   -8.2869311    250.64143   0.01102787 0.0092023962         2242 
 1895000    0.4943808   -8.2618546    250.45491  0.011013848 0.0091942085         2280 
 1896000   0.49614847   -8.2749172    250.60482  0.011014628 0.0091860315         2309 
 1897000    0.4963166    -8.274952    251.09948  0.011030552 0.0091778582         2283 
 1898000   0.49511159   -8.2718337     251.0154  0.011021048 0.0091696985         2310 
 1899000   0.48643419    -8.292862    250.69245  0.011001073 0.0091615347         2236 
 1900000   0.49577949   -8.2930012    250.59816  0.010991147 0.0091533801         2327 
 1901000   0.49472257   -8.2836441    250.75684  0.010992322 0.0091452414         2242 
 1902000   0.49292262   -8.2804443    250.87608  0.010991767 0.0091371149         2243 
 1903000   0.49059604   -8.2939594    250.57199  0.010972674 0.0091289971         2268 
 1904000      0.48741   -8.2711872    250.86988  0.010979949 0.0091208842         2244 
 1905000   0.49533679   -8.2922158    250.83736  0.010972763 0.0091127857         2292 
 1906000   0.49976779   -8.2963375    250.63356  0.010958096 0.0091046986         2240 
 1907000   0.48902186   -8.2823617    250.73295  0.010956693 0.0090966192         2209 
 1908000   0.48077103   -8.2956332    250.92882  0.010959505 0.0090885532         2271 
 1909000    0.4861009   -8.2820575    251.06806  0.010959842 0.0090804904         2292 
 1910000   0.50241735   -8.2899548    250.84098  0.010944196  0.009072435         2258 
 1911000   0.49404714   -8.2834284     251.1544  0.010952137 0.0090643887         2280 
 1912000   0.49323493   -8.2873115    250.27056  0.010907887 0.0090563478         2348 
 1913000   0.48844244   -8.2699459    250.98507   0.01093331 0.0090483167         2226 
 1914000   0.49113629   -8.2857765    250.45095  0.010904343 0.0090402989         2322 
 1915000   0.47675933   -8.2920346    250.67281  0.010908303 0.0090322955         2372 
 1916000   0.48836336   -8.2824202    250.69888  0.010903744 0.0090243025         2304 
 1917000   0.48373084   -8.3023696    250.35643  0.010883169 0.0090163169         2327 
 1918000   0.49382562   -8.2895546    250.12266  0.010867339 0.0090083369         2393 
 1919000   0.48702712    -8.316492    250.44206  0.010875545 0.0090003643         2362 
 1920000   0.47747862   -8.2759327    250.76696  0.010883982    0.0089924         2253 
 1921000   0.48185548   -8.3050902    250.65344  0.010873392 0.0089844519         2359 
 1922000    0.4891697   -8.3145482    250.45343  0.010859063 0.0089765138         2317 
 1923000   0.48373231   -8.2972122    250.73832  0.010865762 0.0089685842         2328 
 1924000   0.47773598    -8.302442     250.6569  0.010856588 0.0089606581         2328 
 1925000   0.49128341   -8.2777889    250.72291  0.010853806 0.0089527452         2275 
 1926000    0.4906996   -8.2972245    250.08377  0.010820516 0.0089448392         2276 
 1927000   0.48548034   -8.2898134    250.51099  0.010833376 0.0089369428         2264 
 1928000   0.48555748   -8.2877623    250.69736  0.010835813 0.0089290544         2311 
 1929000   0.47815736   -8.2944924     250.3698  0.010816045  0.008921179         2272 
 1930000   0.48734871   -8.2855071    250.07972  0.010797915 0.0089133072         2319 
 1931000   0.48326262   -8.2984356    250.32639  0.010802969 0.0089054529         2259 
 1932000   0.48368835   -8.3022064    250.41314  0.010801119 0.0088975949         2322 
 1933000   0.48604527    -8.308865    250.97869  0.010819912 0.0088897548         2252 
 1934000   0.48809712   -8.2859067    250.70391  0.010802478  0.008881921         2284 
 1935000   0.48344306   -8.3014619    250.21408    0.0107758 0.0088740963         2253 
 1936000   0.48076363   -8.2848044    250.29322  0.010773641 0.0088662763         2266 
 1937000   0.47633862   -8.3007965    250.50324  0.010777114 0.0088584717         2264 
 1938000   0.48415589   -8.2943065    250.64925  0.010777831 0.0088506876         2245 
 1939000   0.46703895   -8.2986214    251.00416  0.010787526 0.0088429071         2257 
 1940000   0.47366397   -8.2894012     250.5272  0.010761478 0.0088351347         2251 
 1941000   0.48350027    -8.307941     250.5826  0.010758312 0.0088273682         2280 
 1942000   0.48049566   -8.3140411    250.54612  0.010751207 0.0088195971         2222 
 1943000   0.47863642   -8.3053696    250.00808  0.010722597 0.0088118442         2264 
 1944000   0.46672214   -8.2984864    249.82591  0.010709272 0.0088040994         2200 
 1945000   0.47594209   -8.3071075    250.33923   0.01072576  0.008796364         2320 
 1946000   0.46976804   -8.3069369     250.1904  0.010713875 0.0087886336         2356 
 1947000   0.47807034   -8.2953638    250.17127  0.010707553 0.0087809223         2333 
 1948000   0.46930351   -8.3012752    250.42312   0.01071283 0.0087732148         2318 
 1949000   0.47287658   -8.3302964     250.3533  0.010704348 0.0087655052         2357 
 1950000   0.47127179   -8.2975485     250.3523  0.010698816 0.0087578091         2304 
 1951000   0.47085411   -8.3047944    250.38004  0.010694517 0.0087501285         2325 
 1952000   0.46719249   -8.3179513    250.46221  0.010692546 0.0087424481         2373 
 1953000   0.47139117    -8.303603    250.55799  0.010691158 0.0087347876         2282 
 1954000   0.48416875   -8.3221624    250.07673  0.010665162 0.0087271304         2238 
 1955000   0.47441426   -8.3220554     249.7317     0.010645 0.0087194697         2321 
 1956000   0.46988242   -8.3234352    250.28572  0.010663161  0.008711837         2282 
 1957000   0.46311486   -8.3098716    250.84091  0.010681354 0.0087042158         2306 
 1958000   0.45992712   -8.3204166    250.42385  0.010658148 0.0086965993         2278 
 1959000   0.47408676    -8.301531    250.54557  0.010657885 0.0086889887         2282 
 1960000   0.47179862   -8.3182584    250.40903  0.010646642 0.0086813863         2228 
 1961000   0.46526386   -8.3210061    250.10293  0.010628206  0.008673793         2327 
 1962000   0.47353166   -8.3019602    250.75988  0.010650692 0.0086662093         2292 
 1963000   0.46978345   -8.2988348     250.2435  0.010623344 0.0086586399         2249 
 1964000   0.48320927   -8.3190396    250.35702  0.010622752 0.0086510747         2335 
 1965000   0.46590791   -8.3230944     250.6175  0.010628393 0.0086435104         2314 
 1966000   0.46189612    -8.305119    250.35464  0.010611845 0.0086359622         2303 
 1967000   0.46970028   -8.3044158    250.53281  0.010613998 0.0086284213         2317 
 1968000   0.47053764   -8.3196101    250.39898  0.010602938 0.0086208941         2333 
 1969000   0.46224478   -8.3173241    250.08089  0.010584091 0.0086133687         2357 
 1970000   0.46902133   -8.3147687    250.32896  0.010589211 0.0086058526         2288 
 1971000   0.46869503    -8.299712    250.38778  0.010586326 0.0085983496         2265 
 1972000     0.471418    -8.318079    250.00307    0.0105647 0.0085908546         2277 
 1973000   0.45964104   -8.3087801    250.16272  0.010566089 0.0085833665         2247 
 1974000   0.46364958   -8.3187761    249.99559  0.010553681  0.008575883         2276 
 1975000    0.4677923   -8.3312543    249.91892  0.010545102 0.0085684019         2298 
 1976000   0.46336484   -8.3274298    250.15093   0.01054955 0.0085609402         2307 
 1977000   0.46890585   -8.3270181    250.02844  0.010539051  0.008553482         2331 
 1978000    0.4638483   -8.3289537    250.25879  0.010543427 0.0085460309         2238 
 1979000   0.47126457     -8.32867     250.0523  0.010529404 0.0085385937         2294 
 1980000   0.46804465   -8.3228761    249.99113  0.010521512 0.0085311593         2298 
 1981000   0.45646513   -8.3260508    249.98013  0.010515738 0.0085237322         2283 
 1982000   0.46023639   -8.3271336    250.00683  0.010511555 0.0085163202         2326 
 1983000   0.45450636   -8.3255633    250.30164  0.010518644 0.0085089145         2336 
 1984000   0.47211677   -8.3220506    250.23872  0.010510699 0.0085015164         2270 
 1985000   0.46007092   -8.3190485     250.1566  0.010501956 0.0084941269         2309 
 1986000    0.4552594    -8.338421    249.88728  0.010485367 0.0084867431         2320 
 1987000   0.45290099   -8.3193331     250.1936  0.010492938 0.0084793695         2271 
 1988000    0.4586708   -8.3405398    250.32125   0.01049301 0.0084719996         2300 
 1989000   0.46340496   -8.3264032    250.30204   0.01048693 0.0084646401         2273 
 1990000   0.45830194   -8.3342774    249.49511  0.010447869 0.0084572812         2302 
 1991000    0.4544989   -8.3333155    249.77827  0.010454473 0.0084499412         2297 
 1992000   0.45079968   -8.3335123    250.19518  0.010466666 0.0084426062         2268 
 1993000   0.46249745   -8.3369576    249.75163  0.010442868 0.0084352794         2274 
 1994000   0.45508815   -8.3522743    250.28239  0.010459812 0.0084279601         2295 
 1995000    0.4641404   -8.3348673    249.69562  0.010430059 0.0084206514         2247 
 1996000   0.45963534   -8.3328756    249.91093  0.010433823 0.0084133526         2254 
 1997000   0.46080987    -8.339172    249.95139  0.010430287 0.0084060564         2264 
 1998000    0.4548347   -8.3384618    249.89877  0.010422872 0.0083987696         2349 
 1999000   0.45734933   -8.3311508    249.66402  0.010407872 0.0083914934         2355 
 2000000   0.45098202   -8.3427219    249.94289  0.010414287 0.0083842167         2313 
 2001000   0.45571604     -8.33327    249.95735  0.010409685 0.0083769602         2313 
 2002000   0.45102179   -8.3416207    249.81934   0.01039874 0.0083697129         2327 
 2003000   0.45003111   -8.3314555    249.91565  0.010397556 0.0083624727         2303 
 2004000   0.46607778   -8.3287393    249.55893  0.010377534  0.008355233         2287 
 2005000   0.45923824   -8.3434514    249.80507  0.010382588 0.0083480057         2296 
 2006000   0.44611857   -8.3456282    249.74949  0.010375103 0.0083407898         2371 
 2007000   0.44595338   -8.3430815    249.71789  0.010368622 0.0083335758         2297 
 2008000   0.45585014   -8.3495601    249.92372     0.010372 0.0083263696         2383 
 2009000   0.45442068   -8.3483429    249.98474  0.010369369 0.0083191748         2299 
 2010000   0.45482104   -8.3428943    249.75239  0.010354577 0.0083119837         2310 
 2011000   0.45487521   -8.3208295     249.6677  0.010345918  0.008304802         2289 
 2012000   0.45409831   -8.3592979    250.03827  0.010356124 0.0082976284         2358 
Loop time of 5272.18 on 48 procs for 2000000 steps with 4000 atoms

Performance: 65551.656 tau/day, 379.350 timesteps/s
99.4% CPU use with 48 MPI tasks x no OpenMP threads

MPI task timing breakdown:
Section |  min time  |  avg time  |  max time  |%varavg| %total
---------------------------------------------------------------
Pair    | 393.35     | 431.33     | 471.15     |  93.2 |  8.18
Neigh   | 36.896     | 38.467     | 39.943     |  12.4 |  0.73
Comm    | 343.72     | 379.3      | 420.35     |  94.4 |  7.19
Output  | 6.0258     | 6.0285     | 6.0799     |   0.3 |  0.11
Modify  | 4343       | 4365.8     | 4386.5     |  15.8 | 82.81
Other   |            | 51.23      |            |       |  0.97

Nlocal:        83.3333 ave          90 max          78 min
Histogram: 6 5 8 4 2 8 5 4 1 5
Nghost:        2435.62 ave        2450 max        2420 min
Histogram: 2 2 4 3 9 9 6 9 3 1
Neighs:        16968.5 ave       19820 max       14860 min
Histogram: 4 6 4 10 6 4 8 4 1 1
FullNghs:      33934.5 ave       37114 max       31523 min
Histogram: 3 7 11 2 9 1 6 4 3 2

Total # of neighbors = 1628858
Ave neighs/atom = 407.21450
Neighbor list builds = 106691
Dangerous builds = 0

#clear
#
#next RN
#
#jump SELF
Total wall time: 1:27:55
