
units lj                  # Use reduced LJ style units
atom_style atomic         # Uncharged point particles
atom_modify map hash      # Needed for indexing of clusters etc
                          # Used to be able to find where atoms are in relation to each other.

# Define a lattice with which to populate the simulation cell. With units
# set to 'lj' the second argument to the lattice command is the reduced
# density rho* and the spacings are multiples of that required to acheive
# that density. Also define a simulation cell called 'box' in lattice units
# and fill it with atoms. Here we're creating a box which is ten lattice
# constants in each direction.
lattice fcc 1.0 spacing 1 1 1                 # All equal sizes - gives the right reduced density.
Lattice spacing in x,y,z = 1.5874011 1.5874011 1.5874011

region box block 0 10 0 10 0 10 units lattice # Defines a region, "box", in lattice units
create_box 1 box                              # Creates a simulation box as specified above,
Created orthogonal box = (0.0000000 0.0000000 0.0000000) to (15.874011 15.874011 15.874011)
  3 by 4 by 4 MPI processor grid
                                              # with one type of atom
create_atoms 1 box                            # Creates particles on lattice points
Created 4000 atoms
  using lattice units in orthogonal box = (0.0000000 0.0000000 0.0000000) to (15.874011 15.874011 15.874011)
  create_atoms CPU = 0.004 seconds


# Set the mass of the first (and only) atom type.
mass 1 1.0

# Lennard-Jones interactions between particles, 3.5 sigma cut-off. Apply
# long range tail corrections to energy and pressure and set all coefficients
# to unity since we work in reduced units here. Note that this doesn't shift
# the potential such that it goes to zero at the cutoff. That would require
# pair_modify('shift', 'yes').
pair_style lj/cut  3.5      # non-GPU version
pair_modify tail  yes
pair_coeff 1  1  1.0  1.0   # Intearaction between 1 and 1 set with epsilon = 1 and sigma = 1

write_data data.*
System init for write_data ...
Neighbor list info ...
  update every 1 steps, delay 10 steps, check yes
  max neighbors/atom: 2000, page size: 100000
  master list distance cutoff = 3.8
  ghost atom cutoff = 3.8
  binsize = 1.9, bins = 9 9 9
  1 neighbor lists, perpetual/occasional/extra = 1 0 0
  (1) pair lj/cut, perpetual
      attributes: half, newton on
      pair build: half/bin/atomonly/newton
      stencil: half/bin/3d
      bin: standard

#############################
#   M E L T   S Y S T E M   #
#############################

velocity all create 2.4 6229865 mom yes dist gaussian # Assign velocities
                                                    # Temperature 2.4, random number seed, zero linear momentum
						                                                        # Gaussian distribution

timestep 0.002   # simulation timestep
thermo 1000       # output thermodynamic data every 1000 steps

# Define a fix  in this case with index 1 applied to all
# particles in the simulation. This fix is for simulations
# in the anisotropic NPT ensemble. Note that we use the MTK
# correction.
fix 1 all npt temp 2.4 2.4 0.1 iso 5.68 5.68 0.5 mtk yes tchain 5 pchain 5 # Use NPT ensemble
                                                                         # Set temperature and pressure and damping
                                                                         # Numbers of thermostats in chain and in barostat
run 1000         # run for 10000 steps
Per MPI rank memory allocation (min/avg/max) = 3.642 | 3.644 | 3.648 Mbytes
Step Temp E_pair E_mol TotEng Press Volume 
       0          2.4   -8.3859253            0   -4.7868253   -2.2405722         4000 
    1000    2.3673149   -4.4811735            0  -0.93108891    5.4341652    5181.8809 
Loop time of 0.21783 on 48 procs for 1000 steps with 4000 atoms

Performance: 793280.467 tau/day, 4590.743 timesteps/s
99.4% CPU use with 48 MPI tasks x no OpenMP threads

MPI task timing breakdown:
Section |  min time  |  avg time  |  max time  |%varavg| %total
---------------------------------------------------------------
Pair    | 0.093927   | 0.099849   | 0.11244    |   1.2 | 45.84
Neigh   | 0.017852   | 0.018776   | 0.020302   |   0.4 |  8.62
Comm    | 0.058712   | 0.074638   | 0.080444   |   1.7 | 34.26
Output  | 2.5361e-05 | 2.6187e-05 | 3.3176e-05 |   0.0 |  0.01
Modify  | 0.019434   | 0.023005   | 0.025385   |   1.1 | 10.56
Other   |            | 0.001535   |            |       |  0.70

Nlocal:        83.3333 ave          93 max          73 min
Histogram: 3 0 4 4 7 9 11 6 2 2
Nghost:        1387.69 ave        1414 max        1367 min
Histogram: 3 5 6 3 12 8 6 2 2 1
Neighs:        7359.17 ave        8798 max        6287 min
Histogram: 3 2 7 11 7 9 6 0 1 2

Total # of neighbors = 353240
Ave neighs/atom = 88.310000
Neighbor list builds = 87
Dangerous builds = 25

# Equilibrate just above the melting temperature to avoid step fn in T

fix 1 all npt temp 1.25 1.25 0.1 iso 5.68 5.68 0.5 mtk yes tchain 5 pchain 5
run 1000
Per MPI rank memory allocation (min/avg/max) = 3.642 | 3.644 | 3.648 Mbytes
Step Temp E_pair E_mol TotEng Press Volume 
    1000    2.3673149   -4.4811735            0  -0.93108891    5.4341652    5181.8809 
    2000    1.2267189   -5.8365426            0   -3.9969242     5.526825     4357.147 
Loop time of 0.212811 on 48 procs for 1000 steps with 4000 atoms

Performance: 811989.399 tau/day, 4699.013 timesteps/s
99.6% CPU use with 48 MPI tasks x no OpenMP threads

MPI task timing breakdown:
Section |  min time  |  avg time  |  max time  |%varavg| %total
---------------------------------------------------------------
Pair    | 0.092721   | 0.09944    | 0.10547    |   0.8 | 46.73
Neigh   | 0.015613   | 0.016466   | 0.01752    |   0.3 |  7.74
Comm    | 0.066351   | 0.072767   | 0.078622   |   1.2 | 34.19
Output  | 2.3971e-05 | 2.4679e-05 | 3.1301e-05 |   0.0 |  0.01
Modify  | 0.019413   | 0.022197   | 0.026168   |   1.2 | 10.43
Other   |            | 0.001915   |            |       |  0.90

Nlocal:        83.3333 ave          92 max          76 min
Histogram: 3 5 0 11 8 7 8 3 2 1
Nghost:        1554.94 ave        1577 max        1535 min
Histogram: 2 2 4 9 7 14 2 6 1 1
Neighs:        8736.65 ave        9525 max        7851 min
Histogram: 2 5 3 3 9 8 3 9 4 2

Total # of neighbors = 419359
Ave neighs/atom = 104.83975
Neighbor list builds = 76
Dangerous builds = 8


# Small amount of linear quench

fix 1 all npt temp 1.25 ${temp} 0.1 iso 5.68 5.68 0.5 mtk yes tchain 5 pchain 5
fix 1 all npt temp 1.25 2 0.1 iso 5.68 5.68 0.5 mtk yes tchain 5 pchain 5
run 2000
Per MPI rank memory allocation (min/avg/max) = 3.643 | 3.645 | 3.648 Mbytes
Step Temp E_pair E_mol TotEng Press Volume 
    2000    1.2267189   -5.8365426            0   -3.9969242     5.526825     4357.147 
    3000    1.5595079   -5.3545441            0    -3.015867    5.5677562    4597.0004 
    4000    1.9753125   -4.8661837            0   -1.9039556    5.6089713    4889.3023 
Loop time of 0.421041 on 48 procs for 2000 steps with 4000 atoms

Performance: 820822.592 tau/day, 4750.131 timesteps/s
99.7% CPU use with 48 MPI tasks x no OpenMP threads

MPI task timing breakdown:
Section |  min time  |  avg time  |  max time  |%varavg| %total
---------------------------------------------------------------
Pair    | 0.18728    | 0.19774    | 0.20643    |   0.9 | 46.96
Neigh   | 0.031807   | 0.033155   | 0.034385   |   0.3 |  7.87
Comm    | 0.12983    | 0.14285    | 0.15846    |   1.5 | 33.93
Output  | 5.3037e-05 | 5.4067e-05 | 6.7162e-05 |   0.0 |  0.01
Modify  | 0.038902   | 0.043378   | 0.047561   |   1.3 | 10.30
Other   |            | 0.003862   |            |       |  0.92

Nlocal:        83.3333 ave          91 max          78 min
Histogram: 4 4 6 13 7 3 6 2 1 2
Nghost:        1441.21 ave        1468 max        1409 min
Histogram: 2 1 5 5 7 12 3 5 5 3
Neighs:        7785.65 ave        8493 max        7073 min
Histogram: 1 4 4 5 8 12 7 1 2 4

Total # of neighbors = 373711
Ave neighs/atom = 93.427750
Neighbor list builds = 151
Dangerous builds = 2

#############################
# F R E E Z E  S Y S T E M  #
#############################

# Define solid atoms. This closely follows ten Wolde  Ruiz-Montero and Frenkel  Faraday Discuss  1996  104  93-110
# Compute components of the per-atom q6 vector
compute q6 all orientorder/atom degrees 1 6 components 6 nnn NULL cutoff 1.3 # compute the Q6 parameter.
                                                                             # Use all neighbours within 1.3 unit cell.

# get number of connections
compute coord_number all coord/atom orientorder q6 0.5

# An atom is solid if it has 8 or more connections (of a possible 14)
variable is_solid atom c_coord_number>=8
group solid dynamic all var is_solid    # Must be dynamic to update
dynamic group solid defined

# do clustering
compute cluster solid cluster/atom 1.3 # Create a cluster where all atoms within are solid and max 1.3 units from another member

# define chunks one chunk per cluster
compute clus_chunks solid chunk/atom c_cluster nchunk every compress yes  # Says which atoms are in which chunk

# count the size of each chunk
compute size_chunks solid property/chunk clus_chunks count


# Find the maximum entry in the vector of chunk sizes
variable max_n equal max(c_size_chunks)


# Thermo style which includes this variable
thermo_style custom step temp pe vol v_max_n

thermo ${N}  # Print the thermo information every 100 steps
thermo 1000  

# Reset the npt fix at a lower temperature (below freezing)
fix 1  all npt temp  ${temp} ${temp}  0.1  iso  5.68  5.68  0.5  mtk yes tchain  5  pchain  5
fix 1  all npt temp  2 ${temp}  0.1  iso  5.68  5.68  0.5  mtk yes tchain  5  pchain  5
fix 1  all npt temp  2 2  0.1  iso  5.68  5.68  0.5  mtk yes tchain  5  pchain  5

dump dmp2 all dcd ${N} traj_${rand}.dcd
dump dmp2 all dcd 1000 traj_${rand}.dcd
dump dmp2 all dcd 1000 traj_462431.dcd


# fix rnuntil all halt ${N} v_max_n >= 3980 error soft message no   # Stop when solidified


run 1000000 # 5000000  # Run for this many steps
Neighbor list info ...
  update every 1 steps, delay 10 steps, check yes
  max neighbors/atom: 2000, page size: 100000
  master list distance cutoff = 3.8
  ghost atom cutoff = 3.8
  binsize = 1.9, bins = 9 9 9
  4 neighbor lists, perpetual/occasional/extra = 1 3 0
  (1) pair lj/cut, perpetual
      attributes: half, newton on
      pair build: half/bin/atomonly/newton
      stencil: half/bin/3d
      bin: standard
  (2) compute orientorder/atom, occasional
      attributes: full, newton on
      pair build: full/bin/atomonly
      stencil: full/bin/3d
      bin: standard
  (3) compute coord/atom, occasional
      attributes: full, newton on
      pair build: full/bin/atomonly
      stencil: full/bin/3d
      bin: standard
  (4) compute cluster/atom, occasional
      attributes: full, newton on
      pair build: full/bin/atomonly
      stencil: full/bin/3d
      bin: standard
Per MPI rank memory allocation (min/avg/max) = 9.325 | 9.331 | 9.337 Mbytes
Step Temp PotEng Volume v_max_n 
    4000    1.9753125   -4.8661837    4889.3023            1 
    5000    2.0264439    -4.779004    4926.2987            1 
    6000    2.0546656   -4.7964917    4895.2626            1 
    7000    2.0380707   -4.8137998     4940.509            1 
    8000    1.9940288    -4.836862    4894.3823            1 
    9000    2.0092313   -4.8221137    4908.0584            2 
   10000    1.9716866   -4.7695298    4918.7889            1 
   11000    1.9817955   -4.8240126      4943.36            1 
   12000    1.9861961   -4.7767648    4935.6866       -1e+20 
   13000    2.0050148   -4.8320538    4898.3607            1 
   14000    2.0105499   -4.7855389    4910.9717            1 
   15000    2.0084265   -4.8059132    4880.1305            2 
   16000    1.9795949   -4.7499043    4941.5769            1 
   17000    2.0174877   -4.8360713     4937.925            1 
   18000    2.0408653   -4.7999531    4917.3245       -1e+20 
   19000    1.9680718    -4.808715    4919.3498            1 
   20000    2.0153956   -4.8142298    4921.2642            1 
   21000    1.9714675   -4.8030249     4904.505            1 
   22000    2.0547101   -4.8217185    4880.4989            1 
   23000    2.0117755   -4.7920849    4933.7499            2 
   24000    2.0353976   -4.7627767    4943.2382       -1e+20 
   25000    2.0026761   -4.7626137    4926.1478            2 
   26000    2.0269657     -4.81609    4891.6129            1 
   27000    1.9853122   -4.8261753    4907.2114            1 
   28000    2.0102557    -4.792902    4890.3127            1 
   29000    2.0104565   -4.8235304    4921.2674            1 
   30000    1.9450973   -4.7185774    4924.7906            1 
   31000    1.9742781   -4.7858603    4906.7141            1 
   32000    1.9994517   -4.8177245    4890.0168       -1e+20 
   33000    2.0164125   -4.7454408    4932.9027            1 
   34000     1.956646   -4.8093176    4955.4322            1 
   35000    2.0860352   -4.8050143    4896.4655            1 
   36000     2.021898   -4.7995994    4892.5108            1 
   37000    1.9993446   -4.7963769    4891.4724            2 
   38000    1.9867736   -4.7890922    4940.3423            3 
   39000    1.9940444   -4.7719872    4951.3011            1 
   40000    1.9897566   -4.8126378    4904.2945            1 
   41000    2.0611227   -4.8546348    4931.0466            1 
   42000    2.0157901    -4.805853    4929.0618            1 
   43000    1.9709358    -4.805173    4903.3069       -1e+20 
   44000    1.9512356   -4.8058107    4919.3054            1 
   45000    1.9573146   -4.8225755    4877.0571            1 
   46000    1.9776886   -4.8509844    4925.5506            1 
   47000    1.9877814   -4.7621526    4898.6734       -1e+20 
   48000    2.0238065   -4.8254339    4952.2335            1 
   49000    1.9746857   -4.7973298    4925.0753       -1e+20 
   50000    1.9939254   -4.7841031    4920.6546            1 
   51000    2.0056537    -4.815794    4930.6161            2 
   52000    1.9638701   -4.7985775    4936.3097            1 
   53000    1.9912528   -4.7650968    4900.1886            1 
   54000    1.9716022   -4.7439097     4911.235            1 
   55000    2.0260475    -4.829826    4899.3028            1 
   56000    2.0228983    -4.791803    4916.6739            1 
   57000    2.0006269   -4.7768987    4923.9766            1 
   58000    2.0263785   -4.8358579    4932.8114            1 
   59000    1.9871326   -4.8058645    4923.9441       -1e+20 
   60000    1.9963334   -4.8453206    4887.2349            1 
   61000    2.0369055    -4.781201    4914.6883            1 
   62000    2.0094586   -4.7931395     4955.651            1 
   63000    1.9847172   -4.7772979    4929.2786            2 
   64000    2.0281151   -4.8340266    4920.5323            1 
   65000    2.0482747   -4.8095328    4915.1375            1 
   66000    2.0078224   -4.8349308    4900.4345            1 
   67000    1.9759253   -4.8167661    4935.6012            1 
   68000    2.0073099   -4.7760376    4930.0985            1 
   69000    1.9643434    -4.809845     4902.392            1 
   70000    1.9850649   -4.7789151    4937.8631            1 
   71000    1.9671469   -4.8633519    4918.2287            1 
   72000    1.9730371   -4.8138291    4930.0059            1 
   73000    1.9877092   -4.7861667    4936.0372       -1e+20 
   74000    1.9883213   -4.7635097    4910.0067            1 
   75000     1.980659   -4.8075804    4930.3665            1 
   76000    2.0169459   -4.8350188     4926.342            2 
   77000     1.997551   -4.8272933    4917.8418            1 
   78000    2.0146603   -4.8264343    4945.9776            2 
   79000    2.0401114   -4.7870079    4944.4915            1 
   80000    2.0017375   -4.8080495    4923.8132            1 
   81000     1.973818   -4.8049342    4904.9994            1 
   82000    1.9717974    -4.782372    4921.0309            1 
   83000    1.9763068   -4.7691821    4946.7692       -1e+20 
   84000    1.9813477    -4.819249    4930.3274            1 
   85000    2.0106395   -4.8471315     4926.781            2 
   86000    2.0040514   -4.7728051     4922.448            1 
   87000    2.0215252   -4.8192591    4929.4911            2 
   88000    1.9632721   -4.7890908    4925.0681       -1e+20 
   89000    2.0290348   -4.7805351    4938.1406            1 
   90000    1.9476365   -4.8293707    4905.6421            1 
   91000    2.0306654   -4.7971903    4902.6357            1 
   92000    1.9949068   -4.7711654     4919.425            2 
   93000    1.9907861   -4.7764799    4934.9795            1 
   94000    1.9411282   -4.8408538    4914.4333            1 
   95000    1.9719662   -4.7374045    4953.0309       -1e+20 
   96000    2.0115168   -4.8402069    4892.2387            2 
   97000    2.0156316   -4.8431067    4899.5863            1 
   98000    1.9658896   -4.8247781    4913.7237       -1e+20 
   99000    2.0095413   -4.8030859     4914.873            1 
  100000    2.0294092   -4.7935752    4926.8862            1 
  101000     2.011863   -4.8375668    4883.6219       -1e+20 
  102000     2.020342   -4.8515638    4879.9376            1 
  103000    1.9864045   -4.7354231    4903.3835            1 
  104000    2.0193021   -4.8046129    4937.4487       -1e+20 
  105000    2.0271183   -4.7855013    4930.2809            1 
  106000    2.0340091   -4.8197744    4912.3331            1 
  107000    2.0066259   -4.8354167     4882.956            1 
  108000    1.9869285   -4.7819887    4907.6928            1 
  109000    1.9845368   -4.8085273    4913.3768            1 
  110000    1.9693992   -4.7605105    4935.6931            1 
  111000    1.9697662   -4.7920587    4912.7746            1 
  112000    1.9823116   -4.7767817     4940.205            2 
  113000    1.9954516   -4.7894827    4952.1061            1 
  114000    2.0144045   -4.7766704    4914.5045            1 
  115000    1.9717087   -4.8154942    4931.0249            1 
  116000    2.0074736   -4.8390059    4901.5135            3 
  117000    1.9891101   -4.8520883    4897.3381            1 
  118000    1.9970508   -4.8235853     4895.501            1 
  119000    1.9933169   -4.8117338     4931.015            1 
  120000    1.9934939   -4.7692764    4928.6286            1 
  121000    2.0098946   -4.7697459    4925.8651       -1e+20 
  122000    2.0433987   -4.8049136    4914.2462       -1e+20 
  123000     2.030703    -4.787668      4936.25            1 
  124000    2.0167213    -4.780766    4911.9209            1 
  125000    2.0377797   -4.8159739    4933.5236            1 
  126000    2.0529296   -4.8360117    4943.2748       -1e+20 
  127000    1.9808951   -4.7754625    4940.3338            1 
  128000     2.023682   -4.7846281    4955.3389            1 
  129000    1.9829615   -4.8024922    4906.1567            2 
  130000    2.0246404   -4.7878127     4929.618            1 
  131000    2.0325835   -4.8093532    4880.6684            1 
  132000    1.9449402   -4.7446986    4910.3641       -1e+20 
  133000    1.9743029   -4.7935615    4923.8433            1 
  134000    2.0298375   -4.8267362    4907.4043            1 
  135000    2.0163793   -4.7640738     4947.006            2 
  136000      1.99157   -4.8033623    4939.4782            1 
  137000    2.0646814    -4.764866    4903.8681            1 
  138000    2.0126888   -4.8053493    4912.6664            1 
  139000    2.0067396   -4.8249022    4897.0107       -1e+20 
  140000     2.019453   -4.8388589    4898.6289            1 
  141000     1.993016    -4.804493    4915.1379            1 
  142000    2.0098467   -4.8025719    4918.3418            1 
  143000    1.9715685   -4.7676997    4920.3422       -1e+20 
  144000    1.9827303   -4.7962603     4911.537       -1e+20 
  145000    1.9898859   -4.7600011    4923.0408            1 
  146000     1.997499   -4.8128919    4925.6523            2 
  147000     2.001626   -4.7892107    4932.3788            1 
  148000    1.9497711   -4.8039818    4925.2578            1 
  149000    2.0181581   -4.7718883    4933.5391            1 
  150000    2.0038611   -4.8221195    4928.0277            1 
  151000    1.9866911    -4.832364     4902.929            1 
  152000    2.0299554   -4.8158152    4911.0441            1 
  153000    1.9608309   -4.7461324    4955.9139            1 
  154000    2.0240158   -4.7850988    4910.1888            1 
  155000    2.0056818   -4.8284869    4907.1868            2 
  156000    2.0236445   -4.8082927    4914.2614            1 
  157000    1.9655443   -4.7689174    4916.8952       -1e+20 
  158000    1.9610103   -4.8303033    4925.5787            1 
  159000    2.0002199   -4.7832458    4912.9808            1 
  160000    1.9694671   -4.8001605    4921.0808            1 
  161000    2.0191267   -4.7822661    4926.0304       -1e+20 
  162000     1.986855   -4.7965535    4919.0124       -1e+20 
  163000     2.004833   -4.8289828    4896.3999            1 
  164000     2.028867   -4.7686098    4931.2513            1 
  165000    1.9721629    -4.791437    4893.9388       -1e+20 
  166000    2.0000571   -4.7619204     4902.404            1 
  167000    1.9864984   -4.7665191    4917.2529            1 
  168000    1.9946902   -4.8449805    4907.7369            2 
  169000    1.9810219   -4.8115796    4896.0398       -1e+20 
  170000    1.9637038   -4.7966867    4903.6588            1 
  171000    2.0027262   -4.8383232    4918.8081            1 
  172000    1.9921068   -4.7426882     4948.198            1 
  173000    1.9537093   -4.7704773    4973.0417       -1e+20 
  174000     1.950147   -4.7718845    4935.5653            1 
  175000    1.9818834   -4.7896268    4940.0599            1 
  176000     2.023741   -4.7720647    4938.7542            1 
  177000    2.0146842    -4.858276    4884.1953            1 
  178000    1.9680044   -4.7891674    4927.8145       -1e+20 
  179000      2.00401   -4.7857746    4922.3812            1 
  180000    1.9871921     -4.79408    4893.8403            1 
  181000    2.0088508   -4.8011291    4914.4931            1 
  182000    1.9688151   -4.8004053    4935.5775            1 
  183000    2.0469752   -4.7465137    4910.6428            1 
  184000    2.0259644   -4.8229292    4936.2822            2 
  185000    2.0341744   -4.7842643     4932.196            1 
  186000    1.9877618   -4.8165024    4904.6684            1 
  187000    2.0262469   -4.7762026    4905.4347       -1e+20 
  188000    2.0167078    -4.798987    4932.9233       -1e+20 
  189000    1.9888375   -4.7939657    4918.0226            1 
  190000    1.9975939    -4.812986    4940.0703            1 
  191000    1.9794236   -4.7860272    4951.9147            1 
  192000      1.98549   -4.8221615    4898.4895            1 
  193000    1.9957787   -4.8399534    4930.4728            1 
  194000    2.0049132   -4.7908708    4915.0024       -1e+20 
  195000    1.9853296   -4.7868917    4981.6014       -1e+20 
  196000    2.0273886   -4.8004087    4926.9601            1 
  197000    1.9819083   -4.8025567    4931.4661            1 
  198000    1.9926195   -4.7869693    4925.8663            1 
  199000      1.98371   -4.7920479    4922.4649       -1e+20 
  200000    1.9746992   -4.8097776    4906.7564            1 
  201000    1.9815736   -4.7479111    4948.4216            1 
  202000    1.9818599   -4.8425895    4929.3291            1 
  203000    2.0103389   -4.7663895    4948.0316            1 
  204000    1.9681591   -4.7414376    4952.0631            1 
  205000    1.9806583   -4.8323477    4914.8218            2 
  206000    2.0262245   -4.7925714    4929.2128            1 
  207000    2.0215522   -4.8115827    4911.6736            1 
  208000    2.0003251   -4.7803998     4911.647            1 
  209000    1.9868941   -4.8034817    4915.9282            1 
  210000    1.9821383   -4.7762094    4910.3941            1 
  211000    2.0011057   -4.8315305    4915.0752            2 
  212000     1.995803   -4.8378299    4909.3813            1 
  213000    1.9961103   -4.7705012    4907.1207            1 
  214000    1.9778975   -4.8067804    4915.7131            1 
  215000    1.9544134   -4.8104661    4896.6736            1 
  216000    2.0530092   -4.8383081    4886.5133            1 
  217000    2.0069225   -4.8424908    4934.6484            2 
  218000    2.0186613   -4.8145689    4891.4011            1 
  219000    1.9983178   -4.8511762    4904.3375            1 
  220000     1.959413   -4.8038821    4910.9026            1 
  221000    2.0190622   -4.8036625    4944.3286            1 
  222000    1.9993868   -4.8264571    4910.3755            2 
  223000    2.0519862   -4.8200753    4941.2669            1 
  224000    2.0284113    -4.853421    4863.3284            1 
  225000    2.0076283   -4.7581623    4899.7083            1 
  226000    2.0152089   -4.8128777    4909.1452       -1e+20 
  227000    1.9999572   -4.8122795    4911.1436            1 
  228000    1.9992146   -4.7825485    4915.5801            1 
  229000    2.0077917    -4.845439     4930.847            1 
  230000    1.9550718   -4.7921324    4914.2619            1 
  231000    1.9932892   -4.8116078     4878.524            1 
  232000    2.0125578   -4.7905497    4904.0847            1 
  233000    2.0234677   -4.7932046    4903.3156            1 
  234000    1.9970102   -4.8357024    4908.1155            1 
  235000    2.0026117   -4.8096741    4896.4593            2 
  236000    1.9619416    -4.816004    4923.6399            1 
  237000    2.0307707   -4.7812737    4936.9974            1 
  238000     2.008921   -4.8467975    4889.0744            1 
  239000    2.0359544   -4.7952453    4892.6764            1 
  240000    2.0636689   -4.7883544     4973.764            1 
  241000    1.9923136   -4.8304744    4928.1269       -1e+20 
  242000    2.0300507   -4.8145433    4931.8469            1 
  243000    2.0377937   -4.8272246    4933.0184       -1e+20 
  244000    2.0089833   -4.7399463    4944.8135            1 
  245000    1.9851911   -4.7916151     4930.101            1 
  246000    2.0092653   -4.8576515     4894.845            1 
  247000    1.9806048    -4.772379    4907.0045       -1e+20 
  248000    1.9946801   -4.8078994    4931.8649       -1e+20 
  249000    1.9944905   -4.7956769    4896.8523       -1e+20 
  250000    2.0086627   -4.7889777    4934.0057            1 
  251000     1.997799    -4.789157    4932.1151            1 
  252000    2.0134474   -4.8037519    4917.5395            1 
  253000    1.9930686   -4.8049286    4908.0392            1 
  254000    1.9867218   -4.7990437    4930.2198            1 
  255000    1.9911438   -4.8254135    4906.2801            2 
  256000    1.9734769   -4.7859709    4902.5401            1 
  257000    2.0018889   -4.7642477    4926.1687            1 
  258000    2.0400923     -4.79407    4928.9218       -1e+20 
  259000    2.0057041   -4.7764115    4924.2692            1 
  260000    2.0224252   -4.8115682    4942.2448            1 
  261000    2.0230926   -4.8040654    4916.7502            2 
  262000    2.0174736   -4.8546023    4915.1652            1 
  263000    2.0091596   -4.7869499    4936.7371            1 
  264000    1.9983461   -4.8086935     4903.264            1 
  265000    2.0229445   -4.8660533    4914.6765       -1e+20 
  266000    1.9869896    -4.799797    4919.2999            2 
  267000    2.0156498   -4.8012207    4914.3278            1 
  268000    1.9922145   -4.7877814    4936.6841            1 
  269000     2.033143   -4.8056531    4874.4101            1 
  270000    2.0157249   -4.8326748    4921.0586            1 
  271000    1.9992378   -4.7778314    4893.2718            3 
  272000    2.0140295   -4.7789763    4936.4327            1 
  273000    1.9924513   -4.8096542    4954.8739            2 
  274000    2.0174662   -4.8225387    4916.0853            1 
  275000    1.9823416   -4.8306615    4932.0083            1 
  276000    2.0008294   -4.7807055    4916.4167            2 
  277000    2.0576742   -4.7809277    4899.5604            1 
  278000    2.0284559   -4.8082171    4891.6003       -1e+20 
  279000    1.9927934   -4.8159728    4935.1318       -1e+20 
  280000    1.9739509   -4.7781495    4917.6599            2 
  281000    1.9714373   -4.7617956    4931.4363       -1e+20 
  282000    2.0079486   -4.7921466    4917.6684            1 
  283000    2.0430659   -4.8321876     4912.057            1 
  284000    2.0702165   -4.7981391    4921.4025            1 
  285000    1.9688771   -4.7983861    4882.0504       -1e+20 
  286000    2.0271958   -4.7979889    4927.8016       -1e+20 
  287000    2.0052206   -4.8692885    4907.2805            2 
  288000    1.9697629   -4.8019336    4916.3516            1 
  289000    2.0226235   -4.7684434    4886.9464            1 
  290000    2.0148454   -4.7774331    4923.1684            1 
  291000    1.9959745   -4.8477035    4908.9357            1 
  292000    2.0152583   -4.8068393     4901.724            1 
  293000    2.0036223   -4.7458912     4927.921            1 
  294000    2.0375857    -4.806064    4942.1923            1 
  295000    2.0112465   -4.8053619    4929.0387            1 
  296000    2.0714712   -4.8218957    4919.5206            1 
  297000    1.9755299   -4.8175674    4915.9302       -1e+20 
  298000    1.9959275   -4.8279055    4925.6602            1 
  299000    2.0218432     -4.81382    4894.1866            1 
  300000    1.9954041   -4.8436448     4935.844       -1e+20 
  301000    1.9171373   -4.8338595    4955.2199            2 
  302000    2.0045749    -4.777308    4924.8407            1 
  303000    1.9591377   -4.7957013    4901.8481            1 
  304000    1.9978102   -4.8160634    4913.3555            1 
  305000    2.0058766   -4.7727942    4952.6384            1 
  306000    2.0013692   -4.7986226    4926.5532            1 
  307000    1.9951503   -4.8138253    4941.4869            1 
  308000    2.0234056     -4.80593    4915.1023            1 
  309000    1.9846466   -4.8191224    4935.7109            1 
  310000    1.9669057   -4.8230084    4919.6689       -1e+20 
  311000     1.969708   -4.7513567     4968.965            1 
  312000    2.0339875   -4.8070945    4898.9671            2 
  313000    2.0400651   -4.7873705    4942.3753            1 
  314000      1.96679   -4.8166083     4919.896       -1e+20 
  315000    2.0808861   -4.8199718    4914.8909            1 
  316000    1.9533305   -4.7863295    4921.9323            1 
  317000    2.0221287   -4.7941276    4925.3986            1 
  318000    2.0066655   -4.7492132    4948.7687            1 
  319000    1.9772399   -4.8003551    4919.7516            2 
  320000    2.0157286     -4.78311    4938.6155            1 
  321000    1.9444247   -4.8232783    4895.7474            1 
  322000    2.0034901   -4.7781606    4923.7305            1 
  323000    1.9733603   -4.7965742    4910.4932            1 
  324000     1.964615   -4.8132123    4968.5821       -1e+20 
  325000    1.9753603   -4.7827474    4937.7252       -1e+20 
  326000    2.0291391   -4.8155856    4926.1234            2 
  327000    1.9838097    -4.824793     4913.731            1 
  328000    1.9904112   -4.7884264     4924.027       -1e+20 
  329000    1.9893992   -4.7473827    4938.6118            1 
  330000    1.9937572   -4.7571021    4903.6247            1 
  331000    2.0155456   -4.8532179    4889.5377            1 
  332000    1.9958731   -4.8108816    4890.1462            1 
  333000     1.988768   -4.8102872    4929.2983            1 
  334000     1.978781   -4.8106677    4903.4595            1 
  335000    2.0334479   -4.7749998    4934.4637            1 
  336000     2.030851   -4.8331828    4906.4094            2 
  337000    1.9848348   -4.7841642    4918.6335       -1e+20 
  338000    1.9976078    -4.784681    4902.0765            1 
  339000    2.0346757   -4.7871067    4919.5359            1 
  340000    1.9481148    -4.748422    4947.9787            1 
  341000    1.9749064   -4.7655102     4898.089            1 
  342000    1.9974163   -4.7953558     4922.985            1 
  343000    1.9752519   -4.8071504    4918.6159            1 
  344000    1.9627101   -4.7841531     4941.751            1 
  345000     2.038573   -4.8124844    4931.5733       -1e+20 
  346000     1.961501   -4.7869309    4900.4894       -1e+20 
  347000    2.0076369   -4.7694649    4913.7812            1 
  348000    1.9429567   -4.8095203    4919.6154            3 
  349000     2.005545   -4.8078489    4904.1917            2 
  350000    2.0282584   -4.8086469    4914.5357            1 
  351000    2.0326157   -4.8096062    4912.6583            1 
  352000    1.9801443   -4.7713288    4914.0163       -1e+20 
  353000    2.0033212   -4.8200795    4903.2679            1 
  354000    2.0156032   -4.7697416    4923.9475            1 
  355000    1.9944723   -4.8131669    4948.8506            1 
  356000    2.0092842   -4.8148553    4911.3622            1 
  357000    1.9689739   -4.7877264    4917.0218            1 
  358000    2.0066895    -4.832968    4895.9312            1 
  359000    1.9980688   -4.7486374    4950.8025            1 
  360000     1.980525    -4.815463    4925.8791            2 
  361000    1.9961093   -4.8003541    4926.3754            1 
  362000     1.985349   -4.8058844    4923.8207            2 
  363000    1.9855465   -4.8019225    4933.3384            1 
  364000    1.9964134    -4.840034     4910.352            1 
  365000    2.0592321   -4.7839659    4882.6645            1 
  366000    2.0089272   -4.7864781    4922.9279            1 
  367000    2.0061436   -4.7966581    4901.8335            2 
  368000    1.9547859   -4.7716145    4926.3837            1 
  369000    2.0139075   -4.8096771     4937.632            1 
  370000    2.0288663   -4.8035316    4917.9279            2 
  371000    1.9727418   -4.7751186    4937.8548            2 
  372000    2.0359306    -4.795939    4919.5006       -1e+20 
  373000      1.98159    -4.758763    4942.9553            2 
  374000    1.9798548   -4.7947888    4914.6903            1 
  375000     1.999321   -4.8333635    4929.4215       -1e+20 
  376000    2.0203207   -4.7904937    4930.9022            1 
  377000    2.0322969   -4.8238965    4906.7306            1 
  378000    2.0392845   -4.7659686    4881.7008            1 
  379000    1.9961637   -4.8484611    4893.0519            1 
  380000    2.0450678   -4.8135515    4928.8808       -1e+20 
  381000    2.0201119   -4.7754472    4926.0644            1 
  382000    1.9574921   -4.8229465    4924.8262            2 
  383000    2.0144849   -4.7859531    4965.4931            1 
  384000    2.0002227   -4.8037993    4914.0079       -1e+20 
  385000     1.992802    -4.787901    4942.7533            1 
  386000    2.0279183   -4.8270969    4904.7533            2 
  387000    2.0199001   -4.8346537    4934.0004            1 
  388000    2.0078127   -4.7805087    4936.5782            1 
  389000    2.0084317   -4.7821626    4899.1685            1 
  390000     2.012085   -4.8398843    4902.2447       -1e+20 
  391000    2.0676825    -4.772557    4922.4392            1 
  392000    1.9894403   -4.8104154    4928.4327            1 
  393000    2.0175342   -4.8138021    4902.9975            1 
  394000    2.0390033   -4.8122806    4918.0997            1 
  395000    1.9703902   -4.7708373    4953.8679            3 
  396000      2.02051   -4.7823328    4908.0353       -1e+20 
  397000    1.9722004   -4.8357646    4896.9508            1 
  398000    2.0123406   -4.8238809    4929.5948            2 
  399000    2.0074928   -4.7595773    4977.1849       -1e+20 
  400000    2.0005214   -4.8210015    4911.7608       -1e+20 
  401000    1.9726541   -4.7633845    4906.8128            2 
  402000    2.0052919      -4.7987    4933.5164            1 
  403000    2.0141679   -4.7810425    4948.0939            2 
  404000    2.0019308   -4.7778369    4929.7506       -1e+20 
  405000    2.0308177   -4.8139702    4915.4614            1 
  406000    1.9996077    -4.809035    4939.1483            1 
  407000    2.0085418   -4.8490101    4885.6888            3 
  408000    1.9900956   -4.7587802    4934.2789            1 
  409000    2.0104723   -4.8046325    4943.6059            1 
  410000    2.0245456   -4.8123561    4929.3999            1 
  411000    2.0033922    -4.815283    4902.7832       -1e+20 
  412000    2.0445762   -4.7857692     4906.439            1 
  413000    1.9741536   -4.8385989     4921.927            1 
  414000    1.9703282   -4.7685384    4921.4079            1 
  415000    2.0200489    -4.855861    4893.2061            1 
  416000    1.9827286   -4.7850241     4951.719            1 
  417000     2.023936   -4.7976074    4929.0768       -1e+20 
  418000     2.006393   -4.8045062    4907.9633       -1e+20 
  419000    2.0166816   -4.8332507    4911.5708            1 
  420000    1.9506915   -4.8297346    4898.8975            4 
  421000    2.0136693   -4.7762773    4936.1031            1 
  422000    1.9753506   -4.7751486     4930.265            1 
  423000    2.0119824   -4.7598239     4934.919       -1e+20 
  424000     2.017628   -4.8099779    4919.7483            1 
  425000    1.9837489   -4.7358496    4935.3157       -1e+20 
  426000    2.0193734   -4.7733678    4916.8313       -1e+20 
  427000    1.9873351   -4.8266314    4917.4324            1 
  428000    2.0181947   -4.7753596    4937.5756            2 
  429000    1.9994747   -4.8103465    4910.5967            1 
  430000    1.9645757   -4.7637057    4959.7485            1 
  431000    1.9928936   -4.8328269    4908.0801            2 
  432000    1.9513936   -4.8084298    4915.5328            1 
  433000    2.0633043   -4.7309202    4900.8166            1 
  434000    2.0298476   -4.7691264    4960.2051       -1e+20 
  435000    2.0188051   -4.7683749    4931.6053            1 
  436000    1.9783457   -4.7740719    4936.6067            1 
  437000    2.0021187   -4.8147948    4923.3953            1 
  438000    1.9817945    -4.815774    4933.0252            1 
  439000    1.9963214   -4.8155972    4937.2072       -1e+20 
  440000    2.0003799   -4.8220692    4898.2071            1 
  441000    2.0027196   -4.7811465    4898.8373            1 
  442000    2.0352681   -4.8145214    4943.8344            2 
  443000    2.0470839   -4.7873172    4941.3458            1 
  444000    2.0418789   -4.8573891    4919.0509            1 
  445000    1.9870754   -4.7822363    4897.7972            1 
  446000    1.9606845   -4.7912914    4932.9499            2 
  447000    2.0035471   -4.7764677    4903.3249            1 
  448000     2.026615   -4.8044471    4914.2132            2 
  449000    1.9833148   -4.8307095    4917.0557       -1e+20 
  450000    1.9859793   -4.7363791    4917.9037            1 
  451000    1.9962141    -4.773722    4905.0428            1 
  452000    1.9737018   -4.8297623    4914.9853            1 
  453000    2.0088478   -4.8133325    4918.6347            1 
  454000    2.0017686   -4.7622857    4901.7217            2 
  455000    2.0554862   -4.7279793    4969.7327            1 
  456000    1.9642717   -4.8358137    4878.3086            1 
  457000    1.9602674   -4.8227343    4923.0187       -1e+20 
  458000    2.0150184   -4.7930928    4936.5857            1 
  459000    1.9933525   -4.7830529     4925.145            1 
  460000     1.999842   -4.8187835    4906.6939            1 
  461000    2.0208707   -4.7787819    4932.6336            2 
  462000     2.054767   -4.8143214    4928.5041            1 
  463000    1.9938155   -4.8125994    4916.4059            1 
  464000    1.9650949   -4.7272959    4951.4248            1 
  465000    2.0307327   -4.7917498    4937.7366            1 
  466000    1.9572484   -4.7616539    4953.3672            1 
  467000    1.9981165   -4.7750292    4930.6134            2 
  468000    2.0112289   -4.7606077    4916.7065            1 
  469000    1.9953504   -4.8057948    4919.7597            1 
  470000    2.0100958   -4.7837814    4917.4589            3 
  471000    1.9706801   -4.8612424    4884.1432       -1e+20 
  472000    1.9771032    -4.822116     4906.632            1 
  473000    1.9554154   -4.8151681    4928.6408       -1e+20 
  474000    2.0188971   -4.7799423    4898.1309            1 
  475000    1.9703426   -4.7842847    4933.1176            3 
  476000     2.036509   -4.8265241    4928.8731            1 
  477000    1.9938693   -4.8099013    4887.4424            1 
  478000    2.0096719   -4.8104817    4919.2681            1 
  479000    1.9887456   -4.8288287      4899.14            1 
  480000    2.0180334   -4.7736296    4944.0759            1 
  481000    1.9829058   -4.7943463    4928.4468            1 
  482000    2.0367251   -4.7786927    4933.8995            1 
  483000    2.0311498   -4.7847719     4898.921            2 
  484000    1.9934124   -4.7735047    4924.0443            1 
  485000    2.0321908   -4.8080898    4899.8258            2 
  486000    2.0132493   -4.8373435     4928.579            2 
  487000     2.017636   -4.8367269    4918.5592            1 
  488000    1.9949061    -4.746068    4908.3026            1 
  489000    2.0118385    -4.778032    4885.2406            1 
  490000    1.9771084   -4.7642353     4926.201            1 
  491000    2.0067202    -4.805606    4923.8095            1 
  492000    1.9691324   -4.7603488    4915.1703            1 
  493000    2.0290834   -4.7984755    4907.1729            1 
  494000    2.0089937   -4.7340234    4934.8618       -1e+20 
  495000     2.017272   -4.8039139    4920.3489            1 
  496000    1.9848937   -4.7862599    4923.5808            1 
  497000    2.0436345   -4.7529997    4966.9514            1 
  498000    2.0146434   -4.8026841    4938.9283            1 
  499000    2.0046115   -4.7701385    4941.9748            1 
  500000    2.0214664   -4.8069185    4921.7755            1 
  501000    1.9721045   -4.7745381    4950.7444            1 
  502000    2.0017131   -4.8012379    4923.9671            1 
  503000    2.0092133   -4.7944871    4945.5855            1 
  504000    1.9780243   -4.7763761    4895.9735            3 
  505000    2.0129361   -4.8017885    4931.3884            1 
  506000    2.0184718   -4.8347865    4903.4998            1 
  507000    1.9865158   -4.7732472      4920.18            1 
  508000    2.0367391   -4.8458472    4915.8929            2 
  509000    2.0103006   -4.8088286    4932.2517            1 
  510000    1.9991163    -4.829105    4911.9972            1 
  511000    1.9552409   -4.7849916    4939.2624            1 
  512000    2.0104497   -4.7752823    4928.1148       -1e+20 
  513000    1.9713526   -4.7496465    4903.7569            2 
  514000     1.968699   -4.8623693     4923.531            1 
  515000    2.0141222   -4.7760622    4968.0114            2 
  516000    2.0037301   -4.8143571     4909.279            1 
  517000    2.0001029   -4.7939475    4912.1406       -1e+20 
  518000    2.0165332   -4.8165136    4928.7253            1 
  519000    2.0356203   -4.8054752    4959.2264       -1e+20 
  520000    2.0271745   -4.8303868    4906.7458            1 
  521000    1.9523467    -4.798675    4946.0312            2 
  522000    1.9597904   -4.8219252    4892.2875            2 
  523000    2.0297182   -4.7546211    4972.4454            1 
  524000    1.9821108   -4.8171917    4898.4814            2 
  525000    2.0219755   -4.8145653    4891.7826       -1e+20 
  526000     2.000456   -4.8147673    4925.4939            1 
  527000    2.0173224    -4.766524    4956.4353            1 
  528000    1.9872632   -4.7776473    4957.0416            1 
  529000    2.0126867   -4.8175569    4880.0597            3 
  530000    2.0047627   -4.8276964    4921.5105            3 
  531000    1.9849292    -4.805508    4901.4076            1 
  532000    2.0104881   -4.7911709    4921.2856            1 
  533000     2.030281   -4.8229759      4893.72       -1e+20 
  534000    2.0164201   -4.7406202    4929.3736            1 
  535000    1.9959687   -4.8015577    4898.5509            1 
  536000    1.9353864   -4.8328022    4898.7931            1 
  537000    1.9823659   -4.8151248    4904.9972            1 
  538000    2.0068686   -4.8263471    4911.5756            1 
  539000    1.9979947   -4.7725987    4949.4475            1 
  540000    2.0089269   -4.8017176    4908.1699            1 
  541000    2.0102221   -4.8048242    4918.4002            1 
  542000    1.9818891   -4.8472218      4922.66            1 
  543000     2.026108   -4.7531502    4936.8668            1 
  544000    1.9733087   -4.7637715    4938.6305            1 
  545000    1.9996739   -4.7819656    4955.1838            1 
  546000    2.0166448   -4.7716025    4909.7317            1 
  547000    1.9601182   -4.8184891    4919.5739            1 
  548000    1.9637535    -4.805205    4923.2718            1 
  549000    1.9908569   -4.8013654    4888.0888            3 
  550000    2.0026619   -4.7753486    4933.9285            1 
  551000    2.0183517   -4.7721927     4924.535            1 
  552000    1.9949363   -4.7712082    4966.4786            2 
  553000    1.9468529   -4.7990736     4905.449            1 
  554000    2.0195859   -4.8827496    4865.1744            1 
  555000    1.9715823   -4.8582439    4926.7623            1 
  556000    1.9702539   -4.7302517     4908.149            1 
  557000    1.9610889   -4.7967026    4924.6772            1 
  558000    1.9743625   -4.7245602    4937.8107            1 
  559000    2.0096619   -4.7856287    4878.8297            1 
  560000    2.0386034   -4.7693208    4929.7457            1 
  561000    2.0093572   -4.7803363    4930.7425            1 
  562000    1.9793918   -4.7517693    4955.6485            1 
  563000    1.9947625   -4.7687867    4916.3518            1 
  564000     1.993231   -4.7974051    4926.6869            1 
  565000    1.9987546   -4.7649018    4940.1215            1 
  566000    2.0105523   -4.7460166    4946.3506       -1e+20 
  567000    1.9722037   -4.7671686    4921.7892            1 
  568000    1.9974039   -4.7929347    4900.3007            1 
  569000    1.9912912   -4.7767348    4949.3882            1 
  570000    1.9582597    -4.782736    4903.1348            1 
  571000    2.0385987   -4.8272721    4924.6639            1 
  572000    1.9792814    -4.820794    4944.5246            2 
  573000    2.0044433    -4.799187    4887.0107            1 
  574000    1.9901954   -4.7938583    4927.3475            1 
  575000    2.0144168   -4.7628626    4947.1882            1 
  576000    1.9781175   -4.8285524    4945.2733       -1e+20 
  577000    2.0228642   -4.8105762    4906.3566            1 
  578000    2.0255901   -4.8533718    4909.9549            3 
  579000    2.0390613    -4.809887    4930.0478            1 
  580000    1.9915399   -4.7772212     4886.395            1 
  581000    2.0301308   -4.8115657    4906.0454            1 
  582000    1.9823637   -4.8037721    4910.6121            1 
  583000    2.0209219   -4.7795661    4924.6417            1 
  584000    2.0308318   -4.8352844    4889.8928            1 
  585000    1.9977403   -4.7453786    4958.2902            1 
  586000    2.0306722   -4.8301352    4902.5717            2 
  587000    1.9854122   -4.7891545    4941.4037       -1e+20 
  588000    2.0345001   -4.7549777    4928.0005            1 
  589000    1.9809821   -4.7949905    4933.3127            1 
  590000    1.9979163   -4.7597284    4932.9505       -1e+20 
  591000    1.9817616   -4.8068516    4917.4896            1 
  592000    2.0140966   -4.7994295    4899.8615            1 
  593000    2.0504988   -4.7784099    4944.7835            1 
  594000    2.0275618   -4.7911482    4935.3799            1 
  595000    1.9669392   -4.6970128    4945.1121            1 
  596000    1.9881464   -4.8334034    4902.0587            1 
  597000     2.040459   -4.7782975    4913.4734            1 
  598000    2.0604625   -4.7616432    4898.4316            1 
  599000    2.0130244    -4.742528    4942.9467            1 
  600000    1.9878338   -4.7779501    4947.4433            1 
  601000     2.014544   -4.8306694    4956.5682       -1e+20 
  602000    2.0027578   -4.7555533    4932.9672            1 
  603000    1.9618825   -4.8015197    4895.5394            1 
  604000    2.0079558   -4.7183208    4975.3295            2 
  605000     1.988531   -4.7571969    4943.9428            1 
  606000    2.0235539   -4.7479987    4935.1425            1 
  607000    1.9698918   -4.7384859     4922.622            2 
  608000    1.9864254   -4.7794668    4917.7172            1 
  609000    2.0338852   -4.7911287    4949.9058            1 
  610000    1.9828217    -4.819838    4923.6726       -1e+20 
  611000    1.9476776   -4.7774414     4935.652            1 
  612000    1.9797291   -4.8089947    4901.2676            1 
  613000      2.03677   -4.7790597    4926.9279            1 
  614000    2.0327494   -4.7955125    4915.6489       -1e+20 
  615000     1.976286   -4.7806464    4916.4829            1 
  616000    2.0021398   -4.7851745    4940.6072            1 
  617000    1.9895627   -4.7925961    4908.8991            1 
  618000    2.0116923   -4.8026284    4936.9756            1 
  619000    2.0236323   -4.7941454    4930.4339            1 
  620000    1.9537627   -4.8274015    4876.3552            1 
  621000    2.0164026   -4.7871791    4944.0379            2 
  622000    2.0029616   -4.8348196    4941.4844       -1e+20 
  623000    2.0218269   -4.8175831    4932.4812            1 
  624000    2.0059976   -4.7596692    4915.9012            1 
  625000     2.019353   -4.8101354    4933.1484            1 
  626000    1.9767049   -4.8199736    4889.1906            1 
  627000    1.9878503   -4.7872903    4968.2913            1 
  628000    2.0288362   -4.8565413    4919.6434            1 
  629000    1.9658176   -4.7931138    4963.5552            2 
  630000    2.0002428   -4.8334731    4909.7668            1 
  631000    1.9928281   -4.7928318    4915.4267            1 
  632000    1.9693562    -4.833701    4901.7305            1 
  633000    2.0119746   -4.8170341    4922.9253            1 
  634000    1.9943525   -4.7993853    4899.9529            1 
  635000    1.9900996   -4.7766602    4945.9515            1 
  636000    1.9822422   -4.7932724    4935.4531            1 
  637000    1.9679211   -4.7668842    4953.4713            1 
  638000     2.048429   -4.8130015    4881.3233            1 
  639000    1.9688672   -4.8000188    4934.2819            2 
  640000    2.0446639   -4.7788088    4911.0942            1 
  641000    2.0343284    -4.824715    4933.8866            2 
  642000    2.0144949   -4.7626433    4932.9607            1 
  643000    2.0481783   -4.7688897     4921.543            2 
  644000    2.0047653   -4.8128404    4909.4306            1 
  645000    1.9760436   -4.7771973    4923.8984            1 
  646000    2.0075771   -4.8247012    4912.8474            2 
  647000    2.0035435   -4.7932307    4912.3669            1 
  648000    2.0155723   -4.8057189    4913.6345            1 
  649000    1.9409958   -4.8091763    4905.1682            2 
  650000    1.9952465   -4.7697612    4927.6301            1 
  651000    1.9884317   -4.7869027    4940.8965            1 
  652000    1.9909194   -4.7996966    4931.1817       -1e+20 
  653000    2.0175675   -4.8448604     4916.607       -1e+20 
  654000    2.0303888   -4.7526278     4929.082            1 
  655000    1.9762686   -4.8010494    4928.2485       -1e+20 
  656000    2.0078573   -4.7961466    4901.5758            1 
  657000    1.9908484   -4.8268939    4907.2506            1 
  658000    2.0201551   -4.7592367    4924.8705            1 
  659000    1.9790832   -4.8495845    4893.1416            1 
  660000    2.0188645   -4.7627773    4923.9939       -1e+20 
  661000    2.0161776   -4.8304457    4907.5595            1 
  662000    1.9801518   -4.7799415    4917.9891            1 
  663000    1.9940133   -4.7907567    4938.3656            1 
  664000     2.028711   -4.8185184    4907.6429            1 
  665000    2.0244721     -4.78233    4885.2406            1 
  666000    1.9964748   -4.7902323    4922.7054            2 
  667000    1.9988852   -4.8151358    4949.0446            1 
  668000     1.996483   -4.8238188    4936.6467            1 
  669000    2.0379052   -4.8248873    4886.4871            3 
  670000    1.9878574   -4.7601525    4926.2688            1 
  671000    1.9459216   -4.7873067    4927.9803       -1e+20 
  672000    2.0112237   -4.7295522     4938.176            1 
  673000    1.9812206   -4.7971883    4909.9223            2 
  674000    1.9993693   -4.7910203    4920.4769            1 
  675000    1.9978249   -4.8167751    4933.1481       -1e+20 
  676000    2.0642131   -4.8558055    4923.4903            1 
  677000    2.0155635   -4.8172854    4908.5899            1 
  678000    2.0121818   -4.8010295    4955.4058            1 
  679000    1.9914618   -4.7773857    4929.0247       -1e+20 
  680000    1.9963636   -4.8143827    4917.7956            1 
  681000    2.0384439   -4.7642865    4943.5399            1 
  682000    2.0021719   -4.7878905    4927.6023            1 
  683000    1.9948685     -4.81759    4879.5689            1 
  684000    2.0343054     -4.82246    4923.0402            2 
  685000    1.9504132   -4.7584661    4944.7519            1 
  686000    1.9954529   -4.8003539    4926.4221       -1e+20 
  687000    2.0261918   -4.7993865    4936.8396            1 
  688000     1.983064   -4.7493431    4950.6082       -1e+20 
  689000    2.0120396   -4.8136982     4938.332            1 
  690000    1.9684307   -4.8153474    4948.4108            1 
  691000    2.0246933   -4.8160252     4953.944            1 
  692000    2.0219175   -4.7962158    4928.3095       -1e+20 
  693000    2.0341233   -4.8021265    4927.1891            1 
  694000    2.0069073   -4.7922026    4931.8173       -1e+20 
  695000    2.0128128   -4.8387212    4888.2416            1 
  696000    2.0138642   -4.8227099    4925.8076            1 
  697000    2.0278143   -4.8023861    4941.0404            1 
  698000    1.9916936   -4.8203922     4912.917            1 
  699000    2.0194481   -4.8034553    4932.8192            1 
  700000     2.010122   -4.7543969    4930.4886            2 
  701000    1.9860881   -4.8627962    4880.4363            1 
  702000    2.0060375   -4.8043544    4939.9589       -1e+20 
  703000    1.9871486   -4.8040787    4917.2392            1 
  704000    2.0068763   -4.7291993    4896.8974            1 
  705000    1.9753411   -4.7772232    4940.0504            1 
  706000    1.9402796   -4.8149725    4891.2732            1 
  707000    1.9802768   -4.8444975    4949.5556       -1e+20 
  708000    1.9954607   -4.8482307     4893.649            1 
  709000     1.995263    -4.820154    4904.8089            1 
  710000    2.0380973   -4.7980369    4898.5699            1 
  711000    2.0233342   -4.7869757    4915.9493       -1e+20 
  712000    2.0682581   -4.8101428    4925.0187            1 
  713000    1.9766482   -4.8505563    4902.1381            1 
  714000    2.0293773   -4.7277873    4937.6345            1 
  715000     1.996458   -4.8257655    4926.1704            2 
  716000    2.0092712   -4.7915972    4929.0254            1 
  717000    1.9891651   -4.8152262     4918.695            1 
  718000    1.9599094   -4.8005957    4921.6622            1 
  719000    1.9753643   -4.8068497    4894.0048            1 
  720000     1.987117     -4.73279    4910.3689            1 
  721000    1.9515104   -4.7967186    4936.7808            1 
  722000    1.9874364   -4.8231362    4919.6955            1 
  723000    1.9961314   -4.8195893    4934.9198            1 
  724000    1.9928028   -4.7742837    4904.9928            1 
  725000    2.0146165      -4.8177    4915.4309       -1e+20 
  726000    2.0122733   -4.7686539    4930.5407       -1e+20 
  727000    2.0229064   -4.7924886    4908.4049            1 
  728000    2.0168894   -4.7883762    4939.1852            1 
  729000    2.0393609   -4.8016081    4938.7646            4 
  730000    2.0150705   -4.8036282    4911.5011            1 
  731000    1.9850027    -4.762427    4963.1539       -1e+20 
  732000    2.0108118   -4.7819209    4952.2384            1 
  733000    2.0004661    -4.766915    4887.8264            1 
  734000    1.9801685   -4.7775468    4916.3765            1 
  735000    1.9625775   -4.8368372     4926.386            1 
  736000    2.0003807   -4.8455555     4932.169            2 
  737000    1.9690212    -4.795633     4898.736            1 
  738000    2.0030112   -4.8364953    4895.5541            1 
  739000    1.9595848   -4.8313605    4911.9077            1 
  740000    1.9866443   -4.7900975    4916.5328            1 
  741000    1.9813606   -4.7537561    4947.1703            1 
  742000    2.0280802   -4.7712459    4952.7298            1 
  743000    1.9902809   -4.7791121    4915.5852            1 
  744000    2.0147695   -4.7937932     4908.154            1 
  745000    1.9858649    -4.782239    4912.8949            1 
  746000    1.9767164   -4.8399597    4905.8135            1 
  747000    1.9835894   -4.8342204    4927.1396            1 
  748000    2.0133167   -4.7503497    4925.3979       -1e+20 
  749000    1.9821994   -4.8153817    4891.6502            1 
  750000    1.9679702     -4.77278    4938.5651            1 
  751000    1.9872474   -4.8024092    4903.3286            1 
  752000    1.9916118   -4.7360968    4928.6811            2 
  753000    2.0151887    -4.805293    4887.5655            2 
  754000    1.9551075   -4.8153872    4940.2026       -1e+20 
  755000    1.9736987   -4.7882883    4934.0585       -1e+20 
  756000     2.004501   -4.7504774     4941.161            1 
  757000    1.9998342   -4.7391633    4939.4642       -1e+20 
  758000    2.0141999   -4.7388807    4906.9193            1 
  759000    1.9844114   -4.8420917    4900.8518            1 
  760000    1.9951383   -4.8010038    4904.7865            1 
  761000    2.0135483   -4.8149106    4916.4267       -1e+20 
  762000    1.9899848   -4.7821949    4926.7917       -1e+20 
  763000    1.9952213   -4.7773253    4924.1786            2 
  764000    2.0258434   -4.8031497    4916.5424            1 
  765000    2.0306512   -4.7711564    4941.6091       -1e+20 
  766000    1.9936012    -4.830256    4909.6366       -1e+20 
  767000     2.007463   -4.7185128    4950.3993            1 
  768000    2.0190038   -4.8088503    4932.7424       -1e+20 
  769000    2.0126416   -4.7789741    4891.1938            1 
  770000    1.9683876   -4.8193571    4893.8155            1 
  771000    2.0395755   -4.7809372    4935.3604            1 
  772000    1.9879007   -4.7921989    4931.9495            1 
  773000    2.0140962   -4.7538204    4910.0472            1 
  774000     1.981661   -4.7956183    4913.2493       -1e+20 
  775000    2.0274554   -4.7579208     4964.973       -1e+20 
  776000    1.9635655   -4.7826537    4920.7845            1 
  777000    1.9555208   -4.7213538    4952.2266       -1e+20 
  778000    2.0290537   -4.8183939    4871.8519            1 
  779000    2.0314421   -4.8248049    4894.7209            1 
  780000    2.0099843   -4.7892646    4925.1739            1 
  781000    2.0006959    -4.839157    4896.1721            2 
  782000    2.0127434   -4.8313699    4920.4854            1 
  783000    1.9625693   -4.7967243    4898.2308            2 
  784000    1.9934435   -4.7943207     4932.914            3 
  785000     1.944029   -4.8498469    4903.4176            1 
  786000    1.9940745   -4.8102093     4919.782            1 
  787000    2.0090079   -4.7565083    4948.4902            1 
  788000    2.0163366   -4.8336395    4914.7614            1 
  789000    1.9946103   -4.8311923    4888.5393            1 
  790000    2.0455099    -4.801035    4926.1004            1 
  791000    1.9635815   -4.8210765    4918.7538            2 
  792000    1.9872349   -4.8010932    4896.1113       -1e+20 
  793000    1.9965379   -4.7919101    4936.7249            1 
  794000    1.9837529   -4.7629238    4916.8591       -1e+20 
  795000     1.961371    -4.822947    4930.4695            1 
  796000    1.9889786   -4.7944258    4895.3847            1 
  797000    1.9865931   -4.7851317    4889.9419            1 
  798000    2.0060399   -4.7695321    4936.7946            1 
  799000    1.9713292   -4.8373151    4924.7024            1 
  800000    1.9652726   -4.8162926    4906.7568            3 
  801000    2.0490928   -4.7845806    4917.6389            1 
  802000    2.0269448   -4.7627148    4945.9261            1 
  803000    2.0502979   -4.8155088    4929.4458            1 
  804000    2.0146298    -4.780753    4919.6099            2 
  805000    1.9897761   -4.8452242    4915.6566            1 
  806000    1.9879952   -4.8115681    4941.7867            1 
  807000     2.000725   -4.8218129    4929.1617            1 
  808000    2.0505362   -4.8546043    4908.2785            2 
  809000    2.0597267   -4.7728321    4924.6919            2 
  810000    1.9937097   -4.7789473    4928.3514            1 
  811000    2.0200143   -4.8229127    4937.3753            1 
  812000    2.0511644   -4.8003307    4914.4746            1 
  813000    2.0226806   -4.8349854    4919.8475            1 
  814000    1.9606979   -4.8175606    4942.4391            2 
  815000    1.9614172   -4.8089799    4917.0702       -1e+20 
  816000    1.9728357   -4.7819192    4924.9464            1 
  817000    1.9888808   -4.8055735    4903.1891            1 
  818000     2.009264   -4.8192225    4924.4981            1 
  819000     1.995071   -4.7989742     4918.756            3 
  820000    1.9472312   -4.7842463    4910.1383            1 
  821000    1.9625088   -4.8013972    4895.7012            1 
  822000    2.0476392   -4.8356333    4897.6769            1 
  823000    1.9643659   -4.8174929    4922.1999            1 
  824000    2.0367299   -4.7762074    4928.4503            1 
  825000    1.9855106   -4.7964448    4936.4178            1 
  826000    2.0108846   -4.7605683    4959.9085            1 
  827000    2.0234316   -4.8170791    4910.4643            1 
  828000    2.0337027   -4.8097582    4916.8436            1 
  829000    2.0236543   -4.8113958    4956.9593            2 
  830000    1.9628258   -4.7588487    4929.3415            1 
  831000    1.9927554   -4.8353311    4925.4033            1 
  832000    1.9803368    -4.801139    4919.3004            2 
  833000    1.9659335   -4.8049066    4892.2504            1 
  834000    1.9868995    -4.796716    4936.5705            1 
  835000    2.0052476   -4.7640521    4902.2979            1 
  836000    2.0329576   -4.8871128    4896.2791            1 
  837000    2.0043064   -4.8058871    4888.5594            1 
  838000    2.0547559   -4.8230804    4921.8325       -1e+20 
  839000    1.9950819   -4.8255347    4870.0245            3 
  840000    2.0006742   -4.7993903    4916.6827       -1e+20 
  841000    1.9926487   -4.8382546    4914.5499            1 
  842000    2.0178001   -4.7680997    4908.2921            1 
  843000    1.9771278   -4.8208273    4918.2616            1 
  844000    2.0487335   -4.7935979    4911.4905            2 
  845000    2.0057698   -4.7586583    4915.6616            1 
  846000    2.0544187   -4.8245725    4933.7625            1 
  847000    2.0031705   -4.8301051    4901.9911            1 
  848000    2.0170713   -4.8238887     4906.405            1 
  849000    1.9860994   -4.8195242    4913.9589            2 
  850000    1.9342246   -4.8014203    4897.5436       -1e+20 
  851000    1.9973845   -4.7856451    4958.2953            1 
  852000    1.9842251    -4.756451    4921.4706            1 
  853000    1.9798892   -4.8784096    4874.9891            2 
  854000    2.0232817   -4.7566357    4938.0967            1 
  855000    1.9430416   -4.8498294    4899.6655            1 
  856000    1.9905058   -4.7795907     4921.555            1 
  857000    1.9746299   -4.7796605     4930.112            1 
  858000    2.0049891   -4.8026854    4924.5688            1 
  859000    2.0360001   -4.8331466    4927.2324            1 
  860000    2.0110289   -4.7696252    4942.2894            1 
  861000    2.0217196    -4.780524    4922.2254       -1e+20 
  862000    1.9802181   -4.7682413    4958.4823            1 
  863000    1.9698818   -4.8082409    4917.5391            1 
  864000    2.0137493   -4.7839981    4935.1723            1 
  865000    2.0355115    -4.818046    4895.2289            1 
  866000    1.9980079   -4.7682584    4917.9162       -1e+20 
  867000    2.0003548   -4.7970023     4920.148       -1e+20 
  868000    1.9831714   -4.8062298     4904.494            2 
  869000    1.9754015   -4.8105091    4927.9526            1 
  870000    1.9994319   -4.8157636    4913.6727       -1e+20 
  871000    2.0405101   -4.8151709    4918.6705            1 
  872000    2.0320104   -4.8222394    4937.6102            1 
  873000    1.9741833   -4.7601355    4927.4663            1 
  874000    2.0295138   -4.8196417    4895.8351       -1e+20 
  875000    2.0134344   -4.8209313     4911.613       -1e+20 
  876000     2.013703   -4.7816002    4946.1586            1 
  877000    1.9944391   -4.8083023    4908.3688            1 
  878000    1.9871476   -4.8241816    4929.3537            1 
  879000    2.0251926   -4.7988607    4922.8662            1 
  880000    2.0307475   -4.7882544    4901.8153       -1e+20 
  881000    2.0783675   -4.8385785    4898.2698       -1e+20 
  882000    1.9833966   -4.7934083     4945.083            4 
  883000    2.0016406   -4.8074813    4923.7427            1 
  884000     2.010614    -4.769445    4966.7004            1 
  885000    1.9748155   -4.7742431    4933.8878       -1e+20 
  886000    1.9813521   -4.7992237    4921.5118            1 
  887000    1.9561528   -4.8299888    4913.1586            1 
  888000    1.9868363   -4.8373791    4907.5935            1 
  889000    2.0129177   -4.7927415    4921.4146            1 
  890000    1.9772684   -4.7822515    4951.0345            2 
  891000    1.9904011   -4.8225247    4932.6243            1 
  892000    2.0073201   -4.8180731    4916.4681            2 
  893000    2.0156478   -4.8323811    4899.7001            4 
  894000    2.0475224   -4.7852757    4938.4041            1 
  895000    2.0427185   -4.8281045    4937.8942            1 
  896000    2.0143443   -4.8277135     4906.007            2 
  897000    2.0083327   -4.8427036    4910.4806            1 
  898000    2.0161584   -4.7758078    4924.1172       -1e+20 
  899000    1.9794277   -4.8087654    4928.6883            1 
  900000    2.0005415   -4.7989448    4915.6964       -1e+20 
  901000    1.9762502   -4.7945437    4938.9327       -1e+20 
  902000    2.0251912   -4.8091007    4928.8395            2 
  903000    1.9861281   -4.7363891    4942.3715            1 
  904000    2.0092842   -4.8285166     4873.046       -1e+20 
  905000    1.9991635   -4.8194977    4930.9799       -1e+20 
  906000    2.0098717   -4.7943388    4907.0949            1 
  907000    2.0059186    -4.775351      4971.53            1 
  908000    1.9957073   -4.7138465    4946.5444            1 
  909000    2.0298107   -4.8314833      4888.61            1 
  910000    2.0024099   -4.8244115    4940.7582            1 
  911000    2.0160139   -4.7734271    4930.3737            1 
  912000    1.9907848   -4.7640655    4940.8466            1 
  913000    1.9897757   -4.7896677    4944.9338       -1e+20 
  914000    2.0112696   -4.8204661    4922.7396            1 
  915000    2.0492293   -4.8311282    4908.3194            1 
  916000    1.9782294   -4.8211529    4929.0701       -1e+20 
  917000    2.0142303   -4.7856429    4928.7689            1 
  918000    2.0053486   -4.8075155    4963.7838            1 
  919000    1.9897594   -4.7909935    4938.4337            1 
  920000    1.9735647   -4.8037863    4927.0609            2 
  921000    2.0288099    -4.815265    4911.2684            1 
  922000    1.9557532   -4.8451003    4893.8811            2 
  923000    1.9823222   -4.7749045    4948.5667            1 
  924000      1.98374   -4.8116131    4884.1255            1 
  925000    1.9969972   -4.7673613    4931.3094            1 
  926000    1.9762622   -4.8252005     4908.519            1 
  927000    2.0156941    -4.792154    4910.4453       -1e+20 
  928000    2.0098905   -4.7993241    4918.1807            1 
  929000    1.9836329   -4.8445546    4909.1691            1 
  930000    2.0293054   -4.8307513    4897.9144            1 
  931000    2.0445534   -4.8166377    4895.3306            1 
  932000    1.9759187   -4.8757604    4887.5981            1 
  933000     2.014588   -4.8170235    4932.0386       -1e+20 
  934000    1.9846284    -4.781308    4933.4539            1 
  935000    1.9280613   -4.7743358     4933.538            1 
  936000    2.0288359   -4.7657259    4933.2368            1 
  937000    1.9761949   -4.8107182    4904.9035            1 
  938000    1.9811526   -4.8587714    4934.6949            4 
  939000     1.996382   -4.7663723     4911.809            1 
  940000    2.0222362   -4.8229901    4896.9315            2 
  941000    2.0489796    -4.836914    4921.0489            2 
  942000    1.9748535   -4.8313011    4951.7397            1 
  943000     2.008066   -4.7925789    4882.9342            1 
  944000    2.0007416   -4.7845252    4939.4902            1 
  945000    1.9947296   -4.7733437    4957.5729            2 
  946000    2.0074558   -4.8154608    4926.1936            1 
  947000    1.9728715   -4.7971127    4944.2872            1 
  948000    2.0311119   -4.7845497    4915.3024       -1e+20 
  949000    2.0114134   -4.8011357    4911.8081            1 
  950000    2.0145589   -4.7838502    4957.4149            1 
  951000    1.9785567   -4.7823439    4894.1066            3 
  952000    2.0003484    -4.801951    4930.9952       -1e+20 
  953000    2.0014861   -4.7719983    4933.2026       -1e+20 
  954000    1.9920928    -4.773335    4917.4066            1 
  955000      2.01289   -4.8129975     4925.686       -1e+20 
  956000    2.0341313   -4.8140481    4939.8108            1 
  957000    1.9986157   -4.7407031    4921.9967            2 
  958000    2.0021932   -4.7739642    4946.9643            1 
  959000    2.0002249   -4.7510696    4951.0679       -1e+20 
  960000    2.0125931   -4.8307402    4899.8931            1 
  961000    2.0103807   -4.8454022    4937.1054            3 
  962000    2.0002223   -4.7830864    4950.5994            1 
  963000    2.0199127   -4.8400638    4925.2169            1 
  964000    1.9864018   -4.7982972    4930.4174       -1e+20 
  965000    1.9997973   -4.8045397    4903.8358            1 
  966000     2.012874   -4.8211093    4910.5532            1 
  967000    2.0700408   -4.8627705    4862.0486            1 
  968000    2.0160597   -4.7807241    4928.4047            1 
  969000    2.0312395   -4.8204161    4921.9476       -1e+20 
  970000    2.0310335   -4.8254846    4910.1903            3 
  971000    2.0272061   -4.8263312    4890.2586            1 
  972000    1.9743997   -4.8051733    4910.5804            1 
  973000    2.0004747   -4.7804322    4916.3992            1 
  974000    2.0033826   -4.7581746     4913.035            1 
  975000    1.9957709   -4.8177901    4909.5517       -1e+20 
  976000    2.0075329   -4.8199084     4909.353            2 
  977000    1.9600219    -4.829611    4927.2201            1 
  978000    2.0293478   -4.7560606    4915.9592            2 
  979000     1.995529   -4.8241752    4937.6719            1 
  980000    1.9995305   -4.8500136     4899.001            1 
  981000    1.9947269   -4.8034107    4937.5133            1 
  982000    1.9844812   -4.7754092    4952.7294            1 
  983000     1.985614   -4.7966994    4924.7242       -1e+20 
  984000    1.9771806   -4.7719988     4890.303       -1e+20 
  985000    1.9811967   -4.7902479    4917.1558            1 
  986000    2.0006279   -4.7968686      4903.76            1 
  987000    2.0322625   -4.7785912    4913.5811            1 
  988000    2.0049779   -4.8123904    4915.3088            1 
  989000    2.0098873   -4.8123297    4932.8441            1 
  990000    1.9714522   -4.8618301     4897.068            2 
  991000    1.9865497   -4.7923037     4921.721            1 
  992000    2.0101053   -4.8132904    4917.8726            2 
  993000    2.0371737    -4.785214    4898.4393            1 
  994000    2.0066475    -4.769987    4893.5125       -1e+20 
  995000    2.0154291   -4.8503319    4915.4526            1 
  996000    2.0042402   -4.7540947    4921.9407            2 
  997000    2.0186331   -4.8039679    4924.3686            1 
  998000     1.997972     -4.78884    4899.8456            2 
  999000    1.9907961   -4.7973585    4909.0386       -1e+20 
 1000000     2.050072   -4.8441755    4882.5505            1 
 1001000    2.0292376   -4.7221504     4942.754            1 
 1002000    2.0155274   -4.7765028    4945.5796            1 
 1003000    2.0484078   -4.7750589    4958.1495       -1e+20 
 1004000    1.9913399   -4.8121464    4910.6927       -1e+20 
Loop time of 1975.22 on 48 procs for 1000000 steps with 4000 atoms

Performance: 87483.788 tau/day, 506.272 timesteps/s
99.4% CPU use with 48 MPI tasks x no OpenMP threads

MPI task timing breakdown:
Section |  min time  |  avg time  |  max time  |%varavg| %total
---------------------------------------------------------------
Pair    | 106.08     | 107.82     | 113.7      |  14.6 |  5.46
Neigh   | 20.433     | 20.669     | 21.547     |   3.8 |  1.05
Comm    | 108.13     | 116.05     | 122.14     |  32.6 |  5.88
Output  | 1.1462     | 1.147      | 1.1621     |   0.2 |  0.06
Modify  | 1711       | 1718       | 1726.3     |   9.2 | 86.98
Other   |            | 11.58      |            |       |  0.59

Nlocal:        83.3333 ave          93 max          77 min
Histogram: 3 8 4 13 4 8 4 0 2 2
Nghost:        1427.25 ave        1450 max        1409 min
Histogram: 5 5 6 7 5 7 3 5 3 2
Neighs:        7746.31 ave        8669 max        6955 min
Histogram: 2 4 4 6 11 12 3 1 2 3
FullNghs:      15494.6 ave       17351 max       14215 min
Histogram: 3 8 3 11 8 8 3 0 2 2

Total # of neighbors = 743742
Ave neighs/atom = 185.93550
Neighbor list builds = 83434
Dangerous builds = 2985

#clear
#
#next RN
#
#jump SELF
Total wall time: 0:32:56
