
units lj                  # Use reduced LJ style units
atom_style atomic         # Uncharged point particles
atom_modify map hash      # Needed for indexing of clusters etc
                          # Used to be able to find where atoms are in relation to each other.

lattice fcc 1.0 spacing 1 1 1
Lattice spacing in x,y,z = 1.5874011 1.5874011 1.5874011
region box block 0 10 0 10 0 10 units lattice
create_box 2 box
Created orthogonal box = (0.0000000 0.0000000 0.0000000) to (15.874011 15.874011 15.874011)
  3 by 4 by 4 MPI processor grid
create_atoms 1 box
Created 4000 atoms
  using lattice units in orthogonal box = (0.0000000 0.0000000 0.0000000) to (15.874011 15.874011 15.874011)
  create_atoms CPU = 0.002 seconds
set type 1 type/fraction 2 0.34 78393
Setting atom values ...
  1376 settings made for type/fraction
mass 1 1.0
mass 2 1.0
pair_style lj/cut  3.5
pair_modify tail  yes
pair_coeff 1  1  1.0  1.0   # Intearaction between 1 and 1 set with epsilon = 1 and sigma = 1
pair_coeff 1  2  1.5  0.8
pair_coeff 2  2  0.5  0.88

write_data data.0
System init for write_data ...
Neighbor list info ...
  update every 1 steps, delay 10 steps, check yes
  max neighbors/atom: 2000, page size: 100000
  master list distance cutoff = 3.8
  ghost atom cutoff = 3.8
  binsize = 1.9, bins = 9 9 9
  1 neighbor lists, perpetual/occasional/extra = 1 0 0
  (1) pair lj/cut, perpetual
      attributes: half, newton on
      pair build: half/bin/atomonly/newton
      stencil: half/bin/3d
      bin: standard
WARNING: Not all mixed pair coeffs generated from mixing. Use write_data with 'pair ij' option to store all pair coeffs. (../write_data.cpp:312)


#############################
#   M E L T   S Y S T E M   #
#############################

velocity all create 2.4 5300450 mom yes dist gaussian # Assign velocities
                                                    # Temperature 2.4, random number seed, zero linear momentum
                                                                                # Gaussian distribution

timestep 0.002   # simulation timestep
thermo 1000       # output thermodynamic data every 1000 steps bf 100

# Define a fix  in this case with index 1 applied to all
# particles in the simulation. This fix is for simulations
# in the anisotropic NPT ensemble. Note that we use the MTK
# correction.
fix 1 all npt temp 2.4 2.4 0.1 iso 5.68 5.68 0.5 mtk yes tchain 5 pchain 5 # Use NPT ensemble
                                                                         # Set temperature and pressure and damping
                                                                         # Numbers of thermostats in chain and in barostat
run 10000          # run for 10000 steps
Per MPI rank memory allocation (min/avg/max) = 3.642 | 3.644 | 3.648 Mbytes
Step Temp E_pair E_mol TotEng Press Volume 
       0          2.4   -6.2108987            0   -2.6117987   -4.0679274         4000 
    1000    2.4167658   -4.9775429            0   -1.3533005    5.5550361    4077.7171 
    2000    2.4110978   -5.0041123            0   -1.3883697    5.5451823    4070.0029 
    3000    2.3678759   -5.0455726            0   -1.4946466    5.4652061    4038.4691 
    4000    2.3943629   -5.0446003            0   -1.4539538    5.5473319    4049.2951 
    5000    2.4313367    -5.030121            0   -1.3840277     5.970478    4020.4625 
    6000    2.4051782   -5.0292473            0   -1.4223818     5.999954    4023.3251 
    7000    2.3974852   -4.9861652            0   -1.3908365    5.9548615    4031.6563 
    8000    2.3747118   -5.0456069            0   -1.4844298    5.5218525    4049.6529 
    9000    2.4046223   -4.9896413            0   -1.3836095    5.9624801    4034.1641 
   10000    2.4375923   -5.0243674            0    -1.368893    5.8058166    4029.0413 
Loop time of 2.46051 on 48 procs for 10000 steps with 4000 atoms

Performance: 702292.929 tau/day, 4064.195 timesteps/s
99.7% CPU use with 48 MPI tasks x no OpenMP threads

MPI task timing breakdown:
Section |  min time  |  avg time  |  max time  |%varavg| %total
---------------------------------------------------------------
Pair    | 1.0452     | 1.1397     | 1.261      |   3.3 | 46.32
Neigh   | 0.20611    | 0.2142     | 0.23143    |   0.9 |  8.71
Comm    | 0.75384    | 0.84213    | 0.92115    |   4.0 | 34.23
Output  | 0.00024854 | 0.00025459 | 0.00032031 |   0.0 |  0.01
Modify  | 0.19501    | 0.24906    | 0.29591    |   6.3 | 10.12
Other   |            | 0.01515    |            |       |  0.62

Nlocal:        83.3333 ave          95 max          75 min
Histogram: 5 2 7 8 8 3 8 4 2 1
Nghost:        1632.02 ave        1661 max        1597 min
Histogram: 2 3 5 10 2 3 5 8 5 5
Neighs:        9478.23 ave       11236 max        8143 min
Histogram: 4 5 5 7 10 7 3 5 1 1

Total # of neighbors = 454955
Ave neighs/atom = 113.73875
Neighbor list builds = 907
Dangerous builds = 215

# Equilibrate just above the melting temperature to avoid step fn in T

fix 1 all npt temp 1.25 1.25 0.1 iso 5.68 5.68 0.5 mtk yes tchain 5 pchain 5
run 2000
Per MPI rank memory allocation (min/avg/max) = 3.643 | 3.645 | 3.649 Mbytes
Step Temp E_pair E_mol TotEng Press Volume 
   10000    2.4375923   -5.0243674            0    -1.368893    5.8058166    4029.0413 
   11000     1.261483   -6.9023731            0   -5.0106217     5.736133    3243.2987 
   12000    1.2568241   -6.9627356            0   -5.0779707    5.6928727    3230.5241 
Loop time of 0.591891 on 48 procs for 2000 steps with 4000 atoms

Performance: 583891.642 tau/day, 3379.003 timesteps/s
99.6% CPU use with 48 MPI tasks x no OpenMP threads

MPI task timing breakdown:
Section |  min time  |  avg time  |  max time  |%varavg| %total
---------------------------------------------------------------
Pair    | 0.23545    | 0.28236    | 0.31207    |   2.6 | 47.70
Neigh   | 0.037464   | 0.041111   | 0.043979   |   0.6 |  6.95
Comm    | 0.17939    | 0.21494    | 0.26556    |   3.2 | 36.31
Output  | 5.1919e-05 | 5.3967e-05 | 7.0083e-05 |   0.0 |  0.01
Modify  | 0.0447     | 0.048689   | 0.052202   |   1.0 |  8.23
Other   |            | 0.004735   |            |       |  0.80

Nlocal:        83.3333 ave          91 max          75 min
Histogram: 2 5 3 8 4 6 6 6 6 2
Nghost:        1900.08 ave        1924 max        1881 min
Histogram: 6 3 4 11 7 2 6 3 5 1
Neighs:        11827.1 ave       13556 max       10119 min
Histogram: 3 2 5 8 5 4 13 2 4 2

Total # of neighbors = 567702
Ave neighs/atom = 141.92550
Neighbor list builds = 144
Dangerous builds = 12

#############################
# L I N E A R  Q U E N C H  #
#############################

# Define solid atoms. This closely follows ten Wolde  Ruiz-Montero and Frenkel  Faraday Discuss  1996  104  93-110
# Compute components of the per-atom q6 vector
compute q6 all orientorder/atom degrees 1 6 components 6 nnn NULL cutoff 1.3 # compute the Q6 parameter.
                                                                             # Use all neighbours within 1.3 unit cell.

# get number of connections
compute coord_number all coord/atom orientorder q6 0.5

# An atom is solid if it has 8 or more connections (of a possible 14)
variable is_solid atom c_coord_number>=8
group solid dynamic all var is_solid    # Must be dynamic to update
dynamic group solid defined

# do clustering
compute cluster solid cluster/atom 1.3 # Create a cluster where all atoms within are solid and max 1.3 units from another member

# define chunks one chunk per cluster
compute clus_chunks solid chunk/atom c_cluster nchunk every compress yes  # Says which atoms are in which chunk

# count the size of each chunk
compute size_chunks solid property/chunk clus_chunks count


# Find the maximum entry in the vector of chunk sizes
variable max_n equal max(c_size_chunks)


# Thermo style which includes this variable
# thermo_style custom step temp pe vol v_max_n

thermo ${N}  # Print the thermo information every 100 steps
thermo 1000  

# Reset the npt fix at a lower temperature (below freezing)
fix 1  all npt temp  ${temp} ${temp}  0.1  iso  5.68  5.68  0.5  mtk yes tchain  5  pchain  5
fix 1  all npt temp  0.45 ${temp}  0.1  iso  5.68  5.68  0.5  mtk yes tchain  5  pchain  5
fix 1  all npt temp  0.45 0.45  0.1  iso  5.68  5.68  0.5  mtk yes tchain  5  pchain  5

dump dmp2 all dcd ${N} traj.dcd
dump dmp2 all dcd 1000 traj.dcd


compute msd all msd com yes
variable twopoint equal c_msd[4]/6/(step*dt+1.0e-6)
fix 9 all vector 10 c_msd[4]
variable fit equal slope(f_9)/6/(10*dt)
thermo_style custom step temp pe c_msd[4] v_twopoint v_fit v_max_n

fix 1 all npt temp 1.25 ${temp} 0.1 iso 5.68 5.68 0.5 mtk yes tchain 5 pchain 5
fix 1 all npt temp 1.25 0.45 0.1 iso 5.68 5.68 0.5 mtk yes tchain 5 pchain 5
run 5000000 # 5000000  # Run for this many steps
Neighbor list info ...
  update every 1 steps, delay 10 steps, check yes
  max neighbors/atom: 2000, page size: 100000
  master list distance cutoff = 3.8
  ghost atom cutoff = 3.8
  binsize = 1.9, bins = 8 8 8
  4 neighbor lists, perpetual/occasional/extra = 1 3 0
  (1) pair lj/cut, perpetual
      attributes: half, newton on
      pair build: half/bin/atomonly/newton
      stencil: half/bin/3d
      bin: standard
  (2) compute orientorder/atom, occasional
      attributes: full, newton on
      pair build: full/bin/atomonly
      stencil: full/bin/3d
      bin: standard
  (3) compute coord/atom, occasional
      attributes: full, newton on
      pair build: full/bin/atomonly
      stencil: full/bin/3d
      bin: standard
  (4) compute cluster/atom, occasional
      attributes: full, newton on
      pair build: full/bin/atomonly
      stencil: full/bin/3d
      bin: standard
Per MPI rank memory allocation (min/avg/max) = 9.815 | 9.822 | 9.827 Mbytes
Step Temp PotEng c_msd[4] v_twopoint v_fit v_max_n 
   12000    1.2568241   -6.9627356            0            0 8.3333333e+20            1 
   13000    1.2833304   -6.9520896   0.50407688 0.0032312619  0.041636407            2 
   14000     1.241232   -6.9500382   0.97669655 0.0058136698  0.039263042            2 
   15000    1.2776568   -6.9375571    1.4883372 0.0082685398   0.04031832            1 
   16000    1.2645246   -6.9691642    1.9643382  0.010230928  0.040673725            1 
   17000      1.24935   -6.9716385    2.4268732  0.011896437  0.040310436            2 
   18000    1.2491229   -6.9441141    2.8498546  0.013193771  0.039760308            1 
   19000    1.2719553   -6.9437094    3.2716157  0.014349191  0.039261835            2 
   20000    1.2352445   -7.0196995    3.7490826  0.015621177  0.038938818            3 
   21000    1.2706995   -6.9508858    4.2818911  0.016991631  0.038886581            2 
   22000    1.2518219    -7.047242    4.7643202  0.018046667  0.039151323            2 
   23000    1.2419555   -6.9534391    5.2580076  0.019050752  0.039276564            1 
   24000    1.2282094   -6.9872779    5.8224386    0.0202168  0.039568075            2 
   25000    1.2476167   -7.0247711    6.2507655  0.020835885  0.039824142            2 
   26000    1.2568001   -7.0094043    6.7483258  0.021629249  0.039870235            1 
   27000    1.2885303   -7.0001074     7.224891  0.022299046  0.039960846            1 
   28000    1.2695955   -6.9831092    7.7982075   0.02320895  0.040120669            1 
   29000    1.2390238   -6.9765264    8.3820517  0.024086355  0.040380194            2 
   30000    1.2570542   -6.9517517    8.8828998  0.024674721  0.040631873            1 
   31000    1.2573117   -7.0062887    9.3165022   0.02504436  0.040749499            1 
   32000    1.2487173   -6.9925382    9.8526421  0.025657922  0.040839629            3 
   33000    1.2294971   -7.0100283    10.290329  0.025985679  0.040911118            1 
   34000    1.2315671   -6.9962195    10.723998  0.026284308  0.040913873            1 
   35000    1.2882144   -6.9481046    11.158183  0.026567102  0.040917166            2 
   36000    1.2660597   -7.0229577    11.656606  0.026982883  0.040842873            1 
   37000    1.2194631   -6.9483579    12.276999  0.027650899  0.040855517            1 
   38000    1.2240059    -7.044082    12.623047   0.02768212  0.040856707            2 
   39000    1.2326727   -6.9681368     13.08916  0.027968291  0.040796378            1 
   40000    1.2460955   -6.9938482    13.539711  0.028207731  0.040734628            1 
   41000     1.264361   -6.9548821    13.922158  0.028297069  0.040638719            2 
   42000    1.2883016    -6.999431    14.280548  0.028334421  0.040513899            1 
   43000    1.2627957   -7.0172109    14.842247  0.028764044  0.040381493            1 
   44000    1.2425992   -7.0091201    15.224602  0.028834472  0.040262194            2 
   45000    1.2401209   -6.9997664    15.577667  0.028847531  0.040143578            2 
   46000    1.2318162   -7.0121773    16.054883  0.029084933  0.040001564       -1e+20 
   47000    1.2505123   -7.0159801     16.57117  0.029381506   0.03988859            1 
   48000     1.250941   -6.9918165    17.211086  0.029880356   0.03982062            1 
   49000    1.2332793   -7.0045379    17.693639  0.030091223  0.039798416            1 
   50000     1.227995   -7.0260413    18.083971  0.030139952  0.039768077            1 
   51000     1.271343   -6.9691937     18.62169  0.030427597   0.03971332            1 
   52000    1.2255652   -6.9996528    18.957842  0.030381157  0.039680424            1 
   53000    1.2394084    -6.975897     19.49474  0.030652106  0.039633803            1 
   54000    1.2507678   -6.9652655    19.924503   0.03074769  0.039597191            1 
   55000    1.2234003   -7.0062303    20.416267  0.030933738  0.039556831            1 
   56000    1.2518794   -7.0078781    20.839746  0.031011527  0.039529593            5 
   57000    1.2257309   -7.0110439    21.402988  0.031290918  0.039498567            2 
   58000    1.2334181   -7.0141677     21.79761  0.031318406   0.03947505            1 
   59000    1.2423544   -6.9708322    22.083509  0.031191396  0.039424899            1 
   60000    1.2277813   -6.9655492    22.654387  0.031464427  0.039376215            1 
   61000    1.2209381   -7.0755727    23.072993  0.031520482  0.039349192            1 
   62000    1.2536264   -7.0294137    23.665576   0.03180857  0.039330942            1 
   63000    1.2266199   -6.9656563    24.173589  0.031975646  0.039317294            1 
   64000    1.2658828    -7.022748    24.528736  0.031938458  0.039291541            1 
   65000    1.2535746   -6.9887324    24.902451  0.031926219  0.039262922            1 
   66000     1.264192   -6.9837836    25.470896  0.032160221  0.039227317            2 
   67000    1.2606865   -7.0050972    25.968875  0.032299595  0.039203865            3 
   68000    1.2481454   -6.9891783    26.363472  0.032308177   0.03917729            1 
   69000    1.2378849   -6.9956596    26.687346  0.032231094  0.039138958            1 
   70000    1.2225646   -6.9546622     27.15438  0.032326643  0.039099229            2 
   71000    1.2322899   -6.9892736    27.643912  0.032445906  0.039070024            1 
   72000    1.2336933   -7.0209683    28.090196    0.0325118  0.039042564            1 
   73000    1.2206475   -6.9775786    28.630102  0.032682764  0.039018915            1 
   74000    1.2403687   -7.0112607    29.161569  0.032839605   0.03899394            1 
   75000    1.2343658   -7.0073926    29.604438   0.03289382   0.03898233            2 
   76000     1.221551   -6.9802323    30.019861  0.032916514  0.038961151            2 
   77000    1.2339682   -7.0735548    30.192742  0.032676127  0.038931104            4 
   78000    1.2399241   -7.0083884     30.70185  0.032801122  0.038894772            1 
   79000    1.2350365   -6.9985468    31.215968  0.032928236  0.038851039            3 
   80000    1.2304587   -7.0175325    31.726673  0.033048618  0.038815353            4 
   81000    1.2326078   -7.0215058    32.092336  0.033016807  0.038786087            1 
   82000    1.2466228   -6.9706927    32.606097  0.033136277  0.038760188            1 
   83000    1.2274871   -7.0037137    32.929449  0.033061695  0.038731477            2 
   84000    1.2232707   -7.0182813    33.593062  0.033326451  0.038708276            1 
   85000     1.253793   -6.9946558    34.107272  0.033438502  0.038698081            1 
   86000    1.2376062   -6.9671523    34.631861  0.033558005  0.038688155            2 
   87000    1.2307411   -7.0479129    35.168045  0.033685866  0.038691266            2 
   88000    1.2405456    -6.983241    35.666039  0.033774658  0.038698417            2 
   89000    1.2352837   -6.9801359    36.105332   0.03380649   0.03869992            1 
   90000    1.2280136   -7.0397637    36.304574  0.033615346  0.038686294            2 
   91000    1.2463236   -6.9693652     36.77517  0.033676896  0.038671387            1 
   92000     1.225655   -6.9975574    37.220705  0.033714407  0.038646466            1 
   93000    1.2064055   -6.9548397    37.684188  0.033767193   0.03863048            2 
   94000      1.24586   -7.0140321    38.045667  0.033728428  0.038608264            1 
   95000    1.2419142   -6.9960088     38.72423  0.033968622  0.038594974            1 
   96000    1.2349375   -7.0405915    38.863281  0.033735487  0.038575602            1 
   97000    1.2590931   -6.9742599    39.470767  0.033909593  0.038553447       -1e+20 
   98000    1.2415567   -7.0150694    39.746725  0.033798236  0.038527973            1 
   99000    1.2143032   -6.9815584    40.269988  0.033897296  0.038503374            3 
  100000    1.2487899   -6.9868313    40.571328   0.03380944  0.038478435            2 
  101000    1.2108157   -7.0690735    40.869001  0.033720298  0.038448669            3 
  102000    1.2282848   -7.0329754    41.411588  0.033832997  0.038413213            1 
  103000    1.1825001   -7.0588079    41.689737  0.033729561  0.038382128            1 
  104000    1.2275614   -6.9857214    42.159467  0.033781624   0.03834645            2 
  105000    1.2529033    -7.049057    42.669592  0.033864756  0.038317226            1 
  106000    1.2219434   -7.0462238    43.202908   0.03396455  0.038293097            1 
  107000    1.2245965   -6.9969422    43.579867  0.033940706  0.038264933            1 
  108000    1.2159643   -6.9798742    43.921848  0.033890315  0.038234315            1 
  109000    1.2228662   -7.0231651    44.158597  0.033760395  0.038195416            3 
  110000    1.2542662   -7.0357057    44.521222  0.033728198  0.038150163            4 
  111000    1.2327781   -7.0410761    45.061285  0.033829794  0.038111907            1 
  112000    1.2237417   -7.0045787    45.496948  0.033851896  0.038073676            1 
  113000    1.2456953   -7.0715322    45.631303  0.033651403  0.038032062            1 
  114000    1.2459365   -7.0089898    46.167348  0.033748061   0.03799044            2 
  115000    1.2321147   -7.0268871    46.466616   0.03367146  0.037945828            1 
  116000    1.2498439   -7.0279349    47.037903  0.033791597  0.037902422            2 
  117000     1.209875   -7.0070377    47.581663  0.033890074   0.03786267            2 
  118000    1.2484802   -6.9706506    48.203254  0.034041846  0.037831618            1 
  119000    1.2585406   -6.9804565     48.49718  0.033961611  0.037803915            1 
  120000    1.2411918   -7.0331662    48.915565  0.033969142  0.037771227            2 
  121000     1.249172   -6.9992433    49.370326  0.034001602  0.037741231            1 
  122000    1.2244374   -7.0248741    49.746568  0.033979896  0.037712328            2 
  123000    1.2262677   -6.9945075    50.153546  0.033979367  0.037686974            2 
  124000     1.237337   -7.0308667    50.732176  0.034094204  0.037662907            2 
  125000    1.2515102   -7.0152163    51.387015   0.03425801  0.037644384            1 
  126000    1.2314356   -6.9637563    52.173607  0.034506354  0.037633555            2 
  127000    1.2521526   -7.0174156    52.552096  0.034483002  0.037626719            1 
  128000    1.2579896   -6.9657799    52.979492  0.034491857  0.037624005            3 
  129000    1.2466041   -7.0444834    53.206531  0.034371144  0.037615094            2 
  130000    1.2559326   -7.0314486    53.664056  0.034400036  0.037608397            1 
  131000    1.2183076   -7.0032017    54.289731  0.034535452  0.037601874            1 
  132000    1.2372262   -6.9630365    54.700647  0.034533237  0.037595291            2 
  133000    1.1993033    -7.020939    54.899376  0.034398105  0.037586497            1 
  134000    1.2143146   -7.0386695    55.297056  0.034388716   0.03757028            1 
  135000    1.2235689   -7.0296027    55.612646  0.034328794  0.037550854            4 
  136000    1.2290074    -7.037439    56.040092  0.034338292  0.037538741            1 
  137000    1.2212683    -6.999347    56.934755  0.034631846  0.037527897            1 
  138000    1.2366842   -6.9979079    57.422345  0.034675329  0.037519529            2 
  139000    1.2223393    -7.065038    57.535523  0.034493719  0.037511743            3 
  140000    1.2366455   -7.0655605    57.916618  0.034474177  0.037504171            1 
  141000    1.2113373   -6.9938653    58.398865  0.034514695  0.037492391            1 
  142000    1.2268064   -7.0030097    58.814878  0.034515773  0.037476655            1 
  143000    1.2371025   -7.0501727    58.963862  0.034361225   0.03746011            1 
  144000    1.2220931   -7.0602397    59.455721  0.034407246  0.037441061            1 
  145000    1.2291926   -7.0198662    59.927866  0.034441302  0.037420293            1 
  146000    1.2072006   -7.0030402    60.200046  0.034360757  0.037398458            4 
  147000    1.2506579   -7.0117316    60.448378  0.034267788  0.037372657            1 
  148000    1.2537852   -7.0146865     60.94233  0.034314375  0.037349048            1 
  149000    1.2104762   -7.0400714    61.546072  0.034421741  0.037328289            1 
  150000     1.226861     -6.96818    62.158624  0.034532569  0.037308621            3 
  151000    1.2270203   -7.0008677    62.529745  0.034508689  0.037291728            1 
  152000    1.2114447   -7.0462069    62.715677  0.034383595  0.037273126            1 
  153000    1.2353504   -7.0285296    63.387611  0.034524842  0.037253064            1 
  154000    1.2279113   -7.0347473     64.06054  0.034664794  0.037236363            1 
  155000    1.2297409   -7.0372041    64.418429  0.034633564  0.037224788            1 
  156000    1.2270696   -7.0339217    64.764109  0.034596212  0.037211397            1 
  157000    1.2398944   -7.0078238    65.415155   0.03472142  0.037199149            1 
  158000    1.2206315   -7.0333882    65.656336  0.034628869  0.037188659            1 
  159000    1.2312768   -6.9988381    66.052376  0.034618645  0.037180095            3 
  160000    1.1962213   -7.0344708    66.531818  0.034651988  0.037168397            2 
  161000    1.2225956   -7.0632148    66.770631  0.034560368  0.037158051            2 
  162000    1.2158802   -7.0817995    67.365496  0.034653033  0.037149534            1 
  163000    1.2279279   -7.0345815    67.733977  0.034628822  0.037137716            1 
  164000    1.2361294   -6.9877431    68.190235  0.034649509  0.037126191            1 
  165000    1.2556927   -7.0507658    68.511821  0.034601929  0.037114181            2 
  166000    1.2147214   -7.0494743    69.176332  0.034727074  0.037103335            1 
  167000    1.2306251    -7.007333    69.516759  0.034689002  0.037092136            2 
  168000    1.2179143   -7.0151093    69.901621  0.034673423  0.037081651            2 
  169000     1.237851   -7.0241427    70.300839  0.034665108  0.037072951            2 
  170000    1.2195962   -7.0257822    70.954758  0.034781744  0.037066134            1 
  171000    1.2265037    -7.066585    71.366895  0.034779188  0.037058424            2 
  172000    1.2155588   -7.0378704    71.941477  0.034855366  0.037050954            1 
  173000    1.2256331   -7.0457599    72.353786  0.034852498  0.037048387            2 
  174000    1.2150594   -7.0339809    72.845459  0.034887672    0.0370432            1 
  175000    1.2315161   -7.0905981    72.815049  0.034673833  0.037033724            1 
  176000     1.222086   -7.0347291    73.341922  0.034726289  0.037021687            1 
  177000    1.1946533   -7.0531869    73.526266  0.034616886  0.037011155            2 
  178000    1.2308933    -7.028648    73.876947  0.034586586  0.036998315            2 
  179000    1.2377069   -7.0015752    74.234947  0.034560031   0.03698354            2 
  180000    1.2378935   -7.0311832    74.681436  0.034574739  0.036967366            1 
  181000     1.234229   -7.0070693    75.342699  0.034688167  0.036956218            1 
  182000     1.247353   -7.0324066    75.723917  0.034672123   0.03694458            1 
  183000    1.2238738   -7.0734886    75.969123  0.034594318  0.036931155            1 
  184000    1.2203413   -7.0406113    76.668485  0.034723046  0.036917853            1 
  185000    1.2353028   -7.0327114     76.84805  0.034616239  0.036904384            2 
  186000    1.2293228    -7.056768    77.787305  0.034850943  0.036895178            2 
  187000    1.2093525   -7.0590337    78.588469  0.035021599  0.036891188            1 
  188000    1.2362948   -7.0566213    78.645001  0.034860373  0.036887982            1 
  189000    1.2039771   -7.0194519    79.551526  0.035075629  0.036887524            4 
  190000    1.2078598   -7.0346885      80.1123  0.035136973  0.036889955            1 
  191000    1.2352502   -7.0023441    80.448986  0.035099907  0.036891753            1 
  192000      1.22493    -7.010815    80.834801  0.035084549  0.036893153            3 
  193000    1.2196292   -7.0397769    81.506369  0.035192733  0.036893779            1 
  194000    1.2626292   -7.0312235     82.16017  0.035292169  0.036899859            4 
  195000    1.2318127   -7.0771981    82.281603  0.035163078  0.036905126            1 
  196000    1.1986911   -7.0655397    83.334687  0.035431414  0.036910872       -1e+20 
  197000    1.1867429   -7.0768821    83.158641   0.03517709  0.036914362            2 
  198000    1.1998362   -7.1018728    83.240404   0.03503384  0.036915067            1 
  199000    1.1969085   -7.0188626    83.924639  0.035144321  0.036915242            1 
  200000    1.2188389   -7.0530541    83.857359  0.034940566  0.036912246            2 
  201000    1.2215573   -7.0695913    84.361123   0.03497559  0.036906634            3 
  202000    1.2322106    -7.085229    84.595462  0.034899118  0.036900124            2 
  203000    1.1964738   -7.0550784    85.574742  0.035129204  0.036898769            1 
  204000    1.2090704   -7.0524512    85.913904  0.035095549  0.036897319            2 
  205000     1.228387   -7.0712377    86.034051  0.034973191  0.036894013            3 
  206000    1.2186137   -7.0561968     86.39384  0.034948964   0.03688711            2 
  207000    1.2052701   -7.0312183    87.307596  0.035147985  0.036879381            1 
  208000    1.2191854   -7.0796844    87.348123  0.034995242  0.036873011            2 
  209000    1.2212739   -7.0361625    87.861196  0.035032375  0.036866871       -1e+20 
  210000    1.2219327   -7.0212279    88.556727  0.035141558    0.0368627            2 
  211000    1.2342702   -7.0206514    89.169066  0.035216851  0.036861506            2 
  212000    1.2062922    -7.029979    89.831988  0.035311316  0.036862073            1 
  213000    1.2300655   -7.0731786    89.846308  0.035151138  0.036861286            1 
  214000    1.2135634   -7.0455418    90.884105  0.035391007  0.036863008            1 
  215000    1.2029633   -7.0544185    91.282147  0.035380677  0.036866012            2 
  216000    1.1965189   -7.0612272    91.668017  0.035365747  0.036871206            1 
  217000    1.2191989   -7.0868468    91.859456  0.035276289  0.036871724            2 
  218000    1.2232481   -7.0126825    92.773651  0.035463934  0.036873029            1 
  219000    1.2245317   -7.0851471     92.60047    0.0352361  0.036874117            3 
  220000    1.1987235   -7.0268575    93.412336   0.03538346  0.036876197            1 
  221000    1.2515176   -7.0729417    93.221299  0.035151319  0.036875119            2 
  222000    1.2178222   -7.0370899    94.080262  0.035315414  0.036873389            1 
  223000    1.2064019   -7.0283093    94.469094  0.035302352  0.036873209            3 
  224000    1.2114989    -7.036555    95.335544  0.035467092  0.036873304            1 
  225000    1.2038368   -7.0856578    95.289257  0.035292317  0.036873343            1 
  226000    1.2223816   -7.0205643    95.919081  0.035368393  0.036874403            2 
  227000    1.2115304   -7.0083944    96.605981  0.035464751  0.036876065            1 
  228000    1.1944371   -7.0398086    97.253717  0.035545949  0.036877773            1 
  229000    1.1836143   -7.0714158     97.35773  0.035428577  0.036879214            1 
  230000     1.204163   -7.0888786    97.582199  0.035355869  0.036879462            1 
  231000    1.1970827   -7.0278479    98.255388  0.035445667  0.036879648            3 
  232000    1.2153902    -7.067115     98.42351  0.035353272  0.036878347            1 
  233000     1.227479   -7.0589023    98.655414  0.035284483  0.036875064            1 
  234000    1.2398652   -7.0315203    99.091527  0.035289005  0.036871773            1 
  235000    1.2007224   -7.0762431    99.458644  0.035269022  0.036868251            1 
  236000    1.2307512   -7.0949258    99.737484  0.035218038  0.036864383            1 
  237000    1.2296929   -7.0696117    100.08058  0.035190077  0.036860892            1 
  238000     1.216098   -7.0909842    100.47876  0.035181638  0.036855991            1 
  239000    1.2122611   -7.0681205    101.14892  0.035268103  0.036849913            1 
  240000    1.2055262   -7.0636977    101.35377  0.035192283  0.036843562            1 
  241000    1.2232392   -7.0508788    101.55309  0.035115177  0.036834967            2 
  242000    1.2199493   -7.0775653    101.67231  0.035011126  0.036826036            2 
  243000    1.2304295   -7.0144317    102.18151  0.035041668  0.036818241            4 
  244000      1.20151   -7.0543912    102.46844  0.034996051  0.036810022            3 
  245000     1.236137   -7.0236052    103.22896  0.035111892  0.036800536            2 
  246000    1.2079522      -7.0699    103.79025  0.035159299  0.036791441            2 
  247000    1.1911039   -7.0727864    103.63415  0.034964288   0.03678136            1 
  248000    1.1985507   -7.0669912     104.1509  0.034996943  0.036770112            1 
  249000      1.22627   -7.0508096    104.37682  0.034932002  0.036757946            1 
  250000    1.2180999   -7.0506868    105.05706   0.03501902  0.036744369            2 
  251000    1.1928733   -7.0416381    105.21945  0.034933416  0.036731118            3 
  252000    1.2197433    -7.080835    105.51038  0.034890997  0.036717733            2 
  253000    1.2111966   -7.0482077    106.14251  0.034961302  0.036703504            2 
  254000    1.2090488     -7.07741    106.13964  0.034822715  0.036689037            2 
  255000    1.2006199   -7.0644773    106.58912  0.034833044  0.036675061            2 
  256000    1.1986232   -7.0318264    106.94867  0.034814021  0.036659022            1 
  257000    1.2106759   -7.0786623    107.07538  0.034719642  0.036643776            1 
  258000     1.255049   -7.0272498    108.03592  0.034895322  0.036629555            1 
  259000    1.1949798   -7.0854336    107.82988  0.034694299    0.0366155       -1e+20 
  260000    1.2330137   -7.0369783    108.80038  0.034871916  0.036600334            1 
  261000    1.2154978   -7.0762592     108.6706  0.034696872   0.03658554            1 
  262000    1.2236924    -7.042287    109.49526  0.034826738  0.036572479            1 
  263000    1.1898318   -7.0296312    110.23226  0.034927837  0.036557875            2 
  264000    1.1847702   -7.0483339     109.8883  0.034686964  0.036541467            2 
  265000    1.2301883   -7.0204243     110.5734  0.034771511  0.036524853            4 
  266000    1.1947916    -7.053917    110.53976  0.034630251  0.036509356            2 
  267000     1.211467   -7.0364494     111.3303  0.034747286  0.036492017            1 
  268000    1.2276223   -7.0224748    111.04199  0.034527981   0.03647321            1 
  269000    1.2065067   -7.0796178    111.45483  0.034527519   0.03645375            2 
  270000    1.2099174   -7.0647313    111.95952  0.034555408  0.036435925            1 
  271000    1.1776343   -7.1344675    112.11837  0.034476744  0.036417914            1 
  272000    1.2077985   -7.0356929      113.342  0.034724878   0.03640121            1 
  273000    1.1940109   -7.0386484    112.90134   0.03446317  0.036384709            1 
  274000    1.1874326   -7.0772483    113.48842  0.034515944  0.036366925            1 
  275000    1.1988859   -7.0850312    113.61344  0.034428314  0.036348044            1 
  276000    1.1909416   -7.0637729    114.43388  0.034551291  0.036329436            2 
  277000    1.2122377   -7.0271049    114.89764  0.034566076  0.036311377            1 
  278000    1.1995732   -7.0785796    115.29433  0.034560651  0.036295166            1 
  279000    1.2100456   -7.0573041    115.68643  0.034553892  0.036280596            2 
  280000    1.2059763   -7.0700148    116.36763  0.034633224  0.036266572            1 
  281000     1.169017   -7.0620964    116.63193  0.034588355  0.036253027            1 
  282000    1.1900983   -7.0690667    117.09778  0.034603362  0.036239134            6 
  283000    1.2004032    -7.039796    117.88806  0.034713799  0.036226611            2 
  284000    1.1671169   -7.1107098     117.5185  0.034483127  0.036212333            1 
  285000    1.2183535   -7.0539875    118.42472   0.03462711  0.036197806            2 
  286000    1.1866669   -7.0699031     119.1817  0.034726601  0.036185583       -1e+20 
  287000    1.2186627   -7.0370359    119.61447  0.034731264  0.036173787            2 
  288000    1.2021175   -7.0943896    119.66066  0.034624032  0.036161131            2 
  289000    1.2330418   -7.1119954    120.30748  0.034690737  0.036148768            1 
  290000    1.2265359   -7.0700846    120.94849  0.034755312  0.036136477            1 
  291000     1.202507   -7.0861695    121.15495  0.034695004  0.036124098            1 
  292000    1.2237318   -7.0777609    121.61528  0.034707557  0.036112217            2 
  293000     1.200546   -7.0643816    122.02455  0.034705504  0.036102792            2 
  294000    1.1970759   -7.1201365    122.32014  0.034671242  0.036091871            3 
  295000    1.2120723   -7.0835084    122.52101  0.034610455  0.036080753            1 
  296000    1.1925869   -7.0454515    123.41794  0.034746041  0.036070228            1 
  297000    1.2281421   -7.0569123    123.78781   0.03473283   0.03606186            1 
  298000    1.2178385    -7.059092    124.04708  0.034688779  0.036052148            2 
  299000    1.2179532   -7.1167459     124.6942  0.034753123   0.03604295            4 
  300000    1.2097722   -7.0372303    125.49724  0.034860344  0.036035085            1 
  301000    1.2049039   -7.0944289    125.05252  0.034621407  0.036027354            2 
  302000    1.2041744   -7.0444199    125.42261  0.034608888  0.036016306            2 
  303000    1.1792717   -7.1090676    125.63884  0.034554135  0.036005307            1 
  304000     1.222035    -7.133567    125.53303  0.034411467  0.035993019            1 
  305000    1.2196149   -7.0792187    126.12713  0.034460963  0.035978302            1 
  306000    1.1949993   -7.0648362    126.40312  0.034423508  0.035964304            2 
  307000    1.1754008    -7.095806    126.94712  0.034459045  0.035949682            1 
  308000    1.1947314    -7.076754    127.02511  0.034368265  0.035936246            2 
  309000    1.2247046   -7.0977492    127.46248  0.034374995  0.035922824            1 
  310000    1.2073217   -7.0760899    127.80583  0.034356406  0.035908594            3 
  311000    1.2089025   -7.0853063    128.36888  0.034396806  0.035894261            1 
  312000    1.1997016   -7.0381557    129.29059  0.034532742  0.035879375            1 
  313000    1.1851602   -7.1054135    129.26818  0.034416447  0.035865207            1 
  314000    1.1839882   -7.0867007    129.30962  0.034317841  0.035850207            2 
  315000    1.1846458   -7.0933482    129.54162   0.03427027  0.035835276            1 
  316000    1.2166703   -7.0737145     130.1425  0.034320278  0.035821318            2 
  317000    1.2025835   -7.0855505    130.81538  0.034388902  0.035807478            2 
  318000    1.1850807   -7.0179664    131.29091  0.034405375  0.035795192            1 
  319000    1.1828159    -7.070091    132.21483  0.034538879  0.035783218            2 
  320000      1.21636   -7.0785911    131.92297   0.03435494  0.035769977            1 
  321000    1.2086479   -7.0950051    132.52996  0.034405494  0.035758202            2 
  322000    1.2137231   -7.1175837    133.34355    0.0345092  0.035746435            1 
  323000    1.1965561   -7.0449378     133.9076  0.034547883  0.035735254            2 
  324000    1.2154968   -7.0820826    134.18802   0.03451338   0.03572482            1 
  325000      1.19561    -7.082625    134.66623  0.034529802  0.035713665            1 
  326000    1.1857929   -7.1222129    134.78268  0.034453651  0.035703628            1 
  327000    1.1987189   -7.0777369    135.43101  0.034513509  0.035694312            2 
  328000    1.2118551   -7.0307713    136.41124  0.034657328  0.035685339            1 
  329000    1.1884947   -7.0409688    136.39104  0.034546869  0.035677741            1 
  330000    1.2129594   -7.0528237    136.69328  0.034518505  0.035669586            2 
  331000    1.1671367   -7.1259028    137.06599  0.034508053  0.035659593            3 
  332000    1.2103916   -7.0568141    138.14126   0.03467401  0.035650192            1 
  333000    1.2092723    -7.094602    137.87534  0.034503338  0.035641157            1 
  334000    1.2082295   -7.0926537     138.1191  0.034460854  0.035633135            2 
  335000    1.1925596   -7.0823544    138.59222  0.034475676  0.035624551            1 
  336000    1.1931905   -7.1040032    139.12797  0.034505945  0.035615736            1 
  337000    1.2133772   -7.0906525    139.56579  0.034511818  0.035605952            1 
  338000    1.1893239   -7.0595642    139.75137  0.034455465  0.035596052            4 
  339000    1.1768601   -7.1138608    139.89056  0.034388042   0.03558631            1 
  340000    1.1687704   -7.0324351    140.20628  0.034364285    0.0355748            1 
  341000    1.2160917   -7.0699339    140.58764  0.034356707  0.035563787            2 
  342000    1.2276966   -7.1037838    140.71071  0.034286235   0.03555213            2 
  343000    1.1981715   -7.0897002    141.54761  0.034389605  0.035539727            2 
  344000    1.1761287   -7.0741674    142.08574  0.034419994  0.035528353            1 
  345000    1.2030725   -7.0720151    142.27876  0.034366849  0.035517587            4 
  346000    1.1797797   -7.0834317    142.66847  0.034361384  0.035506382            1 
  347000    1.1983989   -7.1212042    142.96244  0.034332958  0.035495245            2 
  348000    1.2046743   -7.1102042    143.50649   0.03436458  0.035485077            1 
  349000    1.1985501   -7.1002354    144.06381  0.034399191  0.035475305            2 
  350000    1.1950577   -7.0665256    144.14792  0.034320932  0.035464965            2 
  351000    1.2035851   -7.0822986    144.29284   0.03425756  0.035453569            1 
  352000    1.2077723   -7.0448037    144.47309   0.03420291  0.035440653            1 
  353000    1.1606852   -7.0632938    144.92963  0.034213793  0.035427667            1 
  354000    1.1691402   -7.0714842    145.08981  0.034154851  0.035415416            1 
  355000    1.2161077   -7.1072627    145.57811  0.034173264  0.035402139            1 
  356000    1.2024102   -7.0975722     145.4983  0.034058591  0.035387875            1 
  357000    1.2101076   -7.0960767    146.54349  0.034207163  0.035373829            2 
  358000    1.2181852   -7.1066409    146.36339  0.034069691  0.035360194            1 
  359000    1.1969287   -7.1321841    146.64222  0.034039513  0.035346561            1 
  360000    1.2082342    -7.094776    147.41452  0.034123731  0.035332686            1 
  361000    1.1898006   -7.1094862    147.91681  0.034145155   0.03531927            4 
  362000    1.2083523   -7.0526395    148.18411  0.034112365  0.035305046            2 
  363000    1.1943499   -7.1311165    148.05076  0.033987778  0.035291263            1 
  364000    1.1724047    -7.085697    148.27337  0.033945369  0.035277809            3 
  365000    1.1830518   -7.1088572     148.5549  0.033916644  0.035263131            2 
  366000    1.1780753   -7.1201327    149.12277  0.033953271  0.035248243            1 
  367000    1.1521287   -7.0619367    149.16717  0.033870838  0.035233849            1 
  368000    1.1862898   -7.0925391     149.3613  0.033822758  0.035219512            3 
  369000    1.1468746   -7.1148468    149.22505  0.033700328  0.035203723            2 
  370000    1.1906078   -7.1149801    149.70074  0.033716383   0.03518649            2 
  371000    1.1961379   -7.1219081    150.12154  0.033720023  0.035168515            1 
  372000    1.1756443   -7.1152181    150.88476  0.033800349  0.035151709            1 
  373000    1.1860021   -7.0767474    151.06076  0.033749052  0.035135513            2 
  374000    1.1825947   -7.0708459    151.94894  0.033856716  0.035119894            1 
  375000    1.2133007   -7.1076689    152.53685  0.033897077  0.035105107            1 
  376000    1.2007074   -7.0831075    152.75329  0.033854895  0.035091628            2 
  377000    1.1856357   -7.1109162    152.98068  0.033815358  0.035077904            1 
  378000    1.1910704   -7.0862226    154.32063  0.034021302  0.035064352            1 
  379000    1.1969813   -7.1213142    154.15058  0.033894147  0.035051854            1 
  380000    1.1740581   -7.1356515    154.34677  0.033847976  0.035039633            2 
  381000    1.1620665   -7.1229491    154.86746  0.033873024  0.035027118            1 
  382000    1.1881904   -7.1188725    155.12396  0.033840306  0.035014836            4 
  383000    1.1932737   -7.0804796    155.63155  0.033862391  0.035002008            1 
  384000    1.1891405   -7.1043639     155.5745  0.033761827  0.034989264            1 
  385000    1.2022432   -7.1439813    156.15818  0.033800472  0.034976693            2 
  386000    1.1917378   -7.0880213    156.82565  0.033857005  0.034964005            1 
  387000    1.2054265   -7.1113236    157.33174  0.033878497  0.034950826            2 
  388000     1.203884   -7.0996389    157.48266  0.033823596  0.034937904            1 
  389000     1.184794   -7.1180414    158.59864  0.033975715    0.0349257            1 
  390000    1.1694808   -7.1115885    158.66811  0.033903441  0.034913392            1 
  391000     1.191253   -7.1233556    158.37796  0.033754893  0.034901639            2 
  392000    1.1899125   -7.1527364    159.23522  0.033851025  0.034889362            1 
  393000    1.2079419   -7.1340191    159.42094  0.033804272    0.0348767            3 
  394000    1.1841503   -7.0817737    160.06271  0.033854211  0.034864052            1 
  395000    1.2037802   -7.1691909    160.33028  0.033824953  0.034852487            1 
  396000    1.1674569   -7.1168014    160.89689  0.033858773  0.034840759            2 
  397000    1.2221278   -7.1150888    161.20058  0.033837234  0.034828869            2 
  398000    1.2036393   -7.1044697    161.38089  0.033789969  0.034817563            1 
  399000    1.1931547   -7.0747381    161.27704  0.033683593  0.034806388            3 
  400000    1.1760269   -7.1286853    162.24428  0.033800892  0.034795528            1 
  401000    1.1917532   -7.0597286    163.02537   0.03387892  0.034784857            2 
  402000    1.1669247   -7.1635491    162.55401  0.033696935  0.034773692            2 
  403000    1.1828693   -7.1043425    163.41222  0.033790781  0.034762777            3 
  404000     1.210969   -7.1298204    163.73412  0.033773539  0.034752249       -1e+20 
  405000    1.2191716   -7.0963957    164.73458  0.033896003  0.034742054            2 
  406000    1.1941848   -7.1469346    164.84042   0.03383424  0.034731752            1 
  407000    1.1927531   -7.1028875    165.56273  0.033899003  0.034721801            1 
  408000    1.2216234   -7.1366127     165.2376   0.03374951  0.034711873            1 
  409000    1.1712476   -7.1050209    166.29856  0.033883161  0.034703181            3 
  410000    1.2015418   -7.1546051    166.61095  0.033864014  0.034694872            1 
  411000    1.1844101   -7.1501567    166.61659  0.033782763  0.034685203            2 
  412000    1.1767617   -7.1451237    167.11128  0.033800826  0.034675265            1 
  413000      1.20916   -7.1613094    167.81864  0.033861711  0.034666182            1 
  414000    1.1849783   -7.1429418    167.72364  0.033760796  0.034657246            1 
  415000    1.1791196   -7.1486551    168.20507  0.033776119  0.034647596            2 
  416000    1.1774041   -7.1345339    168.42236  0.033738454  0.034637322            2 
  417000    1.1508638   -7.0792229    168.81611  0.033736233  0.034626833            1 
  418000    1.1786357    -7.148775    169.19631  0.033731322  0.034616768            1 
  419000    1.1867634   -7.0868781    169.88895  0.033788574   0.03460645            4 
  420000    1.1762793   -7.1293874    169.59353  0.033649509  0.034595207            1 
  421000    1.1819763   -7.1274336    170.17874   0.03368542  0.034584597            1 
  422000     1.185406   -7.1386511    170.55698  0.033680288  0.034575417            3 
  423000    1.1722639   -7.1879685    171.21617  0.033730531  0.034565562            1 
  424000    1.1788002   -7.1194472    171.57688  0.033721872  0.034554455            2 
  425000    1.1816467   -7.1293268    171.55801  0.033638826  0.034544374            2 
  426000    1.1839535   -7.1283969      171.793  0.033605829  0.034534243            2 
  427000    1.1755382   -7.1493265    172.74924  0.033713748  0.034524128            1 
  428000    1.1761972   -7.1175782    173.07028  0.033697484  0.034514452            4 
  429000    1.1831552   -7.1283527    173.59692  0.033721236  0.034505085            2 
  430000    1.1721785   -7.1167862    174.30667  0.033780363  0.034495496            1 
  431000    1.1704613   -7.1295609    173.64711   0.03357446  0.034485644            1 
  432000    1.2024448   -7.0988909    174.86968  0.033732577  0.034475105            2 
  433000    1.1719541   -7.1123851    174.90453   0.03366138   0.03446524            1 
  434000    1.1969474   -7.0779129    175.13496  0.033628065  0.034455207            2 
  435000     1.155625   -7.1672532    174.93146  0.033511774  0.034445032            2 
  436000    1.1679254   -7.0980844    176.32103  0.033700504  0.034435098            1 
  437000    1.1807075   -7.1067855    175.99112  0.033560473  0.034425164            1 
  438000    1.1441269   -7.0997404    176.91018  0.033658711  0.034415113            1 
  439000    1.1966522   -7.1078148    176.47508  0.033499446  0.034404749            2 
  440000    1.1892486   -7.1016683    176.79349  0.033483616  0.034394195            1 
  441000    1.2135229   -7.1263704    177.60428  0.033560899  0.034382598            1 
  442000    1.1842048   -7.1075033    177.31828  0.033431047  0.034371369            1 
  443000    1.1596123   -7.1581291    177.74821  0.033436457  0.034360507            1 
  444000    1.1720481   -7.1323756    177.43143  0.033301695   0.03434834            2 
  445000    1.1682337   -7.1345722    178.85112  0.033492719  0.034336548            2 
  446000    1.1375909   -7.0936487    179.09296  0.033462811  0.034325247            1 
  447000    1.1764785   -7.1404296    179.80318  0.033520354  0.034313845            2 
  448000    1.2024883   -7.0852115    180.17616   0.03351491  0.034302299            1 
  449000    1.1437862   -7.1371664    180.20147  0.033444964  0.034290709            1 
  450000     1.206013   -7.1392568    180.27682  0.033384596    0.0342786            1 
  451000    1.1857409   -7.1342788    179.74873  0.033212995  0.034266706            1 
  452000    1.1536845   -7.1501942    180.71808   0.03331823  0.034254427            1 
  453000    1.1861993   -7.1429018    181.39519  0.033369241   0.03424293            2 
  454000    1.1678207   -7.1743097    181.47697  0.033310751  0.034231446            2 
  455000    1.1642137   -7.1607603    182.03903  0.033340481  0.034220315            4 
  456000    1.1498608   -7.1685556    182.44475  0.033341512  0.034209029            3 
  457000    1.1669285   -7.1266883    183.00863  0.033371377  0.034197816            2 
  458000    1.1839617   -7.1309618    184.15624  0.033507321  0.034187759            2 
  459000     1.146204   -7.1515016    184.30341   0.03346104  0.034178057            1 
  460000    1.1954249   -7.1553821    184.42456  0.033410247  0.034168233            3 
  461000    1.1980436   -7.1403425     184.4565  0.033343547  0.034157867            1 
  462000    1.2039878   -7.1347927    184.98243  0.033366239  0.034147175            1 
  463000    1.1773609   -7.1212024    185.51484      0.03339  0.034136466            2 
  464000    1.1800989   -7.1359904    185.64326  0.033341102  0.034126116            1 
  465000    1.1766896   -7.1405473    186.39524  0.033404165  0.034115787            2 
  466000    1.1628398   -7.1212322    186.62231  0.033373088  0.034105959            2 
  467000    1.1795414   -7.1581053    186.87553  0.033346811  0.034096297            3 
  468000    1.1938541   -7.1450727    187.14033  0.033322708  0.034086754            1 
  469000    1.1645232   -7.1290197    187.77761  0.033364891  0.034076456            1 
  470000    1.1914175   -7.1382988    187.33883  0.033216105  0.034065693            3 
  471000    1.2066812   -7.1257809    187.83162   0.03323277  0.034054633            1 
  472000    1.1649438   -7.1264544    188.84488  0.033341257  0.034044042            1 
  473000    1.1608865   -7.1587283    189.01294  0.033300377  0.034034046            3 
  474000    1.1785718   -7.1338926    188.88684  0.033207954  0.034023886            1 
  475000    1.1800057    -7.162403    189.71633  0.033283567  0.034013666            2 
  476000    1.1596385   -7.1090291    190.31472  0.033318403  0.034003412            1 
  477000    1.1815698   -7.0936443    190.11527  0.033213709   0.03399313            1 
  478000    1.1801263   -7.1433251     190.4722   0.03320645  0.033982566            2 
  479000    1.1615043   -7.1080823    191.18289  0.033260768   0.03397259       -1e+20 
  480000    1.1617527   -7.1056704    191.91412  0.033318424  0.033962933            2 
  481000    1.1524926   -7.1060344    191.95008  0.033255385  0.033952752            2 
  482000    1.1643439   -7.1479286    192.54245  0.033288806    0.0339429            1 
  483000     1.183451   -7.1491765     193.0923  0.033314751  0.033933928            2 
  484000     1.171481   -7.0950978    193.40531  0.033299812  0.033924304            2 
  485000     1.165229   -7.1774565    193.75409  0.033291081  0.033915254            1 
  486000    1.1729357   -7.1251133    194.27202  0.033311389  0.033905848            1 
  487000    1.1782245   -7.1224795    195.35064  0.033427556  0.033897526            2 
  488000    1.1719473    -7.180028    194.64872  0.033239193  0.033889195            1 
  489000     1.161367   -7.1981652    195.25662  0.033274816  0.033880752            1 
  490000    1.1695848   -7.1412424    194.65127  0.033103958  0.033871511            3 
  491000    1.1813633   -7.1544059    195.72512  0.033218792  0.033862176            1 
  492000    1.1831887   -7.1262415    196.09596  0.033214085  0.033852325            1 
  493000    1.1692422   -7.1378368    196.65845  0.033241794  0.033843369            2 
  494000    1.1936386   -7.1364533    197.10843  0.033250411  0.033834131       -1e+20 
  495000    1.1909082    -7.111564    197.20653  0.033199753  0.033824468            2 
  496000     1.156632    -7.148329     196.8096  0.033066128  0.033814148            3 
  497000    1.1867824   -7.1477798    197.86461  0.033176493  0.033803884            1 
  498000    1.1530536    -7.210744    197.25599   0.03300803  0.033794025            2 
  499000    1.1850322   -7.1458888    198.41493  0.033135426  0.033783592            1 
  500000    1.1493167   -7.1130947    198.61811  0.033103019  0.033773831            1 
  501000    1.1777855   -7.1702208    198.33985  0.032990661  0.033763546            2 
  502000    1.1762628   -7.1597574    199.35043  0.033092701  0.033753657            2 
  503000    1.1799891   -7.1444506     199.7246  0.033088901  0.033743925            2 
  504000    1.1757102   -7.1747195    199.67403  0.033014886  0.033733871            1 
  505000    1.1650497   -7.1475074    200.99962  0.033168254  0.033724529            2 
  506000    1.1745005   -7.1616599    200.45948  0.033013748  0.033714857            1 
  507000    1.1756824   -7.1812433     200.2677   0.03291711  0.033703955            3 
  508000    1.1679197   -7.1596514    200.71167  0.032925143  0.033693237            1 
  509000    1.1570661   -7.1598994    201.48055  0.032986338  0.033682825            1 
  510000    1.1706528   -7.1207445    201.70333  0.032958061  0.033672596            5 
  511000    1.1449921   -7.1508162    201.96127  0.032935627  0.033661905            2 
  512000    1.1758007   -7.2022035    202.80591  0.033008775  0.033651383            4 
  513000    1.2014698   -7.1255716    202.89678  0.032959191  0.033640666            1 
  514000    1.1589517   -7.1973284    201.35699  0.032645427    0.0336293            3 
  515000    1.1501031   -7.1439701    203.77658  0.032973557   0.03361837            2 
  516000     1.205073   -7.1309013    203.65732  0.032890393  0.033607482            1 
  517000     1.171263   -7.1319659    203.99113  0.032880582   0.03359648            1 
  518000     1.179744   -7.2097503    203.91088  0.032804196  0.033586018            1 
  519000    1.1603183   -7.1334884    205.30326  0.032964556  0.033575165            2 
  520000    1.1545868   -7.1645725    205.53368  0.032938089  0.033564509            3 
  521000    1.1654784   -7.1678961    204.93893   0.03277974  0.033553897            1 
  522000    1.1885045   -7.1552669    205.88359  0.032867751  0.033543464            1 
  523000    1.1585599   -7.2240937    205.07318  0.032675778  0.033532048            2 
  524000    1.1808482   -7.1288034    206.17119  0.032788039  0.033521316            5 
  525000    1.1397814   -7.2267349    206.40686  0.032762994  0.033510535            5 
  526000    1.1713178    -7.176711    207.30324  0.032842718  0.033499843            2 
  527000    1.1539556   -7.1543717    207.50358  0.032812078  0.033489447            1 
  528000    1.1571387   -7.1584549    207.78972  0.032795095  0.033479027            1 
  529000    1.1875966   -7.1156905    208.35669  0.032822415  0.033468956            3 
  530000    1.1850123   -7.1698347    207.92865  0.032693185  0.033458424            3 
  531000    1.1414291   -7.1243738    208.57258  0.032732672  0.033447901            1 
  532000     1.185543    -7.169894    208.13051  0.032601897   0.03343732            1 
  533000    1.1671526   -7.1388299    209.88096  0.032814409  0.033426826            1 
  534000    1.1453382   -7.1683947    210.00549  0.032772392   0.03341645            1 
  535000    1.1783591   -7.1578235    209.76073   0.03267301  0.033405561            2 
  536000    1.1532848   -7.1292323    210.62791  0.032746876  0.033394899            1 
  537000    1.1487188   -7.1710439     211.0762  0.032755463  0.033384311            1 
  538000     1.162417   -7.1520473    210.97779  0.032679335  0.033373993            1 
  539000    1.1749574   -7.1566579    211.54396  0.032706239   0.03336349            1 
  540000    1.1796135   -7.1275942     211.5551  0.032647392  0.033352637            1 
  541000    1.1618559   -7.1558352    211.99905  0.032655429  0.033341847            1 
  542000    1.1636467   -7.1731678    212.06475  0.032605282  0.033330927            3 
  543000    1.1603073    -7.178066    212.13918  0.032556657  0.033319635            1 
  544000    1.1847699   -7.1577179    212.28752  0.032519535  0.033307968            3 
  545000    1.1743485   -7.1497942     212.9318  0.032558379  0.033296408            1 
  546000    1.1718437   -7.1535957    213.37737  0.032566754   0.03328448            2 
  547000    1.1832968    -7.172495    213.92594  0.032590789  0.033273053            2 
  548000    1.1571793   -7.1479513    213.52058  0.032469675  0.033261653            2 
  549000    1.1751196   -7.1155287     214.7125  0.032591454  0.033250031            2 
  550000    1.1736213   -7.1812316    215.44397  0.032643026  0.033238573            1 
  551000    1.1798166   -7.1445811     214.7686  0.032481639  0.033226958            2 
  552000    1.1546662   -7.1705244    214.36992  0.032362609  0.033214604            2 
  553000    1.1493534   -7.1972719    215.61426  0.032491601   0.03320325            2 
  554000    1.1390486   -7.2044555     215.4497  0.032408198  0.033191275            2 
  555000    1.1598645   -7.1464482    216.67789  0.032534217  0.033179615            1 
  556000    1.1605278   -7.1655379    216.76501   0.03248876  0.033168388            2 
  557000    1.1664408   -7.1729275    217.27206  0.032506292  0.033156783            1 
  558000    1.1798273   -7.1645152     216.8581  0.032386216  0.033145725            5 
  559000    1.1471102   -7.1818299    217.60663  0.032439868  0.033135014            1 
  560000    1.1598541   -7.1673742    217.95214  0.032433354  0.033123556            1 
  561000    1.1584654   -7.1678919    218.51957  0.032459829  0.033112539            1 
  562000    1.1574602    -7.159946    218.74521  0.032435529  0.033101729       -1e+20 
  563000    1.1916378   -7.2102415    218.57482  0.032352697  0.033090717            1 
  564000    1.1944735   -7.1747879    219.08686  0.032370989  0.033079432            1 
  565000    1.1609041   -7.1214416    220.56912  0.032532318  0.033069097            2 
  566000     1.134302   -7.1624602    219.90443  0.032376977  0.033058836            1 
  567000    1.1496914   -7.1793644    220.24862  0.032370462  0.033048294            1 
  568000    1.1722204   -7.1395169    221.64135  0.032517803  0.033037948            2 
  569000    1.1655183   -7.1465032    222.51991  0.032589325  0.033028263            3 
  570000    1.1390041   -7.1823142    222.38401  0.032512282  0.033017973            1 
  571000    1.1777866   -7.1795534    222.07414   0.03241012  0.033008372            2 
  572000    1.1623867   -7.1769753    222.66672   0.03243979  0.032998005            1 
  573000    1.1667263   -7.2018829    223.13489  0.032451264  0.032988149            2 
  574000     1.160229    -7.194731    223.97825  0.032517167   0.03297907            2 
  575000     1.143961   -7.1709923    224.52549  0.032539926  0.032970422            1 
  576000    1.1400288   -7.1800001    224.40177  0.032465533  0.032961302            2 
  577000    1.1462678   -7.2018705    225.43758  0.032558864  0.032952712            2 
  578000    1.1345482    -7.141245    226.57803   0.03266696  0.032944587            1 
  579000     1.150345   -7.2032298    225.35553   0.03243459  0.032936172            2 
  580000    1.1637807   -7.1744814    226.26028  0.032508661  0.032927811            1 
  581000    1.1580957   -7.1410394    227.76137  0.032668011  0.032920361            2 
  582000    1.1615338   -7.1847238    227.42006   0.03256301  0.032912814            2 
  583000     1.142895   -7.2145825    227.32882  0.032494114  0.032904808            1 
  584000    1.1673325   -7.2053714    227.66448   0.03248637  0.032897152            2 
  585000    1.1612164   -7.1808605    228.81635  0.032594921  0.032889456            1 
  586000     1.168401   -7.1949485     228.6683  0.032518245  0.032882154            2 
  587000    1.1471976   -7.1557836    229.65219  0.032602526   0.03287518            4 
  588000    1.1287945   -7.1361043    229.40368  0.032511859  0.032868056            4 
  589000    1.1720197   -7.2018333    230.56225  0.032620579  0.032860932            2 
  590000    1.1644492   -7.1972251    230.88874  0.032611403   0.03285412            2 
  591000    1.1615491   -7.1966328     231.5287  0.032646461  0.032847502            1 
  592000    1.1525896   -7.1610551    231.48139  0.032584656  0.032840598            1 
  593000    1.1497993   -7.2003897    231.65526   0.03255414  0.032833945            1 
  594000    1.1795361    -7.194377    231.19448  0.032434691  0.032826113            3 
  595000    1.1501697   -7.2165351    231.58571  0.032434974  0.032818177            1 
  596000    1.1684421   -7.1964757    231.96858  0.032434085  0.032810371            2 
  597000    1.1446281   -7.1945934    232.42854  0.032443962   0.03280281            2 
  598000    1.1532448   -7.1848823    232.93595  0.032460417   0.03279579            1 
  599000    1.1464724   -7.1885187    233.86243  0.032535118  0.032788654            3 
  600000    1.1736093   -7.1491697    234.25985   0.03253609  0.032781833            2 
  601000    1.1537837   -7.1546049    234.21253  0.032475393   0.03277528            1 
  602000    1.2067852   -7.1530548      234.753  0.032496263  0.032768034            2 
  603000    1.1613061   -7.1639538    235.72147  0.032576212  0.032760979            2 
  604000    1.1458584   -7.1927237    235.36323  0.032472852  0.032753801            2 
  605000      1.14645   -7.2044231    235.53339  0.032442616  0.032746441            2 
  606000    1.1460723   -7.1746708    236.19467  0.032480015  0.032739402            2 
  607000    1.1498935   -7.1583191    235.60385  0.032345393  0.032731834            1 
  608000    1.1715488   -7.1583291    236.22449   0.03237726  0.032723997            1 
  609000    1.1489682   -7.1362307    238.18397  0.032592224  0.032716624            4 
  610000    1.1379037   -7.2092573    236.29438  0.032280654   0.03270889            2 
  611000     1.161729   -7.1753811    237.54712   0.03239868  0.032700884            1 
  612000    1.1457536   -7.2225544    237.38691  0.032323926  0.032693124            1 
  613000    1.1619218   -7.1773695    238.09409  0.032367331  0.032685643            2 
  614000    1.1401404   -7.1279945     238.8919  0.032422896  0.032678054            2 
  615000    1.1512007   -7.2480233    238.13466  0.032267569  0.032670555            1 
  616000    1.1486025    -7.211882    238.70097  0.032291797  0.032662463            1 
  617000    1.1438722   -7.2116727    239.33397  0.032324955  0.032655055            1 
  618000    1.1437558   -7.1726744    238.47841  0.032157283  0.032647184            1 
  619000    1.1555252   -7.2240206    239.92627  0.032300251  0.032638897            1 
  620000    1.1495152   -7.2182379     240.3031  0.032298804  0.032631149            1 
  621000    1.1332702   -7.1761396    241.07334  0.032350153   0.03262363            1 
  622000     1.158339   -7.1862793     240.6476  0.032241104  0.032615919            3 
  623000    1.1641225   -7.1565439    242.03851  0.032375403  0.032607992            7 
  624000     1.163436   -7.1713802     241.8509  0.032298465  0.032600372            2 
  625000    1.1781362   -7.2388411    240.88441  0.032117922  0.032592535            2 
  626000    1.1448548   -7.2047822    241.85516  0.032195841  0.032584319            1 
  627000    1.1287851   -7.2478881     241.7221  0.032126808  0.032575994            1 
  628000    1.1784031   -7.2171537      243.031  0.032249336  0.032567689            2 
  629000    1.1661397   -7.1910246    242.68238  0.032151878  0.032559591            4 
  630000    1.1659973   -7.1708279    242.47427  0.032073316  0.032551117            1 
  631000    1.1233085   -7.2616797    242.76148  0.032060417   0.03254225            2 
  632000     1.145081   -7.1506172    244.18854  0.032197856  0.032533639            1 
  633000    1.1414973   -7.1579065    244.66064  0.032209141  0.032524886            1 
  634000    1.1663293   -7.1399706    245.08435  0.032214031  0.032516694            1 
  635000    1.1635157   -7.2429267    244.00645  0.032021844  0.032508241            2 
  636000    1.1363772   -7.1703181    244.97913  0.032098943  0.032499219            4 
  637000     1.170166   -7.1605907    245.80657  0.032156799  0.032490636            1 
  638000    1.1593791   -7.1926964    245.06389   0.03200939  0.032482244       -1e+20 
  639000    1.1385194   -7.2366548    245.99752  0.032081054  0.032473936            1 
  640000    1.1553562   -7.1555451    248.42353  0.032346814  0.032466182            2 
  641000    1.1640764    -7.202713     247.4326  0.032167525  0.032458759            2 
  642000    1.1567213   -7.2091363    248.01329  0.032192794  0.032451142            2 
  643000    1.1736245   -7.1983401    249.03082  0.032274601  0.032444003            3 
  644000     1.140738   -7.1418818    249.42658  0.032275696  0.032437396            1 
  645000     1.149882   -7.2124286    249.78239  0.032271627  0.032430875            3 
  646000    1.1726954   -7.2067752    249.76427  0.032219334  0.032424388            2 
  647000    1.1454535   -7.1802736    251.36524  0.032375739  0.032418097            2 
  648000    1.1604678   -7.1958094    250.87731  0.032263029  0.032411705            1 
  649000    1.1366267   -7.2376077    250.33423  0.032143583  0.032404661            1 
  650000    1.1527711   -7.2257734    251.62002  0.032258977  0.032397977            1 
  651000    1.1337514   -7.1879237    252.03788  0.032262914  0.032391265            2 
  652000    1.1281448   -7.2227309      252.218  0.032236452  0.032384674            3 
  653000    1.1377996   -7.2454175    251.96424  0.032154701  0.032378291            1 
  654000    1.1615669   -7.2713648    252.13393  0.032127158  0.032371455            1 
  655000    1.1877013   -7.2458449    252.38765  0.032110388  0.032364579            1 
  656000     1.146825   -7.1988234    253.38728  0.032188424  0.032357772            1 
  657000    1.1425077   -7.2012357    252.83511  0.032069395  0.032351034            3 
  658000    1.1344573   -7.2058194    254.00369  0.032168654  0.032344633            2 
  659000    1.1298137   -7.2234823    254.24014   0.03214974  0.032338014            1 
  660000    1.1770718    -7.198554     255.0466  0.032202854  0.032331561            2 
  661000    1.1434521    -7.195839    255.18454  0.032171525  0.032325505            2 
  662000    1.1346386   -7.1490209    255.83003  0.032204183  0.032319294            1 
  663000    1.1299667   -7.1883651    256.51269  0.032241414  0.032313294            2 
  664000    1.1521523    -7.180501    257.40656   0.03230504   0.03230748            3 
  665000    1.1693228   -7.1680626    257.46401   0.03226366  0.032301739            2 
  666000    1.1614069   -7.2676052    256.63664  0.032111692  0.032295712            1 
  667000    1.1452815    -7.225888    257.08241  0.032119242  0.032289901            1 
  668000     1.138377   -7.1933894     258.4983  0.032247792  0.032284395            2 
  669000    1.1431898    -7.230418    258.93605  0.032254117  0.032278327            1 
  670000      1.14419   -7.1790599    258.69277  0.032175717  0.032271939            2 
  671000    1.1666204   -7.2027263    258.23927  0.032071445  0.032265604            1 
  672000    1.1494809   -7.2400655     258.6968  0.032080456  0.032259086            1 
  673000    1.1544249   -7.2320978    258.83421  0.032049803  0.032252595            1 
  674000    1.1587145   -7.1905234    258.94963  0.032016522  0.032246313            2 
  675000    1.1676293   -7.1952404      259.625  0.032052469  0.032240508            3 
  676000    1.1329725   -7.2582405    260.13784  0.032068274  0.032234153            1 
  677000     1.143735     -7.22301    260.54164   0.03207061  0.032227723            1 
  678000    1.1602643   -7.1932979     260.7671   0.03205102  0.032220967            1 
  679000    1.1522557   -7.2180218    260.70777  0.031996535  0.032213927            3 
  680000    1.1381707   -7.2184023    260.77108   0.03195724  0.032206608            1 
  681000    1.1304705   -7.2184732    261.02418  0.031941285  0.032199862            2 
  682000    1.1467727   -7.2136122     262.8464  0.032117106  0.032193239            2 
  683000     1.178015   -7.2343439     262.2565  0.031998108  0.032186702            1 
  684000    1.0956686   -7.1739284    262.99758  0.032041615   0.03218014            5 
  685000    1.1310397   -7.2235335    261.84033  0.031854054  0.032173264            2 
  686000    1.1472096   -7.2030128     263.2268  0.031976044  0.032166598            1 
  687000    1.1611674   -7.2543095    262.79132  0.031876676  0.032159685            3 
  688000     1.153941   -7.2285568      263.832  0.031956396  0.032152728            1 
  689000      1.11478   -7.2238061    263.90685  0.031919068  0.032145715            1 
  690000    1.1521841   -7.1807426    265.40598  0.032053862  0.032139264            3 
  691000    1.1446305   -7.2058633    263.90395  0.031826333  0.032132534            1 
  692000    1.1502106   -7.2665663    264.03645  0.031796296  0.032125283            3 
  693000     1.150085   -7.2443119    265.46893   0.03192267  0.032118264            1 
  694000    1.1301392   -7.2174163    265.90633  0.031929194  0.032110853            1 
  695000    1.1355059   -7.2042103    266.54479  0.031959807  0.032103886            2 
  696000    1.1476588   -7.2387646    265.40997  0.031778013  0.032096571            1 
  697000    1.1192152   -7.2045594    266.31488  0.031840612  0.032088868            2 
  698000    1.1390678   -7.2374088    266.46808  0.031813286  0.032081462            1 
  699000    1.1570091    -7.192491    267.56832  0.031898941  0.032074402            3 
  700000    1.1469754    -7.232884    267.73754  0.031873517   0.03206722            1 
  701000    1.1395801   -7.2335085    267.76333  0.031831114   0.03205976            2 
  702000    1.1419048   -7.2079712    268.61228  0.031886548  0.032052409            2 
  703000    1.1423986   -7.2232775    268.37901  0.031813539   0.03204564            1 
  704000    1.1407427   -7.2142321    269.10847  0.031854696  0.032038925            1 
  705000    1.1520191   -7.2472633    268.80817  0.031774016  0.032031962            4 
  706000    1.1226889   -7.2158339    270.15068  0.031887474  0.032025167            1 
  707000    1.1496422   -7.2282369    270.39621  0.031871311  0.032018411            2 
  708000    1.1271545   -7.2225802     270.6564  0.031856921  0.032011899            2 
  709000     1.150904   -7.2422873    270.88479  0.031838833  0.032005433            1 
  710000    1.1309251   -7.1807577    272.13144  0.031940309  0.031999083            1 
  711000    1.1211265    -7.227994    271.95341   0.03187452  0.031993275            1 
  712000    1.1349841   -7.2529992    272.67178  0.031913832  0.031987292            1 
  713000     1.132905    -7.235092    272.69022  0.031871228  0.031981274            2 
  714000    1.1103794   -7.2310458    272.53544  0.031808525  0.031974937            2 
  715000    1.1660342   -7.2507072    272.24576  0.031730275  0.031968535            1 
  716000    1.1112621   -7.2131144    273.02972  0.031777202  0.031961979            1 
  717000    1.1327916   -7.2351359    274.11717  0.031859271  0.031955539            2 
  718000    1.1211547   -7.1852733    274.95748  0.031912428  0.031949368            2 
  719000    1.1367671   -7.2586227    273.87943  0.031743096  0.031942849            2 
  720000    1.1166407   -7.2018038    274.92905  0.031820492  0.031936548            1 
  721000    1.1199568   -7.2145891    274.41029  0.031716399   0.03192981            1 
  722000    1.1462061   -7.2457818     274.9839  0.031738677  0.031922626            1 
  723000    1.1303426   -7.2222599    275.53454  0.031758245  0.031915543            1 
  724000    1.1262471   -7.2567147    275.00674   0.03165363  0.031908444            1 
  725000    1.1248239    -7.248048    275.59346   0.03167741  0.031901196            2 
  726000    1.1521417    -7.208047    276.35868  0.031721612  0.031894339            1 
  727000    1.1404795    -7.224571    276.32767  0.031674424  0.031887237            1 
  728000     1.122204   -7.2553831    277.10205  0.031719556  0.031880166            3 
  729000    1.1434445   -7.2410351     277.3175  0.031700675  0.031873281            1 
  730000    1.1134258    -7.209919    277.73288  0.031704667  0.031866354            3 
  731000    1.1276542   -7.2205568    277.77426  0.031666012  0.031859677            3 
  732000    1.1577478   -7.2388418    278.28694  0.031681118   0.03185294            3 
  733000     1.134291   -7.2373934    278.14013  0.031621206  0.031845944            1 
  734000    1.1317433   -7.1982686    279.35996  0.031716616   0.03183892            1 
  735000     1.154354   -7.2465438    278.65982  0.031594084  0.031831838            2 
  736000    1.1383103   -7.2371609    279.28008  0.031621386  0.031824685            1 
  737000    1.1281692   -7.2514375    278.41064  0.031480172  0.031817387            2 
  738000    1.1452696   -7.2450202    278.77611  0.031478784  0.031809903            1 
  739000    1.1254403   -7.2600633    280.78655  0.031662894  0.031802659            1 
  740000     1.151736   -7.2202645      280.851  0.031627365  0.031795548            2 
  741000    1.1333341   -7.2133145    281.62506  0.031671734  0.031788525            1 
  742000    1.1207811   -7.2356702    281.16413  0.031577283  0.031781697            1 
  743000    1.1484029   -7.2612355    281.18934  0.031537611   0.03177478            1 
  744000     1.137265   -7.2597056    282.14687  0.031602472  0.031767845            3 
  745000    1.1539796   -7.2439325    282.65633  0.031617039  0.031760984            1 
  746000    1.1457062   -7.2119421    283.38194  0.031655712  0.031754429            1 
  747000    1.1302544   -7.2678904     281.8922  0.031447144  0.031747602            2 
  748000    1.1132268   -7.2400584    283.31823  0.031563974  0.031740782            1 
  749000    1.1362133   -7.2337172    283.19322  0.031507923  0.031734321            1 
  750000    1.1309308    -7.201954    283.78635  0.031531817  0.031727535            2 
  751000    1.1117776    -7.270748    283.13187  0.031417207  0.031720633            3 
  752000     1.128447   -7.2458566    284.58392  0.031536339   0.03171336            2 
  753000    1.1458129    -7.228506    284.61315  0.031497692  0.031706156            3 
  754000    1.1319159   -7.2619171    284.18454  0.031408547  0.031698759            1 
  755000    1.1278698   -7.2391506    284.42743  0.031393757  0.031690942            5 
  756000    1.1400331   -7.2728514    285.67352  0.031489586    0.0316833            2 
  757000      1.11562    -7.249195    284.76776  0.031348279  0.031675885            3 
  758000    1.1353497   -7.2608976    286.31575  0.031477105  0.031668393            2 
  759000    1.1194754   -7.2391933    286.29062  0.031432874   0.03166096            2 
  760000    1.1270846   -7.2483004    285.94938  0.031354099  0.031653663            2 
  761000    1.1148231   -7.2585044    285.47297  0.031260728  0.031645668            1 
  762000    1.1094463   -7.2933643    286.87483  0.031373013  0.031637734            1 
  763000    1.1326742   -7.3092534    286.04657  0.031241434  0.031630169            1 
  764000    1.1384649   -7.2229735    287.33945  0.031341563   0.03162253            4 
  765000    1.1407551   -7.2737152    287.49474  0.031317509  0.031615093            1 
  766000    1.1218621   -7.2447126    288.55272  0.031391723   0.03160764            1 
  767000    1.1405178   -7.2241053    288.23168  0.031315915  0.031600074            3 
  768000    1.1285987   -7.2449387    288.76988  0.031333537  0.031592461            1 
  769000    1.1239983   -7.2238079    289.43901  0.031365302  0.031585157            1 
  770000    1.1454093   -7.2559428    289.31576   0.03131123  0.031577698            1 
  771000    1.1040519   -7.2144166    289.57553  0.031298695  0.031569898            1 
  772000    1.1359478   -7.2391242    289.76805  0.031278934  0.031562231            2 
  773000    1.1134778   -7.2278748    290.66925  0.031335624   0.03155456            2 
  774000    1.1157188   -7.2414247    289.97853  0.031220771  0.031547055            1 
  775000    1.1510582   -7.2750967    290.54295  0.031241177  0.031539505            1 
  776000    1.1394121   -7.2305105    291.91486  0.031348245  0.031531635            2 
  777000    1.1259866   -7.2270298    291.84414  0.031300315  0.031524242            2 
  778000    1.1124087   -7.2046308    292.10485  0.031288008  0.031516947            3 
  779000    1.1250574   -7.2152775    292.74597  0.031316428  0.031509877            1 
  780000    1.1249025   -7.2690915    292.75086  0.031276801  0.031502783            1 
  781000    1.1359042    -7.204107    293.65707  0.031333447  0.031495424            1 
  782000    1.1272415   -7.2494651    293.03701  0.031227303  0.031487917            1 
  783000    1.0986526   -7.2447808    293.46921  0.031233419  0.031480329            4 
  784000    1.1129688   -7.2036082    294.69551  0.031323928  0.031473091            1 
  785000    1.1599772   -7.2436705    293.99171  0.031209311  0.031465642            3 
  786000    1.1073045    -7.257237    294.39657  0.031212529  0.031458245            1 
  787000    1.1366928   -7.2505683    295.42643  0.031281917  0.031450996            2 
  788000    1.1060153   -7.2381785    294.96321  0.031193233  0.031444086            1 
  789000    1.1264245   -7.2495713    296.26451  0.031291139  0.031436909            1 
  790000    1.1310638   -7.2174625    296.29235  0.031254467  0.031429944            2 
  791000    1.1470988   -7.2198917    297.49834  0.031342007  0.031423245            2 
  792000    1.1094307   -7.2425321     298.2055  0.031376841  0.031416636            1 
  793000    1.1237379   -7.2471875     298.2227  0.031339081  0.031410185            3 
  794000    1.1392546    -7.224548    298.67113  0.031346676  0.031403683            1 
  795000    1.1401128   -7.2499849      298.774  0.031318029  0.031397001            2 
  796000    1.1050787   -7.2609118    299.29209  0.031332924  0.031390449            2 
  797000    1.1469064   -7.3140021    298.64582  0.031226037  0.031384239            1 
  798000    1.1072075   -7.2944424     299.5114  0.031277298  0.031377748            2 
  799000    1.1097166   -7.2588525    300.59702  0.031351379  0.031371729            1 
  800000    1.1287712   -7.2627978      300.614  0.031313958  0.031365848            2 
  801000    1.1162282   -7.2650871    302.08182  0.031427572  0.031360291            1 
  802000    1.1302207    -7.272637    301.69048  0.031347723  0.031354587            1 
  803000    1.1040031   -7.2636715    302.40016  0.031382333  0.031349282            1 
  804000    1.1162806   -7.2595133    302.80406  0.031385164  0.031344235            2 
  805000    1.1133861   -7.2431024    304.13153  0.031483595  0.031339433            1 
  806000    1.1001136   -7.2170367    303.98256  0.031429131  0.031334123            1 
  807000    1.1480199   -7.2734122    303.95081  0.031386907  0.031328734            1 
  808000    1.1389698   -7.2964513    302.58076  0.031206761  0.031323396            1 
[...]
 4800000   0.48427579   -8.7888809    615.68542  0.010688983 0.0090069905            3 
 4801000   0.48041857   -8.7880158    616.78423  0.010705829 0.0090039272            2 
 4802000   0.48045826   -8.7958308    617.08779  0.010708868  0.009000868            4 
 4803000   0.48017039   -8.7899113    615.85846  0.010685309 0.0089978079            3 
 4804000   0.49043088   -8.7852696    616.55857  0.010695229 0.0089947493            2 
 4805000   0.48655758   -8.7763165     616.9201  0.010699273 0.0089916934            1 
 4806000   0.48330922   -8.7846546    616.69071   0.01069307 0.0089886363            2 
 4807000   0.46840491   -8.7898939    615.70578  0.010673771 0.0089855803            2 
 4808000   0.47817083   -8.7948468    616.41329  0.010683813 0.0089825275            2 
 4809000   0.46994589   -8.7939782     616.4616  0.010682429 0.0089794758            2 
 4810000   0.47529897   -8.7872587    615.66328  0.010666377  0.008976424            1 
 4811000   0.48289212   -8.7889484    616.52447  0.010679077 0.0089733746            5 
 4812000   0.47852481   -8.7961157    615.79855  0.010664286  0.008970327            3 
 4813000   0.48231959   -8.7876609    615.55357  0.010657829 0.0089672805            1 
 4814000   0.48935585   -8.7813782    616.67166   0.01067497 0.0089642354            1 
 4815000   0.46885197   -8.7730449    616.28431  0.010666049 0.0089611906            5 
 4816000   0.47298106   -8.7813689    615.69692   0.01065367 0.0089581466            3 
 4817000   0.48174144   -8.7826831    615.52976  0.010648567  0.008955103            2 
 4818000   0.47703275   -8.7831728    615.59332  0.010647456 0.0089520615            2 
 4819000   0.48027844   -8.7961529    615.55945  0.010644661 0.0089490222            3 
 4820000   0.47088629   -8.7917103    616.71988  0.010662515 0.0089459839            1 
 4821000    0.4787905   -8.7881973    615.54566  0.010640007 0.0089429466            6 
 4822000   0.47697959   -8.7877722     616.2932  0.010650719 0.0089399119            2 
 4823000    0.4815838   -8.7780774    615.44351  0.010633829 0.0089368792            5 
 4824000   0.49044495   -8.7780568    616.47521  0.010649447 0.0089338459            4 
 4825000   0.47060378   -8.7771356    615.80406  0.010635649 0.0089308119            2 
 4826000   0.48152397   -8.7905425    615.71371  0.010631885 0.0089277819            2 
 4827000   0.47987766   -8.7866807    616.15639  0.010637325 0.0089247513            1 
 4828000   0.47845429   -8.7761443    615.95031  0.010631564 0.0089217218            2 
 4829000    0.4847127   -8.7957425    615.80336  0.010626827 0.0089186945            2 
 4830000   0.48054925   -8.7990924    615.39141  0.010617519 0.0089156677            7 
 4831000   0.47092381   -8.7956761     615.7971  0.010622319 0.0089126435            2 
 4832000   0.47535733    -8.797435    616.27444  0.010628353 0.0089096214            2 
 4833000   0.48856639   -8.7807415    615.63938  0.010615204 0.0089065976            1 
 4834000   0.46596655   -8.7967323    615.66022  0.010613367 0.0089035754            2 
 4835000   0.47208617   -8.7874321    615.44156  0.010607404 0.0089005563            3 
 4836000   0.47396034   -8.7840767    616.18558  0.010618031 0.0088975395            4 
 4837000   0.48493805   -8.7915797    616.37898  0.010619168 0.0088945237            2 
 4838000   0.47552499     -8.78563    615.68288  0.010604983 0.0088915093            3 
 4839000   0.47649179   -8.7973103    615.77318  0.010604346 0.0088884957            3 
 4840000   0.47938902   -8.7899593    616.27161  0.010610737 0.0088854829            3 
 4841000   0.47352755   -8.7956247     615.7643  0.010599812 0.0088824738            3 
 4842000   0.47633783   -8.7749478    615.67614  0.010596106 0.0088794654            3 
 4843000   0.48280129   -8.7931992    615.61347   0.01059284 0.0088764557            3 
 4844000   0.47133909   -8.7903395    615.92846  0.010596072 0.0088734488            4 
 4845000   0.48802778   -8.7828168    615.41822  0.010585109 0.0088704437            2 
 4846000   0.47167949   -8.7987677    615.70283  0.010587819 0.0088674375            2 
 4847000   0.48676835   -8.8015001    615.91679  0.010589313  0.008864434            1 
 4848000   0.46785182    -8.801738    615.66569  0.010582812 0.0088614324            1 
 4849000   0.47343778   -8.8035132    615.28236  0.010574042 0.0088584316            1 
 4850000   0.48831736   -8.7860891    615.86518  0.010581876  0.008855434            3 
 4851000   0.47516026   -8.8093385    615.32359  0.010570391 0.0088524338            2 
 4852000    0.4723888   -8.7814843    616.36719  0.010586136 0.0088494354            3 
 4853000   0.47793315    -8.789535    615.64278  0.010571516 0.0088464379            4 
 4854000   0.46762082   -8.7944147    615.63886   0.01056927  0.008843442            2 
 4855000   0.48636388   -8.8044226    614.89142  0.010554264 0.0088404489            2 
 4856000   0.47737285   -8.7939126    616.28183  0.010575951 0.0088374563            2 
 4857000   0.46999919   -8.7882235    615.39266  0.010558518 0.0088344635            2 
 4858000   0.48309475   -8.7910371     615.5635  0.010559275 0.0088314755            2 
 4859000   0.46800308   -8.7664931    616.54749  0.010573978 0.0088284888            3 
 4860000   0.47907431   -8.8035772    615.58018  0.010555216 0.0088255005            2 
 4861000   0.46972361   -8.7884587    615.74397  0.010555852 0.0088225104            3 
 4862000   0.47456176   -8.8141619    615.66176  0.010552272 0.0088195237            2 
 4863000   0.47580777   -8.8049783    614.74403  0.010534376 0.0088165382            2 
 4864000   0.47085835   -8.8039622    615.28322  0.010541448 0.0088135586            4 
 4865000   0.47433342   -8.8159351    615.49149  0.010542848  0.008810577            3 
 4866000   0.47663511   -8.8133297    616.18223  0.010552511 0.0088075963            3 
 4867000   0.47659512   -8.8010277    615.34843  0.010536067  0.008804617            1 
 4868000   0.47177921    -8.802969    615.66116  0.010539256 0.0088016376            3 
 4869000   0.47621094   -8.8078746     615.2817  0.010530597 0.0087986602            2 
 4870000   0.47653015   -8.7986532    615.30999  0.010528918 0.0087956865            2 
 4871000   0.47420447   -8.7958168    614.66054  0.010515646 0.0087927115            1 
 4872000   0.46991611   -8.8022795    615.73442  0.010531856 0.0087897384            3 
 4873000   0.48064019   -8.8106568    615.66974  0.010528588 0.0087867636            2 
 4874000   0.46809177    -8.796093    615.24854  0.010519227 0.0087837945            2 
 4875000   0.46550728     -8.80933    616.15873  0.010532628 0.0087808266            2 
 4876000   0.47909206   -8.8067327    615.64008  0.010521604 0.0087778609            3 
 4877000   0.47886585   -8.8090392    616.32545  0.010531157 0.0087748945            1 
 4878000   0.46729319   -8.7938198    615.11937  0.010508394 0.0087719303            2 
 4879000   0.47050831   -8.7989604    616.10425  0.010523062 0.0087689652            2 
 4880000   0.46564224   -8.8098395    615.97808  0.010518751 0.0087660034            2 
 4881000   0.46511474   -8.8003026    615.21048  0.010503491 0.0087630442            2 
 4882000    0.4800685   -8.8080223    614.98087   0.01049742 0.0087600864            2 
 4883000   0.47253137   -8.8074032    615.33974  0.010501395 0.0087571254            2 
 4884000   0.46491216   -8.8039987    616.46444  0.010518435 0.0087541666            2 
 4885000   0.47184563   -8.7879576    614.72735  0.010486649 0.0087512127            2 
 4886000   0.48175092   -8.7923337    616.38729  0.010512814 0.0087482584            4 
 4887000   0.46385938   -8.8135409    616.00961  0.010504222 0.0087453058            2 
 4888000   0.46802967   -8.7993996    615.31663  0.010490259 0.0087423545            2 
 4889000   0.46385244   -8.8169804    616.17599  0.010502761 0.0087394017            1 
 4890000    0.4683356   -8.7931105    615.17163  0.010483497 0.0087364508            1 
 4891000   0.48106649   -8.8052495    616.06522  0.010496579 0.0087335004            3 
 4892000   0.47803491   -8.8041369    615.23281  0.010480254 0.0087305538            2 
 4893000   0.46254154   -8.8179591    615.53571   0.01048327 0.0087276053            1 
 4894000   0.46674137   -8.8113678    615.80049  0.010485637 0.0087246585            2 
 4895000   0.47682992    -8.791035    616.18234  0.010489996 0.0087217156            3 
 4896000   0.46837929   -8.7992198    615.49704  0.010476189 0.0087187729            4 
 4897000   0.46737849   -8.8151321      615.353  0.010471598 0.0087158329            3 
 4898000   0.46331752   -8.8053895    615.94749  0.010479575 0.0087128934            2 
 4899000   0.46701962    -8.816324    615.51805  0.010470131  0.008709957            3 
 4900000   0.46107662   -8.7975656    616.41447  0.010483239  0.008707023            2 
 4901000    0.4780967   -8.8117558    615.72955  0.010469454 0.0087040867            3 
 4902000   0.47007771   -8.8073682    616.48629  0.010480183 0.0087011539            2 
 4903000   0.47161483    -8.811428    615.20865   0.01045633 0.0086982233            2 
 4904000   0.45932707   -8.8169202    614.70292  0.010445604 0.0086952906            2 
 4905000   0.46458533   -8.8046014    615.39584  0.010455247 0.0086923602            2 
 4906000   0.47201161   -8.8130936    614.71532  0.010441557 0.0086894341            4 
 4907000   0.46778722   -8.8236211    615.13924  0.010446628 0.0086865086            2 
 4908000   0.46442934   -8.8205779    616.34543  0.010464979 0.0086835818            2 
 4909000   0.47210083   -8.7948444     615.1838  0.010443128 0.0086806569            3 
 4910000   0.47435293   -8.8083451    615.69052  0.010449602  0.008677734            4 
 4911000   0.48025383   -8.8064226    615.06259  0.010436819 0.0086748124            3 
 4912000   0.46637009   -8.7957188    616.00691  0.010450714 0.0086718914            3 
 4913000   0.46630139   -8.8108006     615.8289  0.010445568 0.0086689703            3 
 4914000   0.46941065   -8.8060009    615.48317  0.010437579 0.0086660527            1 
 4915000    0.4648266   -8.8179776    615.05178  0.010428141 0.0086631352            2 
 4916000   0.47413249   -8.8020991    615.36671  0.010431359 0.0086602202            2 
 4917000   0.46335771   -8.8207011    614.85982  0.010420646 0.0086573049            2 
 4918000   0.46413546   -8.8193678    615.80613  0.010434562 0.0086543924            2 
 4919000   0.45970664   -8.8133216    615.73113  0.010431171 0.0086514801            2 
 4920000   0.46741016   -8.8191398    616.44392  0.010441123   0.00864857            3 
 4921000   0.47009572   -8.8035091    615.81365  0.010428328 0.0086456593            3 
 4922000   0.46338343   -8.8149899    615.52947  0.010421398 0.0086427518            2 
 4923000   0.46743202   -8.8247882    615.82047  0.010424207 0.0086398437            3 
 4924000   0.46564061   -8.8089737     614.3283  0.010396837 0.0086369371            2 
 4925000   0.46799818    -8.831157    615.38566  0.010412617 0.0086340335            3 
 4926000   0.45825063   -8.8027552    613.83677  0.010384301 0.0086311282            2 
 4927000   0.46820677   -8.8402384    615.69345  0.010413596 0.0086282253            1 
 4928000   0.46092559   -8.8253925    614.59594  0.010392924 0.0086253226            2 
 4929000   0.46389727   -8.8150545    615.09718   0.01039929 0.0086224219            1 
 4930000   0.47008583   -8.8085858    615.46231  0.010403352 0.0086195228            2 
 4931000    0.4724842      -8.8117     614.3311  0.010382125 0.0086166261            2 
 4932000   0.47034172    -8.833582    615.34959  0.010397229 0.0086137298            2 
 4933000   0.47449795    -8.812868    616.01112  0.010406296 0.0086108335            2 
 4934000   0.46153185   -8.8240396    615.34506  0.010392938 0.0086079377            2 
 4935000   0.45747863   -8.8269703    614.79521  0.010381547 0.0086050433            2 
 4936000   0.45141066    -8.820618    615.86945   0.01039758 0.0086021504            1 
 4937000   0.46839298   -8.8089333    614.99837   0.01038077 0.0085992588            2 
 4938000   0.45956975   -8.8053773    614.99281  0.010378574 0.0085963721            2 
 4939000   0.45717018   -8.7948244    614.41643  0.010366748 0.0085934854            2 
 4940000   0.46419876   -8.8266953    614.74881  0.010370257 0.0085905991            3 
 4941000   0.45094956   -8.8245879    615.78619  0.010385654 0.0085877121            2 
 4942000    0.4628675   -8.8182806    614.66784  0.010364694 0.0085848268            2 
 4943000    0.4599483   -8.8075404    615.07179  0.010369408 0.0085819447            2 
 4944000   0.46337734   -8.8183407     614.9377   0.01036505 0.0085790615            2 
 4945000   0.45095572   -8.8351322    615.66783  0.010375258 0.0085761805            2 
 4946000   0.46293844   -8.8144905    614.97019  0.010361406  0.008573302            1 
 4947000   0.45966937    -8.825997    615.56555  0.010369341 0.0085704243            3 
 4948000   0.47064671   -8.8182399    615.29179  0.010362635 0.0085675459            4 
 4949000    0.4715736   -8.8289566    615.53053  0.010364561 0.0085646715            1 
 4950000   0.47337559   -8.8226887    615.00687  0.010353651 0.0085617973            2 
 4951000   0.45438547   -8.8079844      615.282  0.010356191 0.0085589239            2 
 4952000   0.45825444    -8.823848    615.97828  0.010365816 0.0085560533            3 
 4953000   0.46646461   -8.8195551    614.44156  0.010337869 0.0085531823            1 
 4954000   0.46452359   -8.8120848    614.78563   0.01034157 0.0085503103            2 
 4955000   0.45755158   -8.8137492    614.59977  0.010336357 0.0085474405            3 
 4956000   0.45460363   -8.8229591    614.40791  0.010331045  0.008544574            2 
 4957000   0.45991714   -8.8136174    614.21839  0.010325775 0.0085417086            2 
 4958000   0.45483332   -8.8306602    614.70857  0.010331931  0.008538844            2 
 4959000   0.45708427   -8.8127053    615.05416  0.010335655 0.0085359788            1 
 4960000   0.46630641    -8.812957    614.69836  0.010327593 0.0085331184            3 
 4961000   0.45919436   -8.8217049     613.9616  0.010313136 0.0085302589            2 
 4962000   0.45607641   -8.8138568    615.08564  0.010329935 0.0085273973            3 
 4963000    0.4652166   -8.8156459    614.63605  0.010320304 0.0085245388            4 
 4964000   0.46533324   -8.8194395       615.46  0.010332057 0.0085216807            3 
 4965000   0.46101931   -8.8099898    615.19389   0.01032551 0.0085188266            3 
 4966000   0.44248019   -8.8268832    616.06505   0.01033805 0.0085159708            3 
 4967000   0.45132648   -8.8434838     614.8165  0.010315021 0.0085131169            1 
 4968000    0.4620436   -8.8208384    614.98876  0.010315834 0.0085102642            3 
 4969000   0.46304329    -8.836091    614.12317  0.010299242 0.0085074146            3 
 4970000   0.45022364   -8.8365984    614.40611  0.010301913 0.0085045642            1 
 4971000   0.45802284   -8.8133899    613.94509  0.010292112 0.0085017139            3 
 4972000   0.46031649   -8.8339443    615.83068  0.010321646 0.0084988686            3 
 4973000   0.44301869   -8.8313548     614.9362  0.010304581 0.0084960227            4 
 4974000   0.46053065   -8.8371689    614.61926    0.0102972  0.008493177            2 
 4975000   0.45214007   -8.8306074    614.69303  0.010296366  0.008490333            1 
 4976000   0.45374788   -8.8348268     615.2047  0.010302865 0.0084874886            1 
 4977000   0.46324515   -8.8201667    614.78508  0.010293769 0.0084846472            3 
 4978000   0.45981114   -8.8079678    615.41164   0.01030219 0.0084818065            2 
 4979000    0.4554494   -8.8364135    615.12898   0.01029539 0.0084789679            1 
 4980000   0.45913788   -8.8312544    614.18301  0.010277493 0.0084761295            3 
 4981000   0.45819683   -8.8125486      613.905  0.010270779 0.0084732918            2 
 4982000   0.45609166   -8.8360184    615.25086  0.010291229 0.0084704567            4 
 4983000   0.44561957   -8.8238077    615.24671  0.010289095 0.0084676249            2 
 4984000   0.46278869    -8.831152    615.43949  0.010290254 0.0084647914            2 
 4985000   0.45402276   -8.8435896    614.42211  0.010271182 0.0084619605            2 
 4986000   0.45471628   -8.8243084    614.79426  0.010275342 0.0084591285            2 
 4987000   0.47706141   -8.8273263    614.82634  0.010273818 0.0084562984            2 
 4988000   0.44717734    -8.833457    614.09838  0.010259596 0.0084534685            2 
 4989000   0.44316551   -8.8349241    614.38719  0.010262364 0.0084506405            1 
 4990000   0.47398027   -8.8448077    614.57626  0.010263465 0.0084478128            3 
 4991000   0.45854771   -8.8361211    614.55842   0.01026111 0.0084449898            2 
 4992000   0.45907846   -8.8178116     614.8577  0.010264051 0.0084421664            3 
 4993000   0.44658052   -8.8303951    615.27088  0.010268891 0.0084393436            2 
 4994000   0.44798748   -8.8323026    614.91327  0.010260868 0.0084365221            8 
 4995000   0.44908573   -8.8262158    615.16401  0.010262997 0.0084337022            4 
 4996000   0.44681944   -8.8430335    614.65014  0.010252371 0.0084308828            2 
 4997000   0.45290185   -8.8385261    615.07133  0.010257343 0.0084280625            2 
 4998000    0.4619007   -8.8475668    614.96185  0.010253466 0.0084252469            2 
 4999000   0.45488456   -8.8331398    614.32523  0.010240802 0.0084224288            2 
 5000000   0.45597147   -8.8301461    614.42794  0.010240466 0.0084196145            2 
 5001000   0.44800326   -8.8377772    614.94816  0.010247087 0.0084167998            2 
 5002000   0.43864266    -8.832887    614.34423  0.010234977 0.0084139854            2 
 5003000   0.46093923   -8.8334596     614.9009  0.010242203 0.0084111736            2 
 5004000   0.45156997   -8.8322964     613.9118  0.010223684 0.0084083642            3 
 5005000   0.44936239   -8.8379315    614.73153   0.01023529 0.0084055555            2 
 5006000   0.45459162   -8.8520869     614.5187  0.010229703 0.0084027473            2 
 5007000   0.46242659   -8.8432462    614.98171  0.010235366 0.0083999412            1 
 5008000   0.45115101   -8.8432184    614.94873  0.010232773 0.0083971346            5 
 5009000   0.45325237   -8.8377814    614.56011  0.010224265 0.0083943316            2 
 5010000   0.45102635   -8.8371066    614.12559  0.010214996 0.0083915292            3 
 5011000   0.44098533   -8.8337543    615.11161  0.010229356 0.0083887265            2 
 5012000   0.44347253   -8.8387992    613.61072   0.01020236 0.0083859256            1 
Loop time of 12153.1 on 48 procs for 5000000 steps with 4000 atoms

Performance: 71093.220 tau/day, 411.419 timesteps/s
99.4% CPU use with 48 MPI tasks x no OpenMP threads

MPI task timing breakdown:
Section |  min time  |  avg time  |  max time  |%varavg| %total
---------------------------------------------------------------
Pair    | 790.83     | 846.31     | 905        | 108.6 |  6.96
Neigh   | 79.301     | 82.917     | 86.14      |  19.8 |  0.68
Comm    | 756.85     | 819.95     | 881.44     | 116.9 |  6.75
Output  | 13.995     | 14         | 14.083     |   0.3 |  0.12
Modify  | 10263      | 10284      | 10312      |  10.8 | 84.62
Other   |            | 106.1      |            |       |  0.87

Nlocal:        83.3333 ave          91 max          78 min
Histogram: 7 4 1 14 8 2 7 2 2 1
Nghost:        2114.00 ave        2135 max        2100 min
Histogram: 5 8 7 4 7 4 8 2 2 1
Neighs:        13892.5 ave       15488 max       12597 min
Histogram: 7 3 1 7 12 6 5 3 1 3
FullNghs:      27773.9 ave       30053 max       25180 min
Histogram: 1 3 3 6 7 10 6 6 2 4

Total # of neighbors = 1333149
Ave neighs/atom = 333.28725
Neighbor list builds = 267504
Dangerous builds = 1

#clear
#
#next RN
#
#jump SELF
Total wall time: 3:22:36
