
units lj                  # Use reduced LJ style units
atom_style atomic         # Uncharged point particles
atom_modify map hash      # Needed for indexing of clusters etc
                          # Used to be able to find where atoms are in relation to each other.

# Define a lattice with which to populate the simulation cell. With units
# set to 'lj' the second argument to the lattice command is the reduced
# density rho* and the spacings are multiples of that required to acheive
# that density. Also define a simulation cell called 'box' in lattice units
# and fill it with atoms. Here we're creating a box which is ten lattice
# constants in each direction.
lattice fcc 1.0 spacing 1 1 1                 # All equal sizes - gives the right reduced density.
Lattice spacing in x,y,z = 1.5874011 1.5874011 1.5874011

region box block 0 10 0 10 0 10 units lattice # Defines a region, "box", in lattice units
create_box 1 box                              # Creates a simulation box as specified above,
Created orthogonal box = (0.0000000 0.0000000 0.0000000) to (15.874011 15.874011 15.874011)
  2 by 4 by 4 MPI processor grid
                                              # with one type of atom
create_atoms 1 box                            # Creates particles on lattice points
Created 4000 atoms
  using lattice units in orthogonal box = (0.0000000 0.0000000 0.0000000) to (15.874011 15.874011 15.874011)
  create_atoms CPU = 0.003 seconds


# Set the mass of the first (and only) atom type.
mass 1 1.0

# Lennard-Jones interactions between particles, 3.5 sigma cut-off. Apply
# long range tail corrections to energy and pressure and set all coefficients
# to unity since we work in reduced units here. Note that this doesn't shift
# the potential such that it goes to zero at the cutoff. That would require
# pair_modify('shift', 'yes').
pair_style lj/cut  3.5      # non-GPU version
pair_modify tail  yes
pair_coeff 1  1  1.0  1.0   # Intearaction between 1 and 1 set with epsilon = 1 and sigma = 1

write_data data.*
System init for write_data ...
Neighbor list info ...
  update every 1 steps, delay 10 steps, check yes
  max neighbors/atom: 2000, page size: 100000
  master list distance cutoff = 3.8
  ghost atom cutoff = 3.8
  binsize = 1.9, bins = 9 9 9
  1 neighbor lists, perpetual/occasional/extra = 1 0 0
  (1) pair lj/cut, perpetual
      attributes: half, newton on
      pair build: half/bin/atomonly/newton
      stencil: half/bin/3d
      bin: standard

#############################
#   M E L T   S Y S T E M   #
#############################

velocity all create 2.4 6583654 mom yes dist gaussian # Assign velocities
                                                    # Temperature 2.4, random number seed, zero linear momentum
						                                                        # Gaussian distribution

timestep 0.002   # simulation timestep
thermo 100       # output thermodynamic data every 100 steps

# Define a fix  in this case with index 1 applied to all
# particles in the simulation. This fix is for simulations
# in the anisotropic NPT ensemble. Note that we use the MTK
# correction.
fix 1 all npt temp 2.4 2.4 0.1 iso 5.68 5.68 0.5 mtk yes tchain 5 pchain 5 # Use NPT ensemble
                                                                         # Set temperature and pressure and damping
                                                                         # Numbers of thermostats in chain and in barostat
run 1000         # run for 10000 steps
Per MPI rank memory allocation (min/avg/max) = 3.660 | 3.660 | 3.660 Mbytes
Step Temp E_pair E_mol TotEng Press Volume 
       0          2.4   -8.3859253            0   -4.7868253   -2.2405722         4000 
     100    1.2691967   -6.5422289            0   -4.6389098    5.3378653    4090.7551 
     200    1.4787625   -6.3158233            0   -4.0982341    6.0374862    4137.2558 
     300    1.5708342   -6.0123056            0   -3.6566434    5.8269752    4273.6084 
     400    1.6935755   -5.7191311            0    -3.179403    5.9540602    4395.1747 
     500    1.7875886   -5.4095267            0   -2.7288141    6.0322401    4536.9038 
     600    1.8873111   -5.1521313            0   -2.3218724    5.7297832     4702.884 
     700    2.0258918   -4.9144312            0   -1.8763532    5.9082203    4824.8495 
     800    2.1522544   -4.7292823            0   -1.5017078    5.7781683    4963.9277 
     900     2.239714   -4.5446635            0   -1.1859323    5.7477122    5090.6319 
    1000    2.3765823   -4.4738755            0  -0.90989327    5.6796077     5154.488 
Loop time of 0.257046 on 32 procs for 1000 steps with 4000 atoms

Performance: 672253.005 tau/day, 3890.353 timesteps/s
99.5% CPU use with 32 MPI tasks x no OpenMP threads

MPI task timing breakdown:
Section |  min time  |  avg time  |  max time  |%varavg| %total
---------------------------------------------------------------
Pair    | 0.13463    | 0.13909    | 0.14477    |   0.6 | 54.11
Neigh   | 0.025733   | 0.026469   | 0.027357   |   0.3 | 10.30
Comm    | 0.061153   | 0.068942   | 0.075056   |   1.2 | 26.82
Output  | 0.00019911 | 0.00020376 | 0.00026811 |   0.0 |  0.08
Modify  | 0.018649   | 0.020392   | 0.021709   |   0.7 |  7.93
Other   |            | 0.001948   |            |       |  0.76

Nlocal:        125.000 ave         138 max         116 min
Histogram: 1 2 6 7 6 8 0 1 0 1
Nghost:        1666.91 ave        1703 max        1646 min
Histogram: 3 5 7 4 5 4 1 0 2 1
Neighs:        11088.0 ave       12468 max       10095 min
Histogram: 1 2 5 8 9 2 2 1 1 1

Total # of neighbors = 354817
Ave neighs/atom = 88.704250
Neighbor list builds = 86
Dangerous builds = 20

# Equilibrate just above the melting temperature to avoid step fn in T

fix 1 all npt temp 1.25 1.25 0.1 iso 5.68 5.68 0.5 mtk yes tchain 5 pchain 5
run 1000
Per MPI rank memory allocation (min/avg/max) = 3.661 | 3.661 | 3.661 Mbytes
Step Temp E_pair E_mol TotEng Press Volume 
    1000    2.3765823   -4.4738755            0  -0.90989327    5.6796077     5154.488 
    1100    1.9625951   -4.6989107            0   -1.7557541    5.6812496    4983.8841 
    1200    1.7289901   -4.9599136            0   -2.3670769    5.8142104    4790.1519 
    1300    1.5792657   -5.2249024            0   -2.8565961    5.6289859    4660.4039 
    1400    1.4517319   -5.4215948            0   -3.2445414    5.5197346    4561.4045 
    1500     1.364265   -5.5680033            0   -3.5221174    5.5958139    4483.3542 
    1600    1.3084699   -5.6759595            0   -3.7137453    5.6057769    4426.4503 
    1700    1.2550401   -5.7394736            0   -3.8573841    5.7381181    4381.4433 
    1800    1.2507956   -5.8140506            0   -3.9383263    5.7576039    4349.7766 
    1900    1.2205858   -5.8218536            0   -3.9914327    5.7234503    4347.2659 
    2000    1.2599896   -5.8219529            0    -3.932441    5.7139167    4350.4536 
Loop time of 0.249226 on 32 procs for 1000 steps with 4000 atoms

Performance: 693346.315 tau/day, 4012.421 timesteps/s
99.7% CPU use with 32 MPI tasks x no OpenMP threads

MPI task timing breakdown:
Section |  min time  |  avg time  |  max time  |%varavg| %total
---------------------------------------------------------------
Pair    | 0.13408    | 0.13802    | 0.14521    |   0.7 | 55.38
Neigh   | 0.022618   | 0.023164   | 0.024152   |   0.2 |  9.29
Comm    | 0.057256   | 0.066586   | 0.070983   |   1.3 | 26.72
Output  | 0.00020899 | 0.00021449 | 0.00027196 |   0.0 |  0.09
Modify  | 0.01746    | 0.018979   | 0.021634   |   0.9 |  7.62
Other   |            | 0.002263   |            |       |  0.91

Nlocal:        125.000 ave         130 max         115 min
Histogram: 1 0 0 2 4 3 6 7 4 5
Nghost:        1853.16 ave        1868 max        1832 min
Histogram: 1 0 2 6 2 5 3 6 3 4
Neighs:        13129.4 ave       13744 max       12058 min
Histogram: 1 0 2 3 3 2 5 8 5 3

Total # of neighbors = 420140
Ave neighs/atom = 105.03500
Neighbor list builds = 75
Dangerous builds = 9


# Small amount of linear quench

fix 1 all npt temp 1.25 ${temp} 0.1 iso 5.68 5.68 0.5 mtk yes tchain 5 pchain 5
fix 1 all npt temp 1.25 2.11 0.1 iso 5.68 5.68 0.5 mtk yes tchain 5 pchain 5
run 2000
Per MPI rank memory allocation (min/avg/max) = 3.661 | 3.662 | 3.662 Mbytes
Step Temp E_pair E_mol TotEng Press Volume 
    2000    1.2599896   -5.8219529            0    -3.932441    5.7139167    4350.4536 
    2100    1.2873502    -5.834141            0   -3.9035984    5.7261335    4345.2489 
    2200    1.2832922   -5.7608901            0    -3.836433    5.6750085    4377.1412 
    2300    1.3568744   -5.7516488            0   -3.7168461    5.6665171    4388.9976 
    2400    1.3771626   -5.6783859            0   -3.6131584    5.6641216    4423.8105 
    2500    1.4391424   -5.6610631            0   -3.5028891    5.5586038    4445.2029 
    2600    1.4661569   -5.5775624            0   -3.3788768    5.6552468    4476.3345 
    2700     1.511553   -5.5502799            0   -3.2835172    5.4198103    4515.5965 
    2800    1.5206519   -5.4261433            0   -3.1457358    5.7109699    4543.7102 
    2900    1.5805658   -5.3732703            0   -3.0030144      5.74379    4574.6169 
    3000    1.6281343   -5.3141576            0   -2.8725667    5.6569558    4614.0119 
    3100    1.6680354   -5.2516681            0   -2.7502405    5.6982302    4644.5895 
    3200    1.7313592   -5.1961657            0   -2.5997762    5.7223146    4680.9795 
    3300    1.7623332   -5.1083668            0   -2.4655278    5.8880375    4707.0367 
    3400     1.775165   -5.0365447            0   -2.3744629    5.6921324    4768.2856 
    3500    1.8703907   -5.0189921            0   -2.2141074    5.7711272    4776.6909 
    3600     1.888494   -4.9379089            0   -2.1058761    5.7823846    4821.8849 
    3700    1.9192303   -4.8929509            0   -2.0148252    5.4645719    4887.1582 
    3800    1.9891422   -4.8265183            0   -1.8435509    5.8357455    4884.2931 
    3900    2.0417331    -4.781467            0   -1.7196329      5.76331    4927.3526 
    4000    2.0734667    -4.707869            0   -1.5984465    5.7885664    4964.6542 
Loop time of 0.502254 on 32 procs for 2000 steps with 4000 atoms

Performance: 688098.319 tau/day, 3982.050 timesteps/s
99.7% CPU use with 32 MPI tasks x no OpenMP threads

MPI task timing breakdown:
Section |  min time  |  avg time  |  max time  |%varavg| %total
---------------------------------------------------------------
Pair    | 0.2665     | 0.27321    | 0.28065    |   0.7 | 54.40
Neigh   | 0.0462     | 0.047237   | 0.048376   |   0.3 |  9.41
Comm    | 0.12595    | 0.13666    | 0.14614    |   1.4 | 27.21
Output  | 0.00039748 | 0.00040371 | 0.0005304  |   0.0 |  0.08
Modify  | 0.036218   | 0.040234   | 0.044096   |   1.1 |  8.01
Other   |            | 0.004504   |            |       |  0.90

Nlocal:        125.000 ave         132 max         118 min
Histogram: 5 1 3 3 1 7 1 5 2 4
Nghost:        1709.41 ave        1732 max        1678 min
Histogram: 2 1 2 2 4 4 5 7 2 3
Neighs:        11493.3 ave       12393 max       10586 min
Histogram: 1 6 2 2 4 6 3 2 4 2

Total # of neighbors = 367785
Ave neighs/atom = 91.946250
Neighbor list builds = 151
Dangerous builds = 1

#############################
# F R E E Z E  S Y S T E M  #
#############################

# Define solid atoms. This closely follows ten Wolde  Ruiz-Montero and Frenkel  Faraday Discuss  1996  104  93-110
# Compute components of the per-atom q6 vector
compute q6 all orientorder/atom degrees 1 6 components 6 nnn NULL cutoff 1.3 # compute the Q6 parameter.
                                                                             # Use all neighbours within 1.3 unit cell.

# get number of connections
compute coord_number all coord/atom orientorder q6 0.5

# An atom is solid if it has 8 or more connections (of a possible 14)
variable is_solid atom c_coord_number>=8
group solid dynamic all var is_solid    # Must be dynamic to update
dynamic group solid defined

# do clustering
compute cluster solid cluster/atom 1.3 # Create a cluster where all atoms within are solid and max 1.3 units from another member

# define chunks one chunk per cluster
compute clus_chunks solid chunk/atom c_cluster nchunk every compress yes  # Says which atoms are in which chunk

# count the size of each chunk
compute size_chunks solid property/chunk clus_chunks count


# Find the maximum entry in the vector of chunk sizes
variable max_n equal max(c_size_chunks)


# Thermo style which includes this variable
thermo_style custom step temp pe vol v_max_n

thermo ${N}  # Print the thermo information every 100 steps
thermo 100  

# Reset the npt fix at a lower temperature (below freezing)
fix 1  all npt temp  ${temp} ${temp}  0.1  iso  5.68  5.68  0.5  mtk yes tchain  5  pchain  5
fix 1  all npt temp  2.11 ${temp}  0.1  iso  5.68  5.68  0.5  mtk yes tchain  5  pchain  5
fix 1  all npt temp  2.11 2.11  0.1  iso  5.68  5.68  0.5  mtk yes tchain  5  pchain  5

dump dmp2 all dcd ${N} traj_${rand}.dcd
dump dmp2 all dcd 100 traj_${rand}.dcd
dump dmp2 all dcd 100 traj_462431.dcd


# fix rnuntil all halt ${N} v_max_n >= 3980 error soft message no   # Stop when solidified


run 100000 # 5000000  # Run for this many steps
Neighbor list info ...
  update every 1 steps, delay 10 steps, check yes
  max neighbors/atom: 2000, page size: 100000
  master list distance cutoff = 3.8
  ghost atom cutoff = 3.8
  binsize = 1.9, bins = 9 9 9
  4 neighbor lists, perpetual/occasional/extra = 1 3 0
  (1) pair lj/cut, perpetual
      attributes: half, newton on
      pair build: half/bin/atomonly/newton
      stencil: half/bin/3d
      bin: standard
  (2) compute orientorder/atom, occasional
      attributes: full, newton on
      pair build: full/bin/atomonly
      stencil: full/bin/3d
      bin: standard
  (3) compute coord/atom, occasional
      attributes: full, newton on
      pair build: full/bin/atomonly
      stencil: full/bin/3d
      bin: standard
  (4) compute cluster/atom, occasional
      attributes: full, newton on
      pair build: full/bin/atomonly
      stencil: full/bin/3d
      bin: standard
Per MPI rank memory allocation (min/avg/max) = 9.389 | 9.395 | 9.399 Mbytes
Step Temp PotEng Volume v_max_n 
    4000    2.0734667    -4.707869    4964.6542            1 
    4100    2.1170241    -4.687358    5000.1256            5 
    4200    2.1231655   -4.6731576    4978.8333       -1e+20 
    4300    2.0638268   -4.6895791    5004.7463       -1e+20 
    4400    2.1287692   -4.6826431    4986.9165            1 
    4500    2.1439064   -4.6809031    5029.7902       -1e+20 
    4600    2.1038544   -4.6322123    5020.4886       -1e+20 
    4700    2.1149957    -4.670923    5012.4146            1 
    4800    2.0930335   -4.6855068    5012.9201            1 
    4900    2.1216589   -4.6352057    5013.9256       -1e+20 
    5000    2.0936091    -4.660543    4997.1573            1 
    5100    2.1079604   -4.6897223    4982.2637       -1e+20 
    5200    2.1465791    -4.722199    5013.2412            1 
    5300    2.0832287   -4.6576375    5010.7573       -1e+20 
    5400    2.1278631   -4.6228804    4986.9758            1 
    5500    2.0671412   -4.6665702    5002.7024            1 
    5600    2.1282976   -4.6933469    4987.2524            2 
    5700    2.0372835   -4.7061492    4979.1832            1 
    5800     2.098763   -4.6996442    5007.0721            1 
    5900    2.1406658   -4.6548193     5007.917            1 
    6000    2.1006965   -4.6693252    5013.9402            1 
    6100    2.1289655   -4.6946113    4986.1969            1 
    6200    2.1048385   -4.7041069    4994.1527       -1e+20 
    6300    2.0731939   -4.6236895    5001.1681            1 
    6400    2.1421869   -4.6519042    5018.2326            1 
    6500    2.1025381   -4.6813547    4993.1525            1 
    6600    2.0829485    -4.664341    4989.9657            1 
    6700    2.1521571   -4.6735559    5011.9315            1 
    6800    2.1150814   -4.7037495    4990.9816            1 
    6900    2.1090026   -4.6871004    5015.1187            2 
    7000    2.1331011   -4.6777795     5002.921            1 
    7100    2.1061008   -4.6924606    4998.3569            1 
    7200    2.1102609    -4.668403    5007.0251       -1e+20 
    7300     2.136623   -4.6408032    5013.2916            1 
    7400    2.0846218   -4.6819788    5003.3591            1 
    7500    2.1018938   -4.7090716    4969.5853            2 
    7600    2.1201647   -4.6732586    4997.1434            1 
    7700    2.1103814   -4.6987792    5026.3965            1 
    7800    2.1449635   -4.6777083    4990.3054            1 
    7900    2.0947789   -4.6667657     5022.421            1 
    8000    2.0948508   -4.6444081    5031.3744            1 
    8100    2.1379507   -4.6197957    5013.3145            2 
    8200    2.0737805   -4.6419631    5024.4464            1 
    8300    2.1188412   -4.6959482    5012.6897            1 
    8400    2.1239284   -4.6671856    4993.4464            1 
    8500     2.101191   -4.6484066    5017.2829            1 
    8600    2.0890226   -4.6637093    5013.7566            2 
    8700    2.1236704   -4.6458778     4991.249            1 
    8800    2.1152232   -4.6590222    5036.5255       -1e+20 
    8900    2.0803164   -4.6740552    4984.4687            1 
    9000     2.157421   -4.7277584    4999.5069            1 
    9100    2.1148802    -4.732511    5023.3771            1 
    9200     2.124767   -4.6469846    4993.7314            1 
    9300     2.048949   -4.6944896    5015.6838            1 
    9400    2.1230813   -4.6998083    4961.5412            2 
    9500    2.0900241   -4.6194342    5022.2211            1 
    9600    2.0954131   -4.6307438    5027.9671            1 
    9700    2.1223222   -4.6673353    4982.2791            1 
    9800    2.1033858   -4.7187918    5015.4168            1 
    9900     2.133356   -4.6944085    5010.7718            1 
   10000    2.0966823   -4.6508447    4989.3738            1 
   10100    2.0913884   -4.6181585    5055.2572            1 
   10200    2.1361656   -4.6512873     5022.928            1 
   10300    2.0936399   -4.6522389    4990.6642            1 
   10400    2.0682263   -4.6318545    4996.8097            1 
   10500    2.1582597    -4.691493    5015.6687            1 
   10600    2.1283905   -4.7157537    5005.8164       -1e+20 
   10700    2.1148851   -4.7041279    5004.6941            1 
   10800    2.1486244   -4.7173238    4986.5401            1 
   10900    2.1040181   -4.7097215      5015.39            1 
   11000    2.1539483   -4.6716147    5005.3625       -1e+20 
   11100    2.0916308   -4.6520518    5005.3665            1 
   11200    2.1235227   -4.6730115    4991.6286            1 
   11300    2.0914744    -4.708381    4970.0351            1 
   11400    2.0900954   -4.6910416    5001.0682            1 
   11500    2.0967156   -4.6281655    5026.2909            2 
   11600    2.1396757   -4.6296659    5031.8528            1 
   11700    2.1253883    -4.710077    4988.5687       -1e+20 
   11800    2.0781354   -4.7102562    5004.9802            2 
   11900    2.1302959   -4.6567786    5018.0966            1 
   12000    2.1243189    -4.690656    5029.2075            1 
   12100    2.1005879   -4.7253994     4978.497       -1e+20 
   12200    2.1352702   -4.6902716    4993.3882            1 
   12300    2.1337223   -4.6561816    5042.1775            1 
   12400    2.0951743   -4.6702831    5016.3447            1 
   12500    2.1306532   -4.6539074    4985.9533            1 
   12600      2.04429    -4.671881    4995.7807       -1e+20 
   12700    2.1202904   -4.7100487    4995.2469            1 
   12800    2.0977762   -4.6399982    5000.5566            1 
   12900    2.1174025   -4.6033946    4991.8939            1 
   13000    2.0943038   -4.7033718    5053.5634            2 
   13100    2.1398286   -4.6814864    4968.5956            1 
   13200    2.1201358   -4.6991818    4993.7375       -1e+20 
   13300    2.0533716   -4.6468952    5008.0517       -1e+20 
   13400    2.1271355   -4.6172114    4984.5134            1 
   13500     2.121916   -4.6892332    5026.8248            1 
   13600    2.1067968    -4.670235    5013.0972            1 
   13700    2.1137025   -4.6524311     4998.788            1 
   13800    2.1296361   -4.6878854    5038.6619            1 
   13900    2.0895321   -4.7057752     4981.016            1 
   14000     2.080657   -4.7084074    4980.6417            1 
   14100    2.1174112   -4.6958648    4983.2993            1 
   14200    2.1604247   -4.6973686    5015.6598       -1e+20 
   14300    2.0796448   -4.6554652    5029.5653            1 
   14400    2.1214118   -4.6690486    4941.0944            1 
   14500    2.0838729   -4.7339709    5023.8028       -1e+20 
   14600    2.1302857   -4.7056741    4989.2356            1 
   14700    2.1107972   -4.6919167    4979.6792            2 
   14800    2.1295646   -4.6597791    5040.6629            1 
   14900    2.1005393    -4.649739    5017.3785            2 
   15000    2.1274415   -4.7151046    4979.6661            1 
   15100     2.076339    -4.697205    5005.1762            1 
   15200    2.1328636   -4.6666205    5009.2126       -1e+20 
   15300    2.0975116   -4.6893354    4995.4403            1 
   15400    2.1699178   -4.6897232    5021.2327            1 
   15500    2.1150513   -4.6779988    4988.7789            1 
   15600    2.1076318   -4.7165779    5003.8732            2 
   15700    2.1066284   -4.6463173    4988.3623            1 
   15800     2.077074   -4.6570755    4995.2115            2 
   15900    2.1044437    -4.679202    5001.8881            1 
   16000    2.1242422   -4.6747908    5001.2626            1 
   16100    2.1194805   -4.7018672    5019.3466            1 
   16200    2.1351182   -4.6972804    4980.7829            1 
   16300     2.067696   -4.7129305    5003.9983            1 
   16400     2.117104   -4.6563684    5004.0967            1 
   16500    2.1300705    -4.706733    4967.9937       -1e+20 
   16600    2.0851051   -4.7356163    4978.3944            1 
   16700    2.1317532   -4.7072979    4979.7413            1 
   16800    2.1379253   -4.6429384    5029.1549       -1e+20 
   16900    2.1259915   -4.6817359     5049.479            1 
   17000    2.1268457   -4.6819679    5001.7876       -1e+20 
   17100     2.087886   -4.7014214    4977.0791            1 
   17200    2.0980974    -4.674187    5005.1047            1 
   17300    2.1211955   -4.6736886    5041.5209            1 
   17400    2.0962122   -4.6367194     5007.896            1 
   17500    2.1234282   -4.6386658    4992.7887            1 
   17600     2.088452   -4.6233536    5066.1607            1 
   17700    2.1253454   -4.6450559    5003.4217            1 
   17800    2.1210004   -4.6905019    4979.4775            3 
   17900      2.07687   -4.7249579    5014.5474            1 
   18000    2.1403844   -4.6599145    4977.9145            1 
   18100    2.0813128   -4.6830026    4991.2929            1 
   18200     2.058932   -4.7099858    4990.0645            4 
   18300     2.124982   -4.6876798     4947.167            1 
   18400    2.0913031   -4.6973259    5005.4361       -1e+20 
   18500      2.09631   -4.6431441    5020.4635            1 
   18600    2.1280053   -4.6892461    4995.1104            1 
   18700    2.0970445   -4.7287445     4977.381            1 
   18800    2.0956973   -4.6980983    4986.9356            1 
   18900    2.1531768   -4.6958918    4994.0491            1 
   19000    2.1151189   -4.6598257    5025.8213            1 
   19100    2.0713788   -4.6809314    4996.2129            1 
   19200    2.1497669    -4.680428    5021.9501            1 
   19300    2.1231551   -4.6875883    4997.2242            1 
   19400    2.0332912   -4.6942183     5000.902            1 
   19500    2.1454328   -4.6960452    4960.2185            1 
   19600     2.084613   -4.6636859    5000.2055            1 
   19700    2.0970412     -4.65836    4998.6539       -1e+20 
   19800    2.1298674   -4.6186828    5013.9788            1 
   19900    2.0828406   -4.6570594    5019.5675            1 
   20000    2.1490844   -4.7293084    5000.1539            1 
   20100    2.0840096   -4.7203429    4970.5328            1 
   20200      2.09553   -4.6835284     4997.041            1 
   20300    2.1154147   -4.6681405    4999.3301            1 
   20400    2.0990758   -4.6765892    4990.6505            2 
   20500     2.087406   -4.7089209    4985.0175            1 
   20600    2.1096391   -4.6682294    5008.4851       -1e+20 
   20700    2.1597564   -4.6964114    5008.6267       -1e+20 
   20800    2.1083006   -4.7363596    4982.6334            2 
   20900     2.134143   -4.6838176    4973.4691            1 
   21000    2.0780591   -4.6776136    5045.0988            1 
   21100    2.1253541   -4.6460795    5008.0093            1 
   21200    2.1371514   -4.6628769    4983.5765       -1e+20 
   21300    2.0853139   -4.7127457    5003.0331            1 
   21400    2.1337337   -4.6941621    4984.3265            1 
   21500    2.1411154   -4.6911241    5006.1109            1 
   21600    2.0770617   -4.6831538    5012.6742            1 
   21700    2.0895856   -4.6403361    5005.9753            1 
   21800     2.085326     -4.62005     5002.404            1 
   21900    2.1603861   -4.6233614    5033.8996            1 
   22000     2.118951   -4.6519231    5030.4997            1 
   22100    2.0983562    -4.679726    5010.6082            1 
   22200    2.1600526   -4.6379444    5014.6946            1 
   22300    2.1141174   -4.6778358     5023.194            1 
   22400    2.1008152   -4.7163723    4977.6735            1 
   22500     2.148082   -4.7328856    4974.5932            1 
   22600    2.0909301   -4.7311488    5012.3733            4 
   22700    2.1229227   -4.6551086    5013.0343            1 
   22800    2.1566594    -4.712098    5008.1325       -1e+20 
   22900    2.0666051   -4.6864002    4992.0842            1 
   23000    2.1226324   -4.6788422    4971.8315            1 
   23100     2.077984   -4.6773946    5007.3218       -1e+20 
   23200    2.0971155   -4.6327575    5027.0659       -1e+20 
   23300    2.1202736   -4.6788828    4985.9307            1 
   23400    2.0881998   -4.7207184    4984.1509            1 
   23500    2.1131412   -4.6756497    5015.4708            1 
   23600    2.0886141   -4.6640232    4993.2441            1 
   23700    2.1022703   -4.7015315    4982.9584            1 
   23800    2.1121151   -4.6681933    5023.8817       -1e+20 
   23900    2.0520176   -4.6474589    4984.2244            1 
   24000     2.068464   -4.6406663    5007.8786            1 
   24100    2.1408365   -4.6981119    5001.0413       -1e+20 
   24200    2.0866355   -4.7016917    4992.4775       -1e+20 
   24300    2.1194943   -4.6596252    5035.9773       -1e+20 
   24400    2.1436926   -4.6611963    4991.6972            1 
   24500    2.0814068    -4.670775    4990.7369            1 
   24600    2.1289854   -4.6709382    5023.5233            1 
   24700    2.1460981   -4.6653631    5009.9645            3 
   24800    2.0973343   -4.6680539    5028.4692       -1e+20 
   24900    2.1234239   -4.6156037    5026.4758       -1e+20 
   25000    2.1487802   -4.6281029    5007.8139            2 
   25100    2.0902247   -4.6963401      4996.91            1 
   25200    2.1099587    -4.652298    5005.7515            1 
   25300    2.1341155   -4.6715111    5048.8421            1 
   25400     2.128447   -4.6885404    4997.4068       -1e+20 
   25500    2.1025444   -4.6785205    5000.6705            1 
   25600    2.1166586   -4.6207557    5014.0177            1 
   25700    2.1066406    -4.594126    5040.7996            1 
   25800    2.0987402   -4.6717242    4996.6191            1 
   25900    2.0664575   -4.6638539    4978.8506            1 
   26000    2.0978006   -4.6308028    5030.6839            3 
   26100    2.1321718    -4.622052     5007.675            1 
   26200    2.0899957   -4.7026154    5020.9432            1 
   26300    2.1358009   -4.6554978    4998.2945            1 
   26400    2.0805227    -4.647733    5014.9472            1 
   26500    2.1210985   -4.6452538     5021.287            1 
   26600    2.1088626   -4.6592453     4984.793       -1e+20 
   26700    2.0894754   -4.6813171    5027.1872            1 
   26800    2.1769919   -4.6551894    5011.4601            1 
   26900    2.0731422   -4.6337429    5011.2229       -1e+20 
   27000    2.1069663   -4.6931742    4996.2917            2 
   27100     2.125423   -4.7134607    4976.8236            1 
   27200    2.1069736   -4.6803839    5037.0954            1 
   27300    2.1404481   -4.6218383    5027.7558            1 
   27400    2.0882457   -4.6210289    5019.9543            1 
   27500    2.0827289   -4.7365633    5014.7107            2 
   27600    2.1316452   -4.6641192    4970.0857       -1e+20 
   27700    2.0856897   -4.6558626    5005.8688            1 
   27800    2.0872711   -4.6713764    5019.3144            1 
   27900    2.1580727   -4.6281084    5003.9947            2 
   28000    2.0972519   -4.6657876    5006.6747            1 
   28100    2.1164607   -4.6580305    5032.5524            1 
   28200    2.1150131   -4.6496212    5024.8609            1 
   28300     2.101509   -4.6539004    4996.0772            1 
   28400    2.1289648   -4.6630058    5019.0431            1 
   28500    2.1012969   -4.6408153    5036.9874            1 
   28600    2.1036648   -4.6530186    4981.2359            1 
   28700    2.0960743   -4.7340247    4986.1792            1 
   28800    2.1489855   -4.7292705    5005.6167            1 
   28900    2.1178937   -4.6761752    5010.4472       -1e+20 
   29000    2.1150092   -4.6733922    5026.7524            2 
   29100    2.1749387   -4.6884413    5013.9236            1 
   29200    2.0981888   -4.6855722    5006.1807            1 
   29300      2.13408   -4.6459803    4999.6912            1 
   29400     2.080743   -4.7192464    5010.2287            1 
   29500    2.1271394   -4.7495852    4972.6199       -1e+20 
   29600    2.1078093   -4.6847888    4984.1381            1 
   29700    2.1136621   -4.7247853    5017.7466            1 
   29800      2.14031   -4.6661352    5003.8009            1 
   29900    2.0592752   -4.6317421    4990.2693       -1e+20 
   30000    2.1312686   -4.6843503    5004.8529            1 
   30100    2.0735664   -4.6339954    4996.9104            1 
   30200    2.0974761   -4.6696514    4998.3208            2 
   30300    2.0819074   -4.6083254    5030.2149       -1e+20 
   30400    2.1236653   -4.6452608     5020.314            2 
   30500    2.0752534   -4.6580566     5002.114            1 
   30600    2.1221599   -4.6328915    5015.1889       -1e+20 
   30700    2.0943015   -4.6740683    4996.1168            1 
   30800    2.0948865   -4.6877308    5004.7975            1 
   30900    2.1334316   -4.6444264    4998.2268            2 
   31000    2.0817943   -4.6842224    5010.2575       -1e+20 
   31100    2.1614602   -4.7125592      5003.33       -1e+20 
   31200    2.0850405     -4.72227    5013.0781            1 
   31300    2.1356866   -4.6838193    5013.7659            2 
   31400    2.1161205   -4.6287862    5008.3762            1 
   31500    2.0735326   -4.6768054    5043.6592       -1e+20 
   31600    2.1206704    -4.691249     4967.596       -1e+20 
   31700    2.1296285   -4.7330963    4970.0604            1 
   31800    2.0897602   -4.7011045    5004.3479            1 
   31900    2.1470471   -4.6817305    4993.6683            1 
   32000    2.1139966    -4.673961    5030.7409            1 
   32100    2.1139044   -4.6558879    5023.9012            1 
   32200    2.1276034   -4.6707361    4962.5005            1 
   32300    2.0817936   -4.7265358    5015.9616            1 
   32400    2.1397792   -4.7157067    5001.3629            1 
   32500    2.0931765   -4.6779037    4989.9288            1 
   32600    2.1388875    -4.658477    5032.4762       -1e+20 
   32700    2.1227868   -4.6860795    4981.1801            1 
   32800    2.1117857   -4.7175495     5015.042            2 
   32900    2.1315155    -4.676113    5012.7447       -1e+20 
   33000    2.1015238   -4.6441438    4999.9644            1 
   33100    2.0967153   -4.6789785    5024.1638            1 
   33200    2.1102914   -4.6210474    5036.8918            1 
   33300     2.183231   -4.6137751    5038.9357            1 
   33400    2.1209413   -4.6516389    5028.9521            2 
   33500    2.1053541   -4.6526048    5020.2965            1 
   33600    2.1108362   -4.6978237    4996.2803            1 
   33700    2.0913895   -4.6857248    4987.4984            1 
   33800    2.1441379   -4.7180895    5006.6015       -1e+20 
   33900    2.1090059   -4.7262067    4987.8871            2 
   34000    2.0864696   -4.6572682    5021.4984            2 
   34100      2.15891   -4.6921035    4994.5455            1 
   34200    2.0903463     -4.68788    5031.1873            1 
   34300    2.1351523   -4.6971841    4986.1032            1 
   34400    2.1196553   -4.7004754    5000.8501            1 
   34500    2.1401795   -4.6515322     5036.547            1 
   34600    2.1133272   -4.6387043    5050.5836       -1e+20 
   34700    2.1082746   -4.6421872    4980.7421       -1e+20 
   34800    2.1142436   -4.6753397    4996.5932            1 
   34900    2.1279952   -4.6831529    5030.2541            1 
   35000    2.0747551   -4.6431488     5021.796            1 
   35100    2.1131783   -4.6612715     4982.811            1 
   35200    2.0976591   -4.6323017    5041.4033            1 
   35300    2.1276879   -4.6385901    5027.1475            1 
   35400    2.1437665   -4.6687981     5028.806            1 
   35500    2.0792146   -4.6841922     5024.472            1 
   35600    2.1781291   -4.7069045    4992.1205            1 
   35700     2.079176   -4.6957144    5010.5996            1 
   35800    2.1296968   -4.6392127    5013.9837       -1e+20 
   35900    2.1492042   -4.6549133    5036.7696            1 
   36000    2.1095556   -4.6908718    4995.5841            1 
   36100    2.0917913   -4.6669308    5008.1608            1 
   36200    2.1367845   -4.6537059    5031.8186            1 
   36300    2.1004534   -4.6552425    4987.6621            1 
   36400    2.1081218   -4.7145033    4998.7951            1 
   36500    2.1480502   -4.6544054     5020.251            1 
   36600    2.0921791   -4.6112462    5011.7978       -1e+20 
   36700    2.0792849   -4.6724338    5005.7023            1 
   36800    2.1018375   -4.7189438    4961.1923       -1e+20 
   36900    2.0889053   -4.6442804    5046.1733            1 
   37000    2.1497231   -4.6492986    5034.3011       -1e+20 
   37100    2.1053671   -4.6314318     5042.673            1 
   37200    2.0961794   -4.6723927    5035.4261            1 
   37300    2.1843216   -4.6823302    5006.4991            1 
   37400    2.0913791   -4.6576387    5015.7089            1 
   37500    2.1144025   -4.6504756    5024.1175            1 
   37600    2.1483449   -4.6497906    5012.4777       -1e+20 
   37700    2.1106094   -4.7140117    4979.8593            1 
   37800     2.110115   -4.7106917    5007.3762            2 
   37900    2.1309173    -4.682786    5020.1107       -1e+20 
   38000    2.1049018    -4.658709    5015.7127            1 
   38100    2.1139067   -4.7021153    5008.1294            1 
   38200    2.1307459   -4.6606618    5037.5926            1 
   38300    2.0948306   -4.5952604     5013.059       -1e+20 
   38400    2.0970588   -4.6768234    5008.5296            1 
   38500    2.1100519   -4.6468499    5020.9335            2 
   38600    2.0826816   -4.6589219    4980.7186            2 
   38700    2.1178911   -4.6790318    5030.2566       -1e+20 
   38800    2.1044858   -4.6403578    5022.0882            1 
   38900    2.1471707   -4.6640047    5010.1411       -1e+20 
   39000    2.0865632   -4.6827047    5028.1053            1 
   39100    2.1547633   -4.6642508     5010.652            1 
   39200    2.0917743   -4.6783725    5026.7976            2 
   39300    2.0934355   -4.6699962    4990.3186            1 
   39400    2.1438299   -4.6889263    4976.7564            1 
   39500    2.0895121    -4.696973    5041.0981            1 
   39600    2.1601892   -4.7068206    5006.0507       -1e+20 
   39700    2.0667129   -4.7097961    4997.0257            2 
   39800    2.1243373   -4.7369169    4968.4555            1 
   39900    2.1181779   -4.6609675    5025.0796            1 
   40000     2.124273   -4.7129183    4983.9122            1 
   40100    2.0920975   -4.6595774     4995.633            1 
   40200    2.1504937   -4.6559274    5028.3168            2 
   40300    2.1214488   -4.6303007    5024.8616            1 
   40400    2.0778052   -4.6214043    4997.7152            1 
   40500    2.1083434   -4.6611128    5010.4863            1 
   40600    2.1171153   -4.6594142    5040.6267            1 
   40700    2.1171635   -4.6887116    4971.6376       -1e+20 
   40800    2.0651474   -4.6709264    5002.1572            1 
   40900    2.1082557   -4.6783776     5016.562            1 
   41000    2.1480971   -4.6867525    4988.3742            1 
   41100    2.1002867   -4.7050834    5017.6537            1 
   41200     2.072174   -4.6022664    5025.4535       -1e+20 
   41300    2.1392428   -4.6338952    4976.9899            1 
   41400    2.0818768   -4.7069961    4997.0067            1 
   41500    2.1233608   -4.6862357    5005.5281            2 
   41600    2.1264776   -4.6707005    5002.0905            1 
   41700    2.0730491   -4.6881808    4998.9737            1 
   41800     2.160842   -4.7119366    4977.4631            1 
   41900    2.0822306   -4.6281981    5054.4756       -1e+20 
   42000    2.1137589   -4.6235665     5012.925            1 
   42100    2.1112677   -4.6632196    5002.5871            1 
   42200     2.061679   -4.7128914    5002.7876            2 
   42300    2.1292926    -4.706139    4983.1727            1 
   42400    2.0941827   -4.6772379    5017.4235            1 
   42500    2.1410988   -4.6654443    5036.1545            3 
   42600    2.1204075   -4.6836837    4995.1565            1 
   42700    2.1035419   -4.6957753    5003.2731            1 
   42800    2.1413133   -4.6878361    5036.4332            1 
   42900    2.1046574   -4.6435981    4991.5129            1 
   43000    2.0629513    -4.679993     5010.959            1 
   43100    2.1538648   -4.7159407    5008.3462       -1e+20 
   43200    2.1058745   -4.6501097    4989.2207       -1e+20 
   43300    2.1070405   -4.6858599    4991.6417            1 
   43400    2.1069294   -4.7042934    4994.2811       -1e+20 
   43500    2.0959139   -4.6635153    4999.6438       -1e+20 
   43600    2.1239538   -4.6315582    5023.5741       -1e+20 
   43700    2.1105686   -4.6735499     5024.081            1 
   43800    2.0994426   -4.6624293    4995.3326       -1e+20 
   43900    2.1376212   -4.6709903    5013.5791       -1e+20 
   44000    2.1189944   -4.7376491    5013.6814            1 
   44100    2.1332955   -4.6843328     4975.825       -1e+20 
   44200    2.1114991   -4.6362722    5039.7581            1 
   44300    2.0988427   -4.6116041    5029.0602       -1e+20 
   44400     2.135558   -4.6639527     4986.628            1 
   44500    2.0958152   -4.7173712    5036.9579       -1e+20 
   44600     2.138427   -4.6525234    4995.3791            1 
   44700     2.057885   -4.5869911    5010.8869       -1e+20 
   44800    2.1451947   -4.6599366    5044.2129       -1e+20 
   44900    2.0808425   -4.6443046     5008.583            1 
   45000    2.1054372   -4.6241101    4997.6586            1 
   45100    2.0469825    -4.638139    5033.2671            1 
   45200    2.1440995   -4.6465021    4983.5757       -1e+20 
   45300    2.1055036   -4.7145318    5032.8742            3 
   45400    2.1395813   -4.6971236    5018.1167       -1e+20 
   45500    2.1316812   -4.6897269    4967.1731            1 
   45600    2.1306554   -4.7237132    5010.0483            1 
   45700    2.0919199   -4.7136172    4996.1722            1 
   45800    2.1473749   -4.6805143    4990.3291            1 
   45900    2.1050937   -4.6868674    5011.6011            2 
   46000    2.0500404   -4.6509996    4999.5514            1 
   46100    2.1144476   -4.6294291    4997.2193            1 
   46200     2.066001   -4.6601323    4988.3506       -1e+20 
   46300    2.0850541   -4.6880447    4974.2995       -1e+20 
   46400     2.121442   -4.6893634    5011.3871       -1e+20 
   46500    2.1138167   -4.6868969    5011.3786            1 
   46600    2.1194807   -4.7070283    4991.2887            1 
   46700    2.1144723   -4.6594975    4997.5799       -1e+20 
   46800    2.1228302   -4.6300956    5036.3919            1 
   46900    2.0816667   -4.6444022    5044.2833       -1e+20 
   47000     2.106634   -4.7022611    4980.6747            1 
   47100    2.1028735   -4.6842263    4967.1305       -1e+20 
   47200    2.0949652   -4.7032803    5042.6667       -1e+20 
   47300    2.1216907   -4.6415349    5016.2845            1 
   47400    2.1300818   -4.6593941    5003.1801       -1e+20 
   47500    2.0941736   -4.7282915    5009.0978       -1e+20 
   47600    2.1509183   -4.6800403     5011.015            1 
   47700    2.1396551   -4.6507331    5009.5621            1 
   47800    2.0722571   -4.6807324    5001.6033            1 
   47900    2.0983255   -4.6577737    4996.2318            2 
   48000    2.1348194   -4.6365495    5028.6951            1 
   48100     2.112449   -4.6678128    5016.3621            1 
   48200     2.090722   -4.6383338     5025.893       -1e+20 
   48300    2.1392233   -4.6515622    5014.9915            1 
   48400    2.0843606   -4.6684675    4975.5586            1 
   48500    2.0798304   -4.6741918    4974.5878            1 
   48600    2.1023616   -4.6612961    5004.7072            1 
   48700    2.0884945   -4.6719313    4987.0862       -1e+20 
   48800    2.0901453   -4.6829036    5025.7241            1 
   48900    2.1683723   -4.6558288    5015.2654            1 
   49000    2.1080803   -4.6868839    5025.7779       -1e+20 
   49100    2.0845194     -4.66407    4990.4096       -1e+20 
   49200     2.125415   -4.6623089    4995.9842            1 
   49300    2.0946897   -4.6411091    5049.9442            1 
   49400     2.175484   -4.6266205    5033.8484       -1e+20 
   49500    2.0830711   -4.6118593    5014.1816            1 
   49600    2.1414861   -4.6498653    5044.3608            1 
   49700     2.135173    -4.655859    5052.7633       -1e+20 
   49800    2.1344854   -4.6881945    4990.5266            1 
   49900    2.0863619   -4.6711641     4992.993            1 
   50000    2.1254993   -4.6847552    5014.5645            1 
   50100    2.0842529   -4.7098694    4974.7019       -1e+20 
   50200    2.0949036   -4.7157954    4961.0582            1 
   50300    2.0699494   -4.6288798     5055.748            1 
   50400    2.1610898   -4.6594704    5017.5093       -1e+20 
   50500    2.0951505   -4.6530281    5024.0336       -1e+20 
   50600    2.1080318   -4.6705801    4987.9485            1 
   50700    2.1206348   -4.6907004    4995.6928            1 
   50800    2.1165781   -4.6932375    5015.1311            2 
   50900    2.1257348   -4.6966385    5007.0197            1 
   51000    2.1329858   -4.6555355    5012.1482            1 
   51100    2.0821026   -4.6389513    5014.6549            1 
   51200    2.1087886    -4.663166     5003.027            2 
   51300    2.1291726   -4.6913513    5002.1119            1 
   51400    2.0941333    -4.676548     5004.479            1 
   51500     2.103302   -4.6723538    5017.4255            1 
   51600     2.122425   -4.5982432    5007.8098            1 
   51700    2.1126663    -4.658289    5016.8888       -1e+20 
   51800     2.097109   -4.6548739    5006.2468            1 
   51900    2.0913451   -4.6772791     4988.361            1 
   52000     2.100493   -4.6728429    5025.8283            2 
   52100    2.1587114   -4.6245786    5001.2606            1 
   52200    2.0878334   -4.6628831    5018.2142            1 
   52300    2.1221177   -4.6603376    5019.5538            1 
   52400    2.1483816   -4.6587388    5009.5861            1 
   52500    2.0606197   -4.6518822    5008.7705            1 
   52600    2.1337412   -4.6769368    5005.7884            1 
   52700    2.0913534   -4.6839943    4996.5003            1 
   52800    2.1519205   -4.6743669    5007.0866       -1e+20 
   52900    2.1208377   -4.6758469     5042.816            1 
   53000    2.1017274   -4.7375566    5004.2782            1 
   53100     2.122593   -4.6879588    4980.6248            1 
   53200      2.10078   -4.6365001    5020.4143            1 
   53300    2.0953208   -4.6659865     5003.407            1 
   53400    2.1675423   -4.7292968    4981.9009            3 
   53500    2.0590731   -4.7193401    4999.5653            1 
   53600    2.1244192   -4.7139081    4966.4064            1 
   53700    2.1268892   -4.6739008    5001.9798            1 
   53800    2.0700913   -4.6342276    5034.4039            1 
   53900    2.1632645   -4.6500871    5000.9797            1 
   54000    2.1061062   -4.6895741    4993.7542            1 
   54100    2.0718946   -4.7136817    4991.3585            1 
   54200     2.138297   -4.6513798    4985.0333            2 
   54300     2.086445   -4.6521512    5039.4019            1 
   54400     2.099151   -4.6083519    5029.1598            1 
   54500    2.1350578   -4.6210164    5005.3788       -1e+20 
   54600     2.059869   -4.6776699    5053.7242       -1e+20 
   54700    2.1591484   -4.6730785    4983.7533            1 
   54800    2.1250415   -4.6838186    4980.4954            2 
   54900    2.0497722   -4.6787738    5014.7452            1 
   55000    2.1551864   -4.6733633    4993.7809            1 
   55100    2.1148175   -4.7005112     4990.675            1 
   55200    2.0387721    -4.715027    4973.6128            1 
   55300    2.0792701   -4.6763624    4997.4202            1 
   55400    2.0999999   -4.6632043    4990.8293            1 
   55500     2.152889   -4.6755665    5007.2797            1 
   55600    2.1123532   -4.7097188    5013.3321            1 
   55700     2.129824   -4.7012944    5001.0091       -1e+20 
   55800    2.1483654   -4.6525731    5014.6023       -1e+20 
   55900    2.1186317   -4.6939465    5011.6794            1 
   56000    2.1218239    -4.733834    4983.3828            1 
   56100    2.1279757   -4.6423575    4979.7724            2 
   56200    2.0878846   -4.6757917    5010.7719       -1e+20 
   56300    2.1235084   -4.6853691     4987.848            1 
   56400    2.1011699   -4.7196937    4988.3024            1 
   56500    2.1127928     -4.70386    5012.7074       -1e+20 
   56600    2.1296986   -4.6122245    5014.9227            1 
   56700    2.0511085   -4.6411324    5030.8811            1 
   56800    2.1141282   -4.6808033    4970.4189       -1e+20 
   56900    2.0855065   -4.5919499    5044.2465            1 
   57000     2.122513   -4.6091037      5005.32            1 
   57100    2.1081065   -4.6517765    5031.6849            2 
   57200    2.0641153   -4.6536325    4992.9129            1 
   57300    2.1576049   -4.6858913    4966.5876            1 
   57400    2.0487056   -4.7135308    5030.0003            1 
   57500    2.1142203    -4.662008    4965.9466            2 
   57600    2.1080978    -4.679962    4983.7813       -1e+20 
   57700     2.111053   -4.7407354    5010.9557       -1e+20 
   57800    2.1074627   -4.6897656    4965.2651            1 
   57900    2.1471968   -4.6838261    5015.0666       -1e+20 
   58000     2.103162   -4.7361089    5007.9958            1 
   58100    2.1189575   -4.6556221    4988.3497            1 
   58200    2.0941607   -4.6291675    5014.3599            1 
   58300    2.1152661   -4.6586301    5023.2336            1 
   58400    2.1308098   -4.6702241    5017.9566            1 
   58500    2.1076583   -4.7066671     4981.563            2 
   58600    2.0224659   -4.7157563    4979.6285            1 
   58700    2.1278787   -4.7235755      4952.81            1 
   58800    2.1030965   -4.6713204    4969.5486            1 
   58900    2.0922631    -4.682967    5026.6399            1 
   59000    2.1476362   -4.6403009    5007.1586            2 
   59100    2.0819723    -4.654002    5010.3845            1 
   59200    2.0932629   -4.7275832    4981.0617            1 
   59300    2.1279548   -4.6824286    4996.2577            1 
   59400    2.0899016   -4.6549793    5009.8974            1 
   59500    2.0989864    -4.644418    5000.7282            1 
   59600    2.1407479   -4.6433122    4992.7432            3 
   59700    2.0527474   -4.6769875    5026.9235       -1e+20 
   59800    2.1208562   -4.6400808    4999.7175            2 
   59900    2.1113536   -4.6483905    5016.8374            1 
   60000     2.074555   -4.6142335    5056.4477            2 
   60100    2.1366977   -4.6761474     4957.708            1 
   60200     2.053043   -4.7208176    5009.7361       -1e+20 
   60300     2.109199   -4.6800919    5000.4657            2 
   60400    2.1223045   -4.6512219    4988.4221            2 
   60500    2.0988033   -4.7130284    5010.5226            1 
   60600    2.1214376   -4.6997921    4998.6695            2 
   60700    2.1171999    -4.714136    4981.1761       -1e+20 
   60800    2.1113272   -4.6949188    5002.3895            1 
   60900    2.1302204   -4.7166701    5000.4858            1 
   61000    2.1252153   -4.6733306    4985.3164            1 
   61100    2.0551612   -4.6734041    5025.3866            1 
   61200    2.1614055   -4.6633648    4977.6996            1 
   61300    2.0970271   -4.7109527    4993.4024            2 
   61400    2.1445513   -4.7135242    5008.7444            1 
   61500    2.1434907    -4.632385    5022.7633            1 
   61600     2.093995   -4.6486483    4995.9939       -1e+20 
   61700    2.1184929   -4.6372011    5029.6608       -1e+20 
   61800    2.0935639   -4.6249987     5029.906            1 
   61900    2.1050651   -4.6724997     5001.784            2 
   62000    2.1348758    -4.703974    5004.3143            1 
   62100    2.1083802   -4.7328199    4982.5053            2 
   62200    2.1449696   -4.6959231    4994.4243            1 
   62300    2.0975462   -4.6469667    5010.2866       -1e+20 
   62400    2.0830654   -4.7112325    4985.2942            1 
   62500    2.1331196   -4.6986647    5006.6161       -1e+20 
   62600    2.1213043   -4.6566446    5036.3794            1 
   62700    2.1078487   -4.6628562    5017.7484            1 
   62800    2.1322349   -4.7036797     4983.572            1 
   62900    2.0532252   -4.6547729    4999.4949            1 
   63000    2.1593346   -4.7025939    5001.8549            1 
   63100    2.1024053   -4.6748023    5017.2011            3 
   63200    2.0430982   -4.6907789     4997.789       -1e+20 
   63300    2.0898298    -4.636341    5002.6975            1 
   63400    2.1510108    -4.679106    4993.8685            1 
   63500    2.0584657   -4.7030446    5022.6164            1 
   63600    2.1311877   -4.6692542    5006.7385       -1e+20 
   63700    2.1323678   -4.6457386    5012.9965       -1e+20 
   63800    2.0949829   -4.6344975    5067.9957            1 
   63900    2.0901387   -4.6468796    4974.1446       -1e+20 
   64000    2.1025801   -4.6909685    4983.4721            1 
   64100    2.0668204   -4.6305909    5015.7144            1 
   64200    2.1737364   -4.6744335    5005.1405       -1e+20 
   64300     2.115756   -4.6626127    5005.0479       -1e+20 
   64400     2.047859   -4.6683319    5003.6625            1 
   64500    2.1199814   -4.6573293    4989.9591            1 
   64600      2.08466   -4.6352887    4994.1741            2 
   64700    2.0987441   -4.6965438    5028.3904       -1e+20 
   64800    2.1140701   -4.6318566    5018.2393            1 
   64900    2.1720138   -4.6638187     5019.039            1 
   65000    2.0592731   -4.6331226    5043.2227            1 
   65100    2.1414846   -4.6646071    4989.9429            1 
   65200    2.0825209   -4.6838083    4995.3035            2 
   65300    2.1134734   -4.6852862    5021.8628            1 
   65400    2.1347666   -4.6287392    5007.0867            1 
   65500    2.0838386   -4.6496706    5013.3777       -1e+20 
   65600    2.1167882   -4.6791407     5015.528            1 
   65700    2.1119235   -4.6675257    4991.2474            1 
   65800    2.0813015   -4.6919036    5004.4848            1 
   65900    2.1098647   -4.6356029    5007.9917            2 
   66000    2.1436121   -4.6921058    4996.6252            1 
   66100    2.0686906   -4.7164799    5008.9504            1 
   66200    2.1311027   -4.6890743    4976.8396       -1e+20 
   66300    2.1056711   -4.6812846     5029.649       -1e+20 
   66400    2.1238711   -4.7530115    5005.7109            1 
   66500    2.1426233   -4.7079762    4966.9105       -1e+20 
   66600    2.0951487   -4.6975289    5014.2649       -1e+20 
   66700    2.0890867   -4.6456435    4985.2198            1 
   66800    2.1165712   -4.7164752    4972.1857       -1e+20 
   66900    2.0675526   -4.7038419    5000.2246            1 
   67000    2.1417693   -4.6726521    4998.2046       -1e+20 
   67100    2.1151012   -4.6674111    5019.1265            1 
   67200    2.0750732   -4.6925983    4982.1639            2 
   67300    2.1266107   -4.6727446    5007.3165       -1e+20 
   67400    2.0828358   -4.6494374    5032.2984            1 
   67500    2.1739061   -4.6559917    5024.6197       -1e+20 
   67600    2.1205997   -4.6526119    5032.6792       -1e+20 
   67700     2.075839   -4.6978171     5021.146       -1e+20 
   67800    2.1328601   -4.7041497    4988.1483            2 
   67900    2.1223965   -4.6346008    5015.8898            1 
   68000    2.1129997    -4.620921    5050.9872            2 
   68100    2.1351749   -4.7111405    4990.7411            1 
   68200    2.0817539   -4.6818863    5001.5355            2 
   68300    2.1556661   -4.7000545    5012.8718            2 
   68400    2.0828304   -4.6840398    4983.1454            1 
   68500    2.1082481   -4.6598194    5034.8481            1 
   68600    2.1292077   -4.6296077    5021.6881            1 
   68700    2.1110939   -4.6842721    4988.3038            1 
   68800    2.0669961   -4.6749367    4986.8544            1 
   68900    2.1557696   -4.6876697    4999.1074            1 
   69000    2.0967859   -4.6594487    5003.3637            2 
   69100    2.0610332   -4.6844888    4996.4452            1 
   69200     2.146243   -4.6602847    5005.4428            1 
   69300    2.1026555    -4.699286    5014.8606       -1e+20 
   69400    2.1191065   -4.7016535    4999.5623            1 
   69500    2.1178118   -4.6768124    4985.5813            1 
   69600    2.0977746   -4.6987647    5003.2104       -1e+20 
   69700    2.1108085   -4.6125723    5011.8836            1 
   69800    2.0871002   -4.6638368    5009.9583            1 
   69900    2.1086986   -4.7617637    4988.8837            1 
   70000    2.0833981   -4.7294577    4960.3586            1 
   70100    2.0863541   -4.6584847    5019.9599            1 
   70200    2.1075474   -4.6334216    5007.7358            1 
   70300    2.1282795   -4.6469111    5029.7516            1 
   70400    2.0834181   -4.6627561      5054.96            1 
   70500    2.1367124   -4.6097048     4978.678            1 
   70600    2.1058711   -4.7173586    5002.6443            1 
   70700    2.1041562   -4.7118093    4996.1293            1 
   70800    2.1268289   -4.6781346     4980.135       -1e+20 
   70900    2.0605323   -4.6410542    5012.6737            1 
   71000    2.1573294   -4.6421669    4997.3917            1 
   71100    2.0849283   -4.6421087    5011.7912            1 
   71200    2.0926192   -4.6435326    5029.0973            1 
   71300    2.1370322   -4.6134085     5029.931            1 
   71400    2.1129157    -4.702449    4998.9871            2 
   71500    2.0838307   -4.7027094    5002.9587            1 
   71600    2.1492757   -4.6845065    4998.5093            1 
   71700    2.0832946   -4.6536572    5009.0051       -1e+20 
   71800    2.0981498    -4.715137    4991.7882       -1e+20 
   71900    2.1308567   -4.6744619    4999.5876            1 
   72000     2.111468   -4.6408916    5029.0132            1 
   72100    2.1217839   -4.6826458    5029.2164            1 
   72200    2.1133791   -4.6278145    4974.1009            1 
   72300    2.1241203   -4.6338117    5073.0392       -1e+20 
   72400    2.1399456    -4.653697    5024.4446       -1e+20 
   72500    2.0929496   -4.6318765    5003.2721            1 
   72600    2.1152045   -4.6441611    5011.9258            1 
   72700    2.0843941   -4.6274644    5033.3577       -1e+20 
   72800    2.1442298   -4.6774162    5000.4714            1 
   72900    2.0860717   -4.6943003    5042.7114            1 
   73000    2.1776782   -4.6823054    5001.8186            1 
   73100    2.1187251    -4.699903    4978.2401            1 
   73200    2.0985726   -4.7619473    4980.3097            1 
   73300    2.0537238   -4.7404883    4935.2372            1 
   73400    2.0863723   -4.7010641    4988.7111       -1e+20 
   73500    2.1013089   -4.6708623    4988.4074       -1e+20 
   73600    2.1296142   -4.6465493    5001.4272            1 
   73700    2.0815831    -4.611742    5042.1629       -1e+20 
   73800    2.0665159    -4.649803    5013.4861            1 
   73900    2.1597851   -4.6481457    5008.1974            1 
   74000    2.1396869   -4.7365241    5020.7379       -1e+20 
   74100    2.1130115   -4.7066555    5006.2504            1 
   74200     2.120423   -4.6197202    5019.3407            1 
   74300    2.1005461   -4.6807194    5025.8772            1 
   74400    2.1576265   -4.6738101     5017.525            3 
   74500    2.1250753   -4.7011101    5036.7553            1 
   74600     2.091737   -4.6884933     4969.686            1 
   74700    2.1090744   -4.6814962    5000.6147            1 
   74800    2.0915078    -4.650668    5013.9379            2 
   74900    2.1733597   -4.6152898    5017.8166            1 
   75000    2.0949091   -4.6392918    5055.5278       -1e+20 
   75100    2.0862776   -4.6680871    4996.0126            1 
   75200    2.1447598   -4.6985748    4971.8851       -1e+20 
   75300    2.0562723   -4.6890324    5026.0112            1 
   75400    2.1275081    -4.658427    4997.3183       -1e+20 
   75500    2.0852608   -4.6337402    4996.8378            1 
   75600    2.1141429   -4.6363372    5030.6468            1 
   75700    2.1100666   -4.7066068    4996.4021            1 
   75800    2.0690562   -4.7735263    4990.0185            1 
   75900    2.1509871   -4.7345829    4976.2364            1 
   76000    2.0916272   -4.6784867    4980.7857            1 
   76100    2.0944516   -4.6543928    5022.5698            1 
   76200     2.126845   -4.6404018     5007.388            2 
   76300    2.1070691   -4.5805153     5063.797       -1e+20 
   76400    2.1748406   -4.6484964    5052.0432       -1e+20 
   76500    2.1180012   -4.6789599    5012.5606            1 
   76600    2.0765713   -4.6569518    4993.4448            1 
   76700    2.1386173   -4.6555136     5008.938            1 
   76800    2.1358315   -4.7320556    5009.6097       -1e+20 
   76900    2.0881938   -4.6866051    4988.5601            1 
   77000    2.1311623   -4.6631856    4992.3624            1 
   77100    2.0972598   -4.6849079    5017.7815            1 
   77200    2.0693744   -4.6810178    4978.3698            1 
   77300    2.1247607   -4.6366665     5007.949            1 
   77400    2.1381847   -4.6343101    5031.8877            1 
   77500    2.0855979   -4.6830892    5022.7195            2 
   77600    2.0831122   -4.6136612     5002.327            1 
   77700    2.1513731   -4.6289303     5037.419            1 
   77800    2.0998678   -4.6285034    5052.2739            1 
   77900    2.1176312   -4.6499982    5023.1297       -1e+20 
   78000    2.0820537   -4.6547708     5007.724            1 
   78100    2.1150645    -4.645822    5018.3681            1 
   78200    2.1128385   -4.7008578    4986.2625            1 
   78300    2.0793201   -4.6693105    5002.6137            2 
   78400    2.1328557   -4.6830118    4999.0169            1 
   78500    2.0751957   -4.6426173    5020.0044            1 
   78600     2.163078    -4.705349    5035.9139       -1e+20 
   78700    2.0904704   -4.6900757     4989.678            1 
   78800    2.1262406   -4.6544906    4968.2454            1 
   78900    2.1361689   -4.6329612    5057.3868       -1e+20 
   79000    2.1078558    -4.604422      5042.84            1 
   79100    2.1519098   -4.6879926    4995.1053            1 
   79200    2.0942678   -4.7138299    5006.1658            1 
   79300    2.1585552   -4.6961699    5017.2165            1 
   79400    2.1272067   -4.6904896    5010.1443       -1e+20 
   79500    2.1591021    -4.698281    5023.1558            1 
   79600    2.1012897   -4.7061557    5017.5134            1 
   79700    2.1201044   -4.6899437     4976.849            1 
   79800    2.0918894   -4.6867079    4993.2905            2 
   79900     2.104123   -4.6974187    5002.0801            1 
   80000    2.1342192   -4.6859571    4969.5781            2 
   80100    2.0662452   -4.7043485    5017.6841            1 
   80200    2.1140063    -4.639114    5009.2355            1 
   80300    2.1623815   -4.7036401    5041.0096       -1e+20 
   80400    2.1042284    -4.681289     5001.562            1 
   80500    2.1096149   -4.6755841    4993.6972            1 
   80600    2.1441009   -4.6659025     5029.348            1 
   80700    2.1103303   -4.6822359    5004.5487            1 
   80800     2.090429    -4.668552    4985.8388            1 
   80900    2.1582633   -4.6541755    4996.4458       -1e+20 
   81000    2.0806519   -4.6704342    5028.5189            1 
   81100    2.1456639   -4.7194664    4994.4609            1 
   81200    2.1042451    -4.687791    5004.8632       -1e+20 
   81300    2.0890153   -4.6720998    5016.7161            1 
   81400    2.1816418   -4.6408408    4989.6132            2 
   81500    2.0556336   -4.6402409     5024.623            1 
   81600     2.112165    -4.685574     5010.153            1 
   81700     2.122643   -4.6985394    4983.8585            1 
   81800    2.1305416   -4.6447925    5024.4579            1 
   81900    2.0868118   -4.6311547    5015.9682       -1e+20 
   82000    2.1130728   -4.7100706    4990.9863            1 
   82100    2.1421394   -4.6506297    5027.7753            1 
   82200    2.1027795   -4.6663126     5002.605       -1e+20 
   82300    2.0911251   -4.6838444    4997.5695            1 
   82400    2.1549283    -4.687107    5004.5002            2 
   82500    2.0945737   -4.6820944    4996.6469            1 
   82600    2.1246291   -4.7032777    5005.1614            2 
   82700    2.1221586   -4.6160284     5038.924            1 
   82800    2.1101758   -4.6451574    5016.2389       -1e+20 
   82900    2.1165304   -4.7252296    4967.2571            1 
   83000    2.1004919   -4.6976667    5031.8034       -1e+20 
   83100    2.1375437   -4.6534314      5004.32            1 
   83200    2.1159995   -4.6953507    5015.6171            2 
   83300    2.1337338   -4.6507271    5072.0795            1 
   83400    2.1278994   -4.6053872    5000.9099            1 
   83500    2.1081011   -4.6963655    4985.7917            1 
   83600    2.0601084   -4.6980648    4970.2754            1 
   83700    2.0822993   -4.7399889    4939.8481            1 
   83800    2.0885732   -4.7100173    5000.4532            1 
   83900    2.1254129   -4.6544107    5001.6779            1 
   84000    2.1097998   -4.6598216    5002.3657            1 
   84100    2.0797814   -4.6849432    4996.5356            1 
   84200    2.1258421   -4.6691175    4978.7362            1 
   84300    2.0678099   -4.6059846    5066.6475            1 
   84400    2.1426559   -4.6283507    5014.4041            1 
   84500    2.1193198   -4.6908246    5019.5991            2 
   84600    2.0700433   -4.7106469    5004.3434            1 
   84700    2.1157976   -4.6600809    4969.5963            1 
   84800    2.0781643   -4.6768794    5015.8791            1 
   84900    2.1306942   -4.6681755     4987.339       -1e+20 
   85000    2.0982082   -4.6681061    4988.0951            1 
   85100    2.1445287   -4.6654613    5047.8274            1 
   85200    2.1425498   -4.6673473    5011.6511       -1e+20 
   85300    2.0913535   -4.6671404    5017.8631       -1e+20 
   85400    2.1522795   -4.6635379    5029.1588            1 
   85500    2.1504693   -4.5896933     5058.461       -1e+20 
   85600    2.1207457   -4.6471919    4999.0075            1 
   85700     2.084496   -4.6825207    5003.1345            1 
   85800    2.1340131   -4.6683782    5030.7889            1 
   85900    2.1196358   -4.6364827    5003.8373            1 
   86000    2.0826322     -4.69889     5000.022            1 
   86100    2.1522994   -4.6880551    5000.2809            1 
   86200    2.0996768   -4.6099081    5044.6842            1 
   86300    2.1021421   -4.6022864    5026.6273       -1e+20 
   86400    2.1314152   -4.6011148    5012.9794            1 
   86500    2.1005429   -4.6969822    5029.3698            1 
   86600    2.1008395    -4.645081    5014.6376       -1e+20 
   86700    2.1441883   -4.6057252    5019.6156            1 
   86800    2.0946058   -4.6756027    5042.5933       -1e+20 
   86900    2.1153203   -4.7034975    4990.7274            3 
   87000    2.1037694   -4.6528218    4990.3625       -1e+20 
   87100    2.1179501   -4.6819598    5030.3833            1 
   87200    2.1536729   -4.6333344    5027.6482            1 
   87300    2.1249609   -4.6470512     4992.013            1 
   87400     2.091607   -4.7114707    5012.0163            1 
   87500    2.1287964   -4.6555127    5005.0607            1 
   87600    2.1224265   -4.6581911    5039.0924            1 
   87700     2.072561     -4.67549    5003.4446            1 
   87800    2.1276223   -4.7079937    4979.6241            1 
   87900    2.0579405   -4.6964037    4976.1442            1 
   88000    2.1285491   -4.7417746     4976.191       -1e+20 
   88100    2.1388999   -4.6913725     5020.708            1 
   88200     2.140059   -4.6911159    5009.7356       -1e+20 
   88300    2.0784988   -4.6923017    4996.9935            1 
   88400    2.1165792   -4.6171398    4994.8817            1 
   88500    2.0845882   -4.6279769    5032.2109            1 
   88600    2.1488424   -4.6467477    5043.7192            1 
   88700    2.1586099   -4.7321108    5008.2692            1 
   88800    2.0591038    -4.656636    5004.5217            1 
   88900    2.1689083   -4.6720798    4987.1309            3 
   89000    2.1104266   -4.6865586     5027.436            1 
   89100    2.0827609   -4.6835311    4985.9631       -1e+20 
   89200    2.1310435   -4.7217377    4962.8399       -1e+20 
   89300    2.0950897   -4.6596439    5004.4802            1 
   89400     2.110182   -4.6550114    5019.3338            1 
   89500    2.1193159   -4.6265381    5032.2238            1 
   89600     2.127873   -4.6893138    5040.4063            1 
   89700    2.1397603   -4.6178582    5015.7505            1 
   89800     2.062469   -4.6588133    5051.1041            1 
   89900    2.1370087   -4.6391319    4977.1503            1 
   90000    2.0914097   -4.6805066    5001.4331            1 
   90100    2.0811219   -4.7003667    5004.8018            1 
   90200    2.1373416   -4.6569177    4978.6441            1 
   90300    2.0721669   -4.6838216    5012.4724            1 
   90400    2.1142255   -4.6830508    4982.6891       -1e+20 
   90500    2.0986253   -4.6712499    4996.6884            1 
   90600    2.1101899   -4.6815271    5029.4379            1 
   90700    2.0975684   -4.6661953    4983.3244       -1e+20 
   90800    2.1280864   -4.6685036    5027.2737            1 
   90900    2.1042677   -4.6601185    5030.3208       -1e+20 
   91000    2.1476495   -4.6842247    4977.3373            1 
   91100     2.070597   -4.7239023    4998.0912            1 
   91200    2.1125211   -4.6842202    4997.3284            2 
   91300    2.1426972   -4.6763043    5006.7249            1 
   91400    2.0989834   -4.7040377    5011.9514            1 
   91500    2.1602638   -4.7199935    4989.0751            3 
   91600    2.0594563   -4.6923602    5004.4306            1 
   91700    2.1142467   -4.6990136    4998.7795            1 
   91800     2.123875   -4.6349433    4989.7513            1 
   91900    2.0709838   -4.6809142    5061.1624            1 
   92000    2.1476081   -4.6502313    4972.7248            1 
   92100    2.0976692   -4.6438515    5035.5286            2 
   92200    2.0966412   -4.6300447    5049.0111       -1e+20 
   92300    2.0823605   -4.6481745    4973.7542            1 
   92400    2.0738383   -4.6714697    4988.8706       -1e+20 
   92500    2.1227515   -4.6796993    5009.0278       -1e+20 
   92600     2.075442   -4.6680013    5010.4772       -1e+20 
   92700    2.1348102   -4.6482846    4997.1151       -1e+20 
   92800    2.0789507   -4.6468373    5021.7324       -1e+20 
   92900    2.0905664   -4.6680526    4990.5848            1 
   93000    2.1359894   -4.6724685    5025.6568            2 
   93100    2.1173832   -4.6635938    5005.4164            1 
   93200    2.1187675   -4.7184369    4988.6229            1 
   93300    2.0863323     -4.70911    5005.0056            1 
   93400    2.1340208   -4.6388215    4998.7626            1 
   93500    2.0628108    -4.622944     5023.835            1 
   93600    2.1027574   -4.6957042    4993.6369            1 
   93700    2.1013407   -4.6566601    4982.7715            1 
   93800    2.1149709   -4.6802209    5016.7491            1 
   93900    2.1288226   -4.7172349     4982.643            1 
   94000    2.0917132   -4.7191973    4994.0163       -1e+20 
   94100    2.0872287   -4.6645657    5009.9794            1 
   94200    2.1168188   -4.6295493    4994.9354            1 
   94300    2.1037131   -4.6468006    5020.1754       -1e+20 
   94400    2.1103156   -4.6389331     5041.937            1 
   94500    2.0992251   -4.6358785    5011.9158            1 
   94600    2.0780326    -4.641522    5001.2668            1 
   94700    2.1044972   -4.7121186    4960.8459            1 
   94800    2.0985665   -4.7074087    4999.4362            2 
   94900    2.1331201   -4.6957596    5034.8192       -1e+20 
   95000    2.1158176   -4.6859084    5004.8804            1 
   95100    2.1174439   -4.7015524    4985.4696            1 
   95200    2.0882505   -4.7087016    5013.5228       -1e+20 
   95300    2.1745037   -4.6885443    4992.2215            1 
   95400    2.0797789   -4.6650742    5004.7432            6 
   95500    2.0921172   -4.6240537    5023.5206            1 
   95600     2.124293   -4.6678899    5019.6551       -1e+20 
   95700    2.0785785   -4.6475957    4992.9588            1 
   95800    2.1158348   -4.6633575     5036.902       -1e+20 
   95900    2.1002696   -4.6431309     5028.199            1 
   96000    2.1303251   -4.6147148    5003.6964            1 
   96100    2.0803477    -4.656434     5069.009            1 
   96200    2.1593244   -4.6535198    5016.2089            1 
   96300     2.107879   -4.6555068    5004.4972            1 
   96400    2.0780678   -4.7026087    5024.4665            1 
   96500    2.1445546   -4.6705288     5026.809            1 
   96600    2.0794978   -4.6120826    5034.2663            1 
   96700     2.140617   -4.6096381    5058.3519            1 
   96800    2.1088604   -4.6263622    5009.5672            2 
   96900    2.0808863   -4.6644549    5005.3655            1 
   97000    2.1163057    -4.646675    5008.8045            2 
   97100    2.1159524   -4.6556273    4996.4998            1 
   97200    2.0823981   -4.7103235    5011.9811            1 
   97300    2.1643854   -4.6844572    4975.5775            3 
   97400    2.0450808   -4.6789342    5003.3726            1 
   97500    2.1305919   -4.6849553    5002.6856            1 
   97600     2.160751   -4.6843061    5007.0021            1 
   97700    2.0930954   -4.6674093    5017.1162            1 
   97800    2.1124335    -4.663095     5005.337            2 
   97900    2.1435596    -4.649836     5025.924       -1e+20 
   98000    2.0698453   -4.6432812    4994.1219       -1e+20 
   98100    2.1461038   -4.6708773    5019.6009            1 
   98200    2.1141502   -4.6718328    5034.5913            1 
   98300    2.1195876   -4.6415474    4970.7472            1 
   98400    2.0950385   -4.7014883     4988.912            1 
   98500    2.0843762   -4.6633722    5004.6613            1 
   98600    2.1455462   -4.6460751     5024.656            1 
   98700    2.0887478   -4.6745996    5000.5132            1 
   98800    2.1164267   -4.6721446     4999.688            1 
   98900    2.1720207   -4.6764689    5038.2928       -1e+20 
   99000    2.1369694   -4.6777292     5027.929            1 
   99100    2.1255252   -4.7217498     5007.397       -1e+20 
   99200      2.07751   -4.6446206    4971.6647            1 
   99300    2.1265611    -4.664358    5044.0432            1 
   99400    2.1343373   -4.6933335    5014.1863       -1e+20 
   99500     2.134923   -4.7059102    4989.3119            1 
   99600    2.0552082    -4.691807    5001.5192            1 
   99700    2.1714666   -4.7085853    5002.9905            1 
   99800    2.1148272   -4.6940519    4963.6431       -1e+20 
   99900    2.0738774   -4.6733369    5006.1306            1 
  100000    2.1208524   -4.6610616    5004.5357            1 
  100100    2.1017637   -4.6828461    5012.2367            1 
  100200    2.1374779   -4.6293546      5003.14       -1e+20 
  100300    2.0957917   -4.6680653    5001.9637       -1e+20 
  100400     2.132797   -4.7017915    5004.5121            2 
  100500    2.0924973     -4.70978    4991.5562            2 
  100600    2.1101363   -4.6939452    4987.7299            1 
  100700    2.1177362   -4.6725793    4983.6395            1 
  100800    2.0951741   -4.6720155    4999.4124            2 
  100900    2.1111764   -4.6581635    5007.4639            1 
  101000    2.1868366   -4.7139276    5052.9853            1 
  101100    2.1073314   -4.6581832    4991.5498            1 
  101200    2.1460527   -4.7152543      5013.52       -1e+20 
  101300    2.1132327    -4.683959    5017.7668            1 
  101400    2.1209391   -4.6499008    4999.9489            2 
  101500    2.0721046   -4.6582046    4998.7813            2 
  101600    2.1052202   -4.6680538    5008.8232            1 
  101700    2.1324138   -4.6821444    5001.1808       -1e+20 
  101800    2.0861136   -4.7152783    5005.6723            2 
  101900    2.1107772   -4.6567439    4985.3326       -1e+20 
  102000    2.0829554   -4.6487332    4990.2959            1 
  102100    2.0690293   -4.6787478    4962.5219            2 
  102200    2.1469352   -4.7253692    5004.1682            1 
  102300    2.1348562   -4.7260852    5006.2633       -1e+20 
  102400    2.0907491    -4.699973    4967.0334            2 
  102500    2.1115687      -4.7264    5028.0401            1 
  102600    2.1162674   -4.6210211    5009.1777       -1e+20 
  102700    2.1151447   -4.6754008    5033.3676            1 
  102800    2.1003942   -4.7060393    4982.3384            1 
  102900    2.1065288   -4.7017841    4973.4125            1 
  103000    2.1460244   -4.6859651    5018.0381            1 
  103100    2.1114304   -4.6614036    4997.3394            1 
  103200    2.0719095   -4.7055812    4969.1821            1 
  103300    2.1028645   -4.6585275    4995.2971       -1e+20 
  103400    2.0948447   -4.6449456     5012.118            1 
  103500    2.0889674   -4.6967421    4974.8808            1 
  103600    2.0966617   -4.6817791    4977.4037            1 
  103700    2.1075916   -4.6778439    5038.8338            1 
  103800     2.085448   -4.6557711    4994.5265       -1e+20 
  103900    2.1106846   -4.6667105    4983.7695            1 
  104000    2.0833724   -4.6585976    5054.2956            1 
Loop time of 167.745 on 32 procs for 100000 steps with 4000 atoms

Performance: 103013.319 tau/day, 596.142 timesteps/s
99.7% CPU use with 32 MPI tasks x no OpenMP threads

MPI task timing breakdown:
Section |  min time  |  avg time  |  max time  |%varavg| %total
---------------------------------------------------------------
Pair    | 12.853     | 13.128     | 13.412     |   4.3 |  7.83
Neigh   | 2.4197     | 2.4448     | 2.5465     |   1.6 |  1.46
Comm    | 8.9827     | 9.7305     | 10.688     |  16.2 |  5.80
Output  | 3.6077     | 3.6083     | 3.6195     |   0.1 |  2.15
Modify  | 135.8      | 137.5      | 138.79     |   6.7 | 81.97
Other   |            | 1.336      |            |       |  0.80

Nlocal:        125.000 ave         134 max         117 min
Histogram: 1 0 7 5 2 11 3 2 0 1
Nghost:        1682.50 ave        1702 max        1656 min
Histogram: 1 4 0 4 2 7 3 4 3 4
Neighs:        11298.2 ave       11926 max       10634 min
Histogram: 5 1 1 4 2 7 3 3 4 2
FullNghs:      22594.6 ave       24405 max       20891 min
Histogram: 1 1 4 6 3 7 7 1 1 1

Total # of neighbors = 723028
Ave neighs/atom = 180.75700
Neighbor list builds = 8578
Dangerous builds = 627

#clear
#
#next RN
#
#jump SELF
Total wall time: 0:02:48
