
units lj                  # Use reduced LJ style units
atom_style atomic         # Uncharged point particles
atom_modify map hash      # Needed for indexing of clusters etc
                          # Used to be able to find where atoms are in relation to each other.

lattice fcc 1.0 spacing 1 1 1
Lattice spacing in x,y,z = 1.5874011 1.5874011 1.5874011
region box block 0 10 0 10 0 10 units lattice
create_box 2 box
Created orthogonal box = (0.0000000 0.0000000 0.0000000) to (15.874011 15.874011 15.874011)
  3 by 4 by 4 MPI processor grid
create_atoms 1 box
Created 4000 atoms
  using lattice units in orthogonal box = (0.0000000 0.0000000 0.0000000) to (15.874011 15.874011 15.874011)
  create_atoms CPU = 0.002 seconds
set type 1 type/fraction 2 0.12 78393
Setting atom values ...
  508 settings made for type/fraction
mass 1 1.0
mass 2 1.0
pair_style lj/cut  3.5
pair_modify tail  yes
pair_coeff 1  1  1.0  1.0   # Intearaction between 1 and 1 set with epsilon = 1 and sigma = 1
pair_coeff 1  2  1.5  0.8
pair_coeff 2  2  0.5  0.88

write_data data.0
System init for write_data ...
Neighbor list info ...
  update every 1 steps, delay 10 steps, check yes
  max neighbors/atom: 2000, page size: 100000
  master list distance cutoff = 3.8
  ghost atom cutoff = 3.8
  binsize = 1.9, bins = 9 9 9
  1 neighbor lists, perpetual/occasional/extra = 1 0 0
  (1) pair lj/cut, perpetual
      attributes: half, newton on
      pair build: half/bin/atomonly/newton
      stencil: half/bin/3d
      bin: standard
WARNING: Not all mixed pair coeffs generated from mixing. Use write_data with 'pair ij' option to store all pair coeffs. (../write_data.cpp:312)


#############################
#   M E L T   S Y S T E M   #
#############################

velocity all create 2.4 9622624 mom yes dist gaussian # Assign velocities
                                                    # Temperature 2.4, random number seed, zero linear momentum
                                                                                # Gaussian distribution

timestep 0.002   # simulation timestep
thermo 1000       # output thermodynamic data every 1000 steps bf 100

# Define a fix  in this case with index 1 applied to all
# particles in the simulation. This fix is for simulations
# in the anisotropic NPT ensemble. Note that we use the MTK
# correction.
fix 1 all npt temp 2.4 2.4 0.1 iso 5.68 5.68 0.5 mtk yes tchain 5 pchain 5 # Use NPT ensemble
                                                                         # Set temperature and pressure and damping
                                                                         # Numbers of thermostats in chain and in barostat
run 10000          # run for 10000 steps
Per MPI rank memory allocation (min/avg/max) = 3.642 | 3.644 | 3.648 Mbytes
Step Temp E_pair E_mol TotEng Press Volume 
       0          2.4   -7.5560252            0   -3.9569252   -3.1663949         4000 
    1000    2.3663826   -4.6509242            0   -1.1022377    5.6902349    4760.0892 
    2000    2.4699531   -4.6687806            0  -0.96477715    5.5960692    4771.1335 
    3000    2.4146137   -4.7150028            0   -1.0939877    5.4134412    4765.0237 
    4000    2.4155548   -4.6826171            0   -1.0601908    5.6969533    4749.5876 
    5000    2.4193094   -4.6845286            0   -1.0564717    5.6659293    4754.6962 
    6000    2.3721816   -4.6536493            0   -1.0962665    5.5840407    4774.2386 
    7000    2.3345908   -4.6348815            0   -1.1338709    5.7867336    4747.9829 
    8000    2.4024423   -4.6558521            0   -1.0530896    5.6593028    4767.3253 
    9000    2.3674626   -4.6139265            0   -1.0636204    5.7515508    4778.1928 
   10000    2.4408927   -4.6225468            0  -0.96212312    5.8185358    4765.2128 
Loop time of 2.20873 on 48 procs for 10000 steps with 4000 atoms

Performance: 782350.504 tau/day, 4527.491 timesteps/s
99.6% CPU use with 48 MPI tasks x no OpenMP threads

MPI task timing breakdown:
Section |  min time  |  avg time  |  max time  |%varavg| %total
---------------------------------------------------------------
Pair    | 0.91368    | 0.9778     | 1.0753     |   2.9 | 44.27
Neigh   | 0.18951    | 0.19874    | 0.21675    |   1.1 |  9.00
Comm    | 0.69658    | 0.77695    | 0.86285    |   4.3 | 35.18
Output  | 0.00024418 | 0.00024986 | 0.00030665 |   0.0 |  0.01
Modify  | 0.19889    | 0.24032    | 0.27987    |   4.5 | 10.88
Other   |            | 0.01467    |            |       |  0.66

Nlocal:        83.3333 ave          92 max          73 min
Histogram: 1 1 4 6 9 9 8 4 5 1
Nghost:        1467.77 ave        1491 max        1442 min
Histogram: 1 3 5 6 9 5 7 4 4 4
Neighs:        8000.52 ave        9037 max        6970 min
Histogram: 3 6 1 8 7 6 6 6 4 1

Total # of neighbors = 384025
Ave neighs/atom = 96.006250
Neighbor list builds = 902
Dangerous builds = 197

# Equilibrate just above the melting temperature to avoid step fn in T

fix 1 all npt temp 1.25 1.25 0.1 iso 5.68 5.68 0.5 mtk yes tchain 5 pchain 5
run 2000
Per MPI rank memory allocation (min/avg/max) = 3.642 | 3.644 | 3.648 Mbytes
Step Temp E_pair E_mol TotEng Press Volume 
   10000    2.4408927   -4.6225468            0  -0.96212312    5.8185358    4765.2128 
   11000    1.2418597   -6.2403164            0   -4.3779926    5.6989181    3926.4998 
   12000     1.247177   -6.2697599            0   -4.3994621    5.7038778    3915.7735 
Loop time of 0.478322 on 48 procs for 2000 steps with 4000 atoms

Performance: 722525.208 tau/day, 4181.280 timesteps/s
99.6% CPU use with 48 MPI tasks x no OpenMP threads

MPI task timing breakdown:
Section |  min time  |  avg time  |  max time  |%varavg| %total
---------------------------------------------------------------
Pair    | 0.21346    | 0.22915    | 0.2504     |   1.6 | 47.91
Neigh   | 0.032283   | 0.033862   | 0.035465   |   0.5 |  7.08
Comm    | 0.14193    | 0.16238    | 0.18261    |   2.1 | 33.95
Output  | 4.9175e-05 | 5.1244e-05 | 6.2962e-05 |   0.0 |  0.01
Modify  | 0.043606   | 0.048422   | 0.056099   |   1.4 | 10.12
Other   |            | 0.004456   |            |       |  0.93

Nlocal:        83.3333 ave          91 max          74 min
Histogram: 1 2 5 6 6 8 6 5 8 1
Nghost:        1662.58 ave        1690 max        1641 min
Histogram: 2 7 5 5 12 5 7 3 1 1
Neighs:        9730.35 ave       10613 max        8471 min
Histogram: 1 3 3 7 4 5 5 8 6 6

Total # of neighbors = 467057
Ave neighs/atom = 116.76425
Neighbor list builds = 144
Dangerous builds = 14

#############################
# L I N E A R  Q U E N C H  #
#############################

# Define solid atoms. This closely follows ten Wolde  Ruiz-Montero and Frenkel  Faraday Discuss  1996  104  93-110
# Compute components of the per-atom q6 vector
compute q6 all orientorder/atom degrees 1 6 components 6 nnn NULL cutoff 1.3 # compute the Q6 parameter.
                                                                             # Use all neighbours within 1.3 unit cell.

# get number of connections
compute coord_number all coord/atom orientorder q6 0.5

# An atom is solid if it has 8 or more connections (of a possible 14)
variable is_solid atom c_coord_number>=8
group solid dynamic all var is_solid    # Must be dynamic to update
dynamic group solid defined

# do clustering
compute cluster solid cluster/atom 1.3 # Create a cluster where all atoms within are solid and max 1.3 units from another member

# define chunks one chunk per cluster
compute clus_chunks solid chunk/atom c_cluster nchunk every compress yes  # Says which atoms are in which chunk

# count the size of each chunk
compute size_chunks solid property/chunk clus_chunks count


# Find the maximum entry in the vector of chunk sizes
variable max_n equal max(c_size_chunks)


# Thermo style which includes this variable
# thermo_style custom step temp pe vol v_max_n

thermo ${N}  # Print the thermo information every 100 steps
thermo 1000  

# Reset the npt fix at a lower temperature (below freezing)
fix 1  all npt temp  ${temp} ${temp}  0.1  iso  5.68  5.68  0.5  mtk yes tchain  5  pchain  5
fix 1  all npt temp  0.45 ${temp}  0.1  iso  5.68  5.68  0.5  mtk yes tchain  5  pchain  5
fix 1  all npt temp  0.45 0.45  0.1  iso  5.68  5.68  0.5  mtk yes tchain  5  pchain  5

dump dmp2 all dcd ${N} traj.dcd
dump dmp2 all dcd 1000 traj.dcd


compute msd all msd com yes
variable twopoint equal c_msd[4]/6/(step*dt+1.0e-6)
fix 9 all vector 10 c_msd[4]
variable fit equal slope(f_9)/6/(10*dt)
thermo_style custom step temp pe c_msd[4] v_twopoint v_fit v_max_n

fix 1 all npt temp 1.25 ${temp} 0.1 iso 5.68 5.68 0.5 mtk yes tchain 5 pchain 5
fix 1 all npt temp 1.25 0.45 0.1 iso 5.68 5.68 0.5 mtk yes tchain 5 pchain 5
run 5000000 # 5000000  # Run for this many steps
Neighbor list info ...
  update every 1 steps, delay 10 steps, check yes
  max neighbors/atom: 2000, page size: 100000
  master list distance cutoff = 3.8
  ghost atom cutoff = 3.8
  binsize = 1.9, bins = 9 9 9
  4 neighbor lists, perpetual/occasional/extra = 1 3 0
  (1) pair lj/cut, perpetual
      attributes: half, newton on
      pair build: half/bin/atomonly/newton
      stencil: half/bin/3d
      bin: standard
  (2) compute orientorder/atom, occasional
      attributes: full, newton on
      pair build: full/bin/atomonly
      stencil: full/bin/3d
      bin: standard
  (3) compute coord/atom, occasional
      attributes: full, newton on
      pair build: full/bin/atomonly
      stencil: full/bin/3d
      bin: standard
  (4) compute cluster/atom, occasional
      attributes: full, newton on
      pair build: full/bin/atomonly
      stencil: full/bin/3d
      bin: standard
Per MPI rank memory allocation (min/avg/max) = 9.755 | 9.759 | 9.764 Mbytes
Step Temp PotEng c_msd[4] v_twopoint v_fit v_max_n 
   12000     1.247177   -6.2697599 1.1832914e-33 8.2173008e-36 8.3333333e+20            2 
   13000    1.2472501    -6.269071   0.54050169 0.0034647543  0.044327624            2 
   14000    1.2631759   -6.2890339    1.0886646 0.0064801461  0.044571052            3 
   15000    1.2652726   -6.3112065    1.5970769 0.0088726489  0.044260036            2 
   16000    1.2322502   -6.3278104     2.101114  0.010943301  0.043563355            5 
   17000    1.2710537      -6.2518    2.6132383  0.012809991  0.043068091            1 
   18000    1.2232667   -6.3081653    3.1132468  0.014413179  0.042734074            2 
   19000    1.2478887   -6.2354714    3.6088591  0.015828329  0.042556518            3 
   20000    1.2447316   -6.2684269    4.1084069  0.017118362  0.042364191            3 
   21000    1.2284687   -6.2562816    4.6268201  0.018360397  0.042284784            2 
   22000    1.2581339   -6.2895608    5.1152598  0.019375984  0.042255714            2 
   23000     1.256222   -6.2841947    5.6133866  0.020338357   0.04218775            1 
   24000     1.235596   -6.2797418    6.0982403  0.021174445  0.042113308            2 
   25000    1.2558021   -6.3121546    6.6067049  0.022022349  0.042058806            3 
   26000    1.2444456   -6.3244007    7.0664233  0.022648792  0.041978382            2 
   27000    1.2733705   -6.3062083    7.6697008  0.023671916  0.041947146            2 
   28000    1.2663784   -6.2899875    8.1936907  0.024385984  0.042016517            2 
   29000    1.2384722   -6.2511419    8.7240264  0.025069041  0.042092895            1 
   30000    1.2163347   -6.2707464     9.302391  0.025839975  0.042281233            2 
   31000    1.2552453   -6.2832742    9.8500982  0.026478758  0.042466507            3 
   32000    1.2265286   -6.3110044    10.299713  0.026822169  0.042561288            3 
   33000    1.2500564   -6.2753326    10.787707  0.027241684  0.042640778            2 
   34000    1.2276838   -6.2674112    11.206011  0.027465713  0.042611018            1 
   35000    1.2277658   -6.3379136    11.657954  0.027757034  0.042527922            2 
   36000    1.2687849   -6.2813417    12.207888     0.028259  0.042423332            2 
   37000    1.2632138   -6.2993015    12.784295  0.028793458  0.042381992            1 
   38000    1.2573799   -6.3183133    13.271886  0.029105013  0.042366752            2 
   39000    1.2661478   -6.3160457    13.866875  0.029630074  0.042410258            2 
   40000    1.2360315   -6.2560252      14.3285  0.029851042  0.042431776            2 
   41000    1.2510403   -6.2699635     14.89402  0.030272398  0.042457374            1 
   42000    1.2342074   -6.2906927    15.377976  0.030511856  0.042470543            2 
   43000    1.2310448   -6.3163163    15.835187  0.030688347  0.042471019            6 
   44000    1.2340696    -6.272448    16.457132  0.031168809  0.042491729            3 
   45000    1.1979332     -6.31579    17.064368  0.031600682  0.042559897            2 
   46000     1.259285   -6.2597661    17.722291    0.0321056  0.042670602            2 
   47000     1.225091   -6.2640228    18.327115  0.032494884   0.04281518            2 
   48000    1.2210032   -6.3246244    18.729133  0.032515856  0.042934072            3 
   49000    1.2397738   -6.2828595     19.34784   0.03290449  0.043025233            4 
   50000    1.2218357   -6.2884141    19.785185  0.032975308  0.043108659            2 
   51000    1.2335631   -6.2714927    20.324142  0.033209382  0.043169867            2 
   52000    1.2190525   -6.2916138    20.828796  0.033379481  0.043221788            2 
   53000    1.2343486   -6.2868671    21.429992  0.033694955  0.043271802            2 
   54000    1.2472066    -6.277652    21.892403  0.033784572  0.043338813            2 
   55000    1.2835717   -6.2888795    22.528733  0.034134443  0.043407405            1 
   56000    1.2399731   -6.3191369    23.095809  0.034368763   0.04348283            3 
   57000    1.2272281    -6.269157     23.80221  0.034798553  0.043575478            2 
   58000    1.2359674   -6.3448117    24.300185  0.034914059   0.04367753            2 
   59000    1.2470267   -6.2956399    24.819751  0.035056145   0.04375538            1 
   60000    1.2496515   -6.3062156    25.309929  0.035152679  0.043822323            3 
   61000    1.2187081   -6.3152383    25.693575  0.035100512  0.043864203            4 
   62000    1.2492743   -6.3580374    25.999535  0.034945611   0.04385875            1 
   63000    1.2294934   -6.3208844    26.596117  0.035180049  0.043852052            2 
   64000     1.273269   -6.3105312    27.072242  0.035250314  0.043829434            3 
   65000    1.2305434   -6.2765818    27.544446  0.035313392  0.043801647            2 
   66000    1.2428061    -6.325398    28.030578  0.035392144  0.043770624            4 
   67000    1.2633924   -6.2888551    28.656764  0.035642741  0.043753793            2 
   68000    1.2255515    -6.280836    29.092223  0.035652233   0.04373493            2 
   69000    1.2089221   -6.2974943    29.751832  0.035932164  0.043732265            4 
   70000    1.2312162   -6.2798427    30.559174  0.036379969   0.04375346            2 
   71000    1.2307582   -6.2961386    31.100866  0.036503363  0.043780678            3 
   72000    1.2600311   -6.3274699    31.611013   0.03658682  0.043816506            1 
   73000    1.2552498   -6.3315647    32.003469   0.03653364  0.043836248            3 
   74000    1.2516997   -6.2647904    32.735243  0.036864012   0.04386184            2 
   75000    1.2339992   -6.3131718    33.369328  0.037077031  0.043906796            3 
   76000    1.2543673   -6.3335025    33.788745  0.037049062  0.043950684            2 
   77000    1.2723332   -6.2892549    34.428697  0.037260495  0.043985894            4 
   78000    1.2516221   -6.3113127    35.134984  0.037537376  0.044032813            1 
   79000    1.2443196   -6.2744928    35.866288  0.037833637  0.044091642            2 
   80000    1.2413554   -6.2803571    36.594513  0.038119284  0.044168311            2 
   81000    1.2542936   -6.3070951    36.823663  0.037884427  0.044233902            1 
   82000    1.2634152   -6.3086851     37.52736  0.038137561  0.044294017            1 
   83000    1.2321861    -6.284371    38.343529  0.038497519  0.044369779            1 
   84000    1.2382886    -6.295609    38.692052  0.038384972  0.044438707            3 
   85000    1.2360007   -6.3497254    39.276776  0.038506643  0.044505834            3 
   86000    1.2448306   -6.3085301     39.94448  0.038705892  0.044582227            3 
   87000    1.2460611   -6.3120385    40.594808  0.038883915  0.044658803            4 
   88000    1.2353088   -6.3117825     41.01113  0.038836297  0.044729668            1 
   89000    1.2449917   -6.2668703    41.742004  0.039084273  0.044786005            3 
   90000    1.2465738   -6.2852905    41.984323  0.038874373  0.044832193            4 
   91000    1.2585912   -6.2424782    42.433704  0.038858703  0.044868561            4 
   92000    1.2265403   -6.2977358    42.992169  0.038942182  0.044890977            3 
   93000    1.2541516   -6.2971778     43.59412  0.039062831  0.044914114            4 
   94000    1.2282685   -6.2820134    44.379778  0.039343775  0.044946863            3 
   95000    1.2584361   -6.2910743    44.820724  0.039316425  0.044987321            2 
   96000    1.2394752   -6.3178099    45.268916  0.039295934  0.045020384            6 
   97000      1.24434   -6.3087673    45.899251  0.039432346  0.045053396            3 
   98000    1.2343717   -6.2890252    46.246516  0.039325269  0.045084127            3 
   99000    1.2115182   -6.3130348    47.040564  0.039596434  0.045112476            3 
  100000    1.2416205   -6.2981859    47.564363  0.039636969  0.045141532            4 
  101000    1.2347943   -6.3193992    47.903093  0.039524004  0.045160879            2 
  102000      1.23247   -6.2802196    48.538455  0.039655601  0.045181063            2 
  103000    1.2748052   -6.2776346     49.19178  0.039799175  0.045204754            4 
  104000    1.2216815   -6.3246078    49.457683  0.039629553  0.045225192            2 
  105000    1.2585362   -6.3116176    50.262134  0.039890582  0.045241627            2 
  106000    1.2350008   -6.3246847    50.990915  0.040087197  0.045260045            4 
  107000    1.2174154   -6.2610003     51.67002  0.040241449  0.045286336            3 
  108000    1.2386363   -6.2745367    51.734162  0.039918335  0.045306138            4 
  109000    1.2298035   -6.3254468     52.54108  0.040169021  0.045316252            1 
  110000    1.2296205   -6.3352701    52.764607  0.039973187  0.045326711            5 
  111000    1.2392301   -6.3267794    53.265674  0.039989245  0.045329372            2 
  112000    1.2254193   -6.3086002    53.963326  0.040151284  0.045332928            3 
  113000    1.2494018   -6.2883737    54.292693  0.040038859  0.045339036            5 
  114000    1.2323023   -6.3161332     54.77065  0.040037025  0.045339128            2 
  115000    1.2385683   -6.3520234    55.173453  0.039980763  0.045334833            3 
  116000    1.2371226    -6.294882    55.963524  0.040203681  0.045334299            2 
  117000    1.2508378    -6.302585     56.42473  0.040188554  0.045340164            3 
  118000    1.2329713   -6.3474647    56.723822  0.040059196  0.045336852            2 
  119000    1.2543994   -6.3175421    57.231566  0.040078128  0.045327928            3 
  120000    1.2271604   -6.3134059    57.604195  0.040002913  0.045313009            3 
  121000    1.2099774   -6.3126595    58.161708  0.040056272  0.045297659            3 
  122000     1.234566   -6.3334945    58.569443   0.04000645  0.045275101            2 
  123000    1.2041426   -6.3352183    59.094111   0.04003666  0.045252831            3 
  124000    1.2124239   -6.2959799    59.780357  0.040174971  0.045230573            1 
  125000    1.2320236    -6.318243    60.104141  0.040069427  0.045211295            2 
  126000    1.2312509    -6.307222     60.45864  0.039985873  0.045186475            2 
  127000    1.2538554    -6.302045    60.897998  0.039959316   0.04515757            5 
  128000      1.23263   -6.3026686    61.289661  0.039902123  0.045125375            3 
  129000     1.242478   -6.3178337     61.98681  0.040043159  0.045098803            2 
  130000    1.2470433   -6.3507191    62.364058   0.03997696  0.045072376            4 
  131000    1.2297329   -6.3224687    62.869526  0.039993337  0.045040795            2 
  132000    1.2455538   -6.3071329    63.338471  0.039986408  0.045006092            3 
  133000    1.2093683   -6.3348424    63.915814  0.040047502  0.044975026            2 
  134000     1.213507   -6.3241063    64.440177  0.040074737  0.044942751            3 
  135000    1.2320985   -6.3404467     64.94369  0.040088697  0.044909288            3 
  136000    1.2422076   -6.3255117    65.345656   0.04004023  0.044876871            1 
  137000    1.2271621   -6.3520226    65.918679   0.04009652   0.04484567            2 
  138000    1.2465861   -6.3119241    66.604064  0.040219845  0.044820969            1 
  139000    1.2451553   -6.3116879    67.416213  0.040417394  0.044804445            2 
  140000    1.2304189   -6.3165041    67.835411  0.040378221  0.044784157            3 
  141000    1.2357554   -6.3369874    68.350793   0.04039645  0.044765373            7 
  142000    1.2199155   -6.3414783     68.96694  0.040473556  0.044749952            2 
  143000    1.1961217    -6.341106    69.871095  0.040717421  0.044744642            2 
  144000    1.2208291   -6.3047085     70.12255  0.040580179  0.044737613            1 
  145000     1.237293   -6.3239787     70.51308  0.040524758  0.044724485            2 
  146000    1.2069006   -6.3334461    71.147474  0.040609289  0.044709718            3 
  147000     1.228754   -6.2957336    71.481347  0.040522305  0.044697058            2 
  148000    1.2317002   -6.3277978    72.215774  0.040662035  0.044684926            1 
  149000    1.2203674    -6.324647    72.722743  0.040672675   0.04467256            2 
  150000    1.2059383   -6.3029165    73.421539  0.040789744  0.044657038            2 
  151000    1.2261167   -6.3627473    73.794781  0.040725596  0.044648857            2 
  152000    1.2335855   -6.3542246    74.205061  0.040682599  0.044644762            2 
  153000    1.1752191   -6.3461732    75.324043  0.041026167  0.044645405            3 
  154000    1.2355672   -6.3245164    75.715257  0.040971459  0.044648003            4 
  155000    1.2445682   -6.3636493    76.193348  0.040964166  0.044648534            2 
  156000    1.2289582   -6.3450073    76.592812  0.040914964  0.044638733            4 
  157000    1.2065257   -6.3309149    76.653111  0.040686364  0.044626514            1 
  158000    1.2125409   -6.2971911    77.433371  0.040840385   0.04461687            2 
  159000    1.2198855   -6.3340437    78.008161   0.04088478  0.044606889            1 
  160000    1.2085052   -6.3510848    78.693728  0.040986316  0.044599304            7 
  161000    1.2404166    -6.336627    79.083183  0.040933325  0.044591203            1 
  162000    1.2217294   -6.3610566    79.818525  0.041058912  0.044586595            2 
  163000    1.2291308   -6.2654369    80.246746  0.041025944  0.044579362            4 
  164000    1.2148944   -6.3239281    80.677218  0.040994521  0.044572811            2 
  165000    1.2543153   -6.3111157    81.406175   0.04111423  0.044567156            3 
  166000    1.2176919   -6.3078807    82.003293  0.041166312  0.044564172            2 
  167000    1.2438782   -6.3189953    82.619318  0.041227205   0.04456141            3 
  168000    1.1991766    -6.318809    82.877868  0.041110054   0.04456032            1 
  169000    1.2400969   -6.3417858    83.443315  0.041145619  0.044555104            2 
  170000    1.2105676   -6.3512778    83.706461  0.041032579  0.044547234            3 
  171000    1.2445419   -6.3421526    84.184727  0.041025695   0.04453807            5 
  172000    1.2057501   -6.3276088     84.77466  0.041072994  0.044528456            3 
  173000    1.2197662   -6.3755516    84.919082  0.040905145  0.044515227            2 
  174000    1.2067183   -6.3342567    85.301192  0.040853061  0.044496711            3 
  175000    1.2172702   -6.3383441    85.806415  0.040860198  0.044479655            2 
  176000    1.2476471   -6.2913128    86.570611  0.040989873  0.044464053            4 
  177000    1.2245389   -6.2975823    87.229654  0.041068575  0.044447679            2 
  178000    1.2389349   -6.2972412    87.553111  0.040989284  0.044431101            2 
  179000    1.2424899   -6.3090166    87.805616  0.040877847  0.044413942            3 
  180000    1.2221877    -6.355656    87.988692  0.040735505  0.044392837            3 
  181000    1.2082914   -6.3422883    88.745538  0.040858903  0.044374695            2 
  182000    1.2120656   -6.3581382    89.182218  0.040834349  0.044354725            4 
  183000    1.2358149   -6.2784534    90.232275  0.041089378  0.044336225            2 
  184000    1.2169031   -6.3209078    90.373997  0.040930252  0.044317775            1 
  185000    1.2116105   -6.3387254    90.890581  0.040941703  0.044297991            2 
  186000    1.2341081   -6.3116364    91.338226  0.040922144  0.044281069            4 
  187000    1.2291068   -6.3409135    92.091059  0.041038796  0.044266808            3 
  188000    1.2388089   -6.3435049    92.668124  0.041076296  0.044252812            2 
  189000    1.2064967   -6.3150724    93.271156  0.041124848  0.044242315            2 
  190000    1.2142984   -6.3556548    93.754915  0.041120577   0.04423309            3 
  191000    1.2186035   -6.3226541     94.43865    0.0412036   0.04422398            3 
  192000    1.2331744   -6.3005606    95.088309  0.041270967  0.044217519            4 
  193000    1.2343852   -6.3420366    95.240693  0.041122924  0.044211954            2 
  194000    1.2138922   -6.3256088    96.002415   0.04123815  0.044204768            4 
  195000    1.2110704    -6.318023    96.782924  0.041360224  0.044198997            3 
  196000     1.200008   -6.3052954    97.467067  0.041440079   0.04419213            3 
  197000    1.2178187   -6.3233524    97.902034   0.04141372  0.044185729            3 
  198000    1.2224615   -6.3157022    98.009525    0.0412498  0.044177248            3 
  199000    1.1899572   -6.3405987    98.425898  0.041216875  0.044165613            2 
  200000     1.218032    -6.336874    98.607038  0.041086266  0.044152375            2 
  201000    1.2043727   -6.3550588     98.81805  0.040969341  0.044137995            3 
  202000    1.2208766   -6.3339444    99.768299  0.041158539  0.044122017            2 
  203000    1.2310026   -6.3346562    100.10385  0.041093536  0.044104475            3 
  204000    1.2320947   -6.3312731    100.07565  0.040880575  0.044089504            2 
  205000     1.208913     -6.31824    100.79043  0.040971721  0.044071795            2 
  206000    1.2088241    -6.341449    101.56189  0.041084908  0.044054758            5 
  207000    1.2476272   -6.3475386    101.95576  0.041044992  0.044040775            5 
  208000    1.2321636   -6.3396875    102.64833  0.041125134  0.044025035            5 
  209000    1.2256522   -6.3511433    102.89874  0.041028206  0.044012367            3 
  210000    1.2279092   -6.3330626    103.69687   0.04114955  0.043998661            5 
  211000    1.2085791   -6.2935574    104.51529  0.041277762    0.0439875            2 
  212000    1.2003513   -6.3452001      104.932  0.041246854   0.04397639            5 
  213000    1.1986977   -6.3389733     105.2419  0.041174453  0.043965008            3 
  214000    1.2178014   -6.3703605    105.82329  0.041208446   0.04395294            2 
  215000    1.2172447   -6.2773347    106.36523  0.041226833  0.043943751            4 
  216000    1.2289226   -6.3310966    107.00501  0.041282798  0.043934332            2 
  217000    1.2325233   -6.3139426    107.25041  0.041186794  0.043924625            3 
  218000    1.2209965    -6.344633    107.83941  0.041223014  0.043914485            4 
  219000    1.2084491   -6.3714463    108.03902  0.041110738  0.043901739            2 
  220000    1.2170649   -6.3792079    108.46649  0.041085793  0.043885906            2 
  221000    1.2319854   -6.3311028    109.42988  0.041263151   0.04387097            2 
  222000     1.246515   -6.3372751    109.44902  0.041084468  0.043856097            2 
  223000    1.2056305   -6.3644061    110.60569  0.041332469  0.043840806            2 
  224000    1.2362787   -6.3483938    110.77268  0.041210074  0.043825502            5 
  225000    1.2512483   -6.3312874    111.68327  0.041364174  0.043815978            1 
  226000    1.2438374    -6.339856    111.68362  0.041181277  0.043805087            4 
  227000    1.2032967   -6.3592863    112.20286  0.041190479  0.043793547            2 
  228000    1.2131938   -6.3087803    112.85614  0.041248589  0.043781839            1 
  229000     1.202111   -6.3238271    113.16404   0.04118051  0.043769665            3 
  230000    1.2027266   -6.3421807    113.43385  0.041099219  0.043755112            2 
  231000    1.1896833   -6.3700957    114.43178  0.041281305  0.043741357            3 
  232000    1.2446353   -6.3464266    114.44885    0.0411095  0.043728624            2 
  233000    1.2217118   -6.3473919    114.94117  0.041109144  0.043715069            1 
  234000    1.2108918   -6.3885201    114.80157  0.040883751  0.043700872            3 
  235000    1.2130498   -6.3765074    115.82811  0.041073798  0.043683208            2 
  236000    1.2263663    -6.355389    116.02859  0.040970547  0.043666311            2 
  237000    1.2033434   -6.3346728    116.57251  0.040988928  0.043647356            1 
  238000    1.2286581    -6.326545    116.73599  0.040873946  0.043626989            2 
  239000    1.1920038   -6.3531567    117.16667  0.040853092  0.043606112            6 
  240000    1.2195411   -6.3115103    117.19255  0.040691857  0.043585787            3 
  241000    1.1914641   -6.3304231     118.0944  0.040834854   0.04356528            3 
  242000    1.1957536   -6.3220551    118.12564  0.040676873  0.043543496            3 
  243000    1.2105656   -6.3120283    119.18565  0.040872994  0.043521474            1 
  244000    1.1960784   -6.3560455    119.58873  0.040843145  0.043502015            4 
  245000     1.216954   -6.3631915    119.54361   0.04066109  0.043483132            3 
  246000    1.2104561   -6.3392665     120.9059  0.040957282   0.04346395            1 
  247000    1.2111712   -6.3415136     121.0207  0.040830196  0.043443171            1 
  248000    1.2148865    -6.324927    121.83459  0.040939041  0.043424415            3 
  249000    1.2055531   -6.3458089    121.91093  0.040800177   0.04340604            4 
  250000    1.2133543   -6.3225608    122.74672  0.040915573  0.043388439            2 
  251000    1.2195486   -6.3419544    123.48172  0.040996586   0.04337179            3 
  252000    1.1873533   -6.2991843    123.93401   0.04098347  0.043356918            3 
  253000    1.2123643     -6.33897    124.85463  0.041124715  0.043344157            4 
  254000    1.2018258   -6.3844432    124.95764    0.0409966  0.043331217            2 
  255000    1.2338153   -6.3424184    125.46366  0.041001195  0.043315846            2 
  256000    1.2245295   -6.3564326    125.89394  0.040981099  0.043301011            8 
  257000    1.2151222   -6.3373698    126.42011  0.040992252  0.043286871            2 
  258000    1.2065593   -6.3295707     127.2953  0.041116052  0.043273732            3 
  259000    1.2010391    -6.359029    127.94941  0.041167763  0.043260559            4 
  260000    1.2066308   -6.3276836    128.20043  0.041089882  0.043247599            3 
  261000    1.1806146   -6.3450344    128.91879   0.04116181  0.043235746            2 
  262000    1.1948125   -6.3379453     129.2065  0.041096213  0.043225458            3 
  263000    1.1962887   -6.3446444    129.85523  0.041145509  0.043214786            1 
  264000    1.2303486   -6.3151848    130.27994   0.04112372  0.043202535            2 
  265000    1.2044097   -6.3176245    130.49069  0.041034809  0.043191474            2 
  266000    1.1972625   -6.3788911    131.14746  0.041086298  0.043179803            2 
  267000    1.2059796   -6.3737139    131.71137  0.041108419  0.043169888            2 
  268000    1.1990725   -6.3585148    132.53541   0.04121126  0.043163115            6 
  269000    1.1700377   -6.3552551    133.33363  0.041305339  0.043157682            1 
  270000    1.2293505   -6.3823806    133.50378  0.041204872  0.043153014            2 
  271000    1.2455522   -6.3786242    134.70646   0.04142265  0.043147728            2 
  272000    1.2084876   -6.4001433    134.71346  0.041272507  0.043141747            3 
  273000    1.1986995    -6.360749    134.98869  0.041205338  0.043134527            3 
  274000    1.2031863   -6.3641084    135.82225   0.04130847  0.043129665            3 
  275000     1.229365   -6.3590778      136.364  0.041322425  0.043124381            2 
  276000    1.2053883   -6.3283694    136.65144  0.041259491  0.043119422            4 
  277000    1.2176306   -6.3597252    137.50694  0.041367911  0.043113844            4 
  278000    1.2124871   -6.3486037    137.73647   0.04128791   0.04310758            3 
  279000    1.2009352   -6.3415893    138.32942  0.041317032  0.043101999            2 
  280000    1.1900843   -6.3749883    138.80998  0.041312494  0.043095555            1 
  281000    1.1941479   -6.3580878    139.10148  0.041251922  0.043088459            1 
  282000    1.2145699     -6.37925    139.34909  0.041178809  0.043081957            1 
  283000    1.2123857   -6.4029491     140.0733  0.041246555  0.043075124            3 
  284000    1.2182337   -6.3778985    140.17643  0.041131581  0.043067981            2 
  285000    1.1836223   -6.3279431    140.61116  0.041114375  0.043058429            1 
  286000    1.2028563   -6.3459849    140.65596   0.04098367  0.043047477            2 
  287000    1.1858685   -6.3480725    141.81058  0.041176127  0.043035549            2 
  288000    1.1710681   -6.3581916    141.94903  0.041073213  0.043025592            2 
  289000    1.2157987   -6.3644075    142.51156  0.041093299  0.043015497            3 
  290000    1.2179012   -6.3563616    142.92524  0.041070472  0.043003921            4 
  291000    1.2236323   -6.3479073    143.77816  0.041173585  0.042995727            4 
  292000    1.2090287   -6.3703046     144.6376  0.041277855  0.042987855            2 
  293000    1.2011395   -6.3414226    144.65608  0.041142231  0.042979432            2 
  294000    1.1983976   -6.3484466    145.26012  0.041173505  0.042970191            3 
  295000    1.2028745   -6.3360149    145.71188  0.041161548  0.042960547            4 
  296000     1.204285   -6.3347527    146.64937  0.041286422  0.042952535            8 
  297000    1.2147478   -6.3958244    146.59314  0.041131633  0.042943855            3 
  298000    1.1901511   -6.3419404    147.11479  0.041139483  0.042935504            5 
  299000     1.186682   -6.3372636    147.35806  0.041069695   0.04292689            2 
  300000    1.2200739   -6.3607599    148.08652  0.041135146  0.042919408            2 
  301000    1.2131146   -6.3335685    149.02923  0.041259477  0.042912551            2 
  302000    1.1883062   -6.3784188    148.93092  0.041095729   0.04290524            1 
  303000    1.1826849   -6.3746355    150.15791  0.041297556  0.042898697            3 
  304000     1.209516    -6.355956    150.72317  0.041316657   0.04289249            2 
  305000    1.2280443   -6.3495141    150.33341  0.041074701  0.042885337            3 
  306000    1.2251543   -6.3838666    151.19722  0.041175712  0.042877449            3 
  307000    1.1986101   -6.3499249    151.28547  0.041065547  0.042869089            4 
  308000    1.1812957   -6.3592199     151.9613   0.04111507  0.042861153            2 
  309000    1.2058269   -6.3293792    152.82219  0.041214182  0.042855423            2 
  310000    1.2069092   -6.4113151     153.4269   0.04124379  0.042849097            3 
  311000    1.1867797   -6.3506108    154.55457  0.041413335  0.042842573            2 
  312000    1.2179634   -6.3605852     154.2775  0.041206598  0.042837761            2 
  313000    1.1994163   -6.3721893    154.72535  0.041194183  0.042832417            4 
  314000    1.2367788   -6.3881798    155.03614  0.041145473  0.042826271            1 
  315000    1.2134567   -6.3767715    155.68077  0.041185388  0.042820006            2 
  316000    1.2054305   -6.3543982    156.30591  0.041219913   0.04281272            4 
  317000    1.2059534   -6.3634874    156.45398  0.041128806  0.042805574            1 
  318000    1.1826859   -6.3672869    157.39579  0.041246277  0.042797863            4 
  319000    1.2059013   -6.3623666    158.11889  0.041305874  0.042791984            1 
  320000    1.2072841    -6.381341    158.11983  0.041177039  0.042787675            3 
  321000    1.2047336   -6.3482653    159.52469  0.041413471  0.042784411            1 
  322000    1.1968732   -6.3750301    160.16399  0.041450308  0.042780878            3 
  323000    1.2158426   -6.3723141    160.07307  0.041298521  0.042777401            3 
  324000    1.1767368    -6.356305    160.60635  0.041308217  0.042774889            3 
  325000     1.224946   -6.4151391    161.41247  0.041387812  0.042772423            4 
  326000    1.1910503   -6.3638203    161.78743  0.041356704  0.042769239            1 
  327000    1.1876378   -6.3598884    162.71854  0.041467517  0.042767313            2 
  328000     1.193903   -6.4121261      163.097  0.041437245  0.042764292            5 
  329000    1.2162578    -6.396993    163.05117  0.041299687  0.042760766            1 
  330000    1.1929628   -6.3455374    164.00899  0.041416411  0.042756537            2 
  331000    1.1932846   -6.3632606    164.20315   0.04134017  0.042752918            1 
  332000    1.1631766   -6.3993838    164.18094  0.041210075  0.042748169            2 
  333000    1.1654709   -6.3588645    165.35254  0.041379514  0.042743365            2 
  334000    1.2057783   -6.3645328    165.27068  0.041235199  0.042737785            3 
  335000    1.1980894   -6.4112705     165.3218  0.041124827  0.042732999            2 
  336000    1.1907837   -6.3973062    166.15221  0.041208386  0.042727313            2 
  337000    1.1898487   -6.3916786    166.11649  0.041077271   0.04272162            3 
  338000    1.1853185   -6.3452571    167.08853  0.041195397  0.042715476            4 
  339000    1.1868015   -6.3823428     167.9289  0.041280457  0.042709896            5 
  340000    1.1676253   -6.3708999    168.60073  0.041323707  0.042705737            3 
  341000     1.188316   -6.3987043    168.62392  0.041208192  0.042700987            4 
  342000    1.2031608    -6.363946    169.81918  0.041378942  0.042697737            2 
  343000     1.194481   -6.3681305    169.77047  0.041246469  0.042694802            2 
  344000    1.2001282   -6.3451556    170.70048   0.04135186  0.042690223            4 
  345000    1.2063021   -6.3777223    170.40308  0.041160165  0.042685138            6 
  346000    1.1938073   -6.3479603    172.11874  0.041454416  0.042680207            6 
  347000    1.2224608   -6.3636303    171.90987  0.041284792   0.04267527            2 
  348000    1.2067134   -6.3761522    171.92065  0.041168739  0.042669151            3 
  349000    1.2059182   -6.3940769     172.7837  0.041256853  0.042662838            1 
  350000    1.1822327   -6.3663363    172.82742  0.041149386  0.042657116            2 
  351000    1.1900611   -6.3340042    173.68266  0.041235199  0.042652032            4 
  352000    1.1962922   -6.3818579     174.2404  0.041250095  0.042647025            3 
  353000    1.1994819    -6.384635    174.96388  0.041304032  0.042641764            8 
  354000    1.1678121    -6.399779    175.38865  0.041287347  0.042637717            5 
  355000    1.1815206   -6.3765531    175.90961  0.041293337  0.042632166            4 
  356000    1.2015651    -6.358129    176.13451  0.041229989  0.042625797            2 
  357000    1.1830551   -6.4104875    176.53882  0.041208874  0.042619405            4 
  358000    1.1936867   -6.3557188    176.71014  0.041133645  0.042612663            2 
  359000    1.1866666   -6.3704935    176.43897  0.040956121  0.042604579            5 
  360000    1.1840454   -6.3991197    177.52472  0.041093685   0.04259693            3 
  361000    1.1935978   -6.4239026    177.71057  0.041022753   0.04258898            1 
  362000    1.1872852   -6.4242929    178.32375  0.041050587  0.042580211            1 
  363000    1.1788317   -6.4051577    178.58455  0.040997371  0.042570614            3 
  364000    1.1797617   -6.3615293    178.38038     0.040838  0.042559901            2 
  365000    1.1977389   -6.4089521    178.60108  0.040776502  0.042548265            3 
  366000     1.197944   -6.3685366    179.56647  0.040884897  0.042537232            2 
  367000    1.1925249   -6.3589386    180.17711   0.04091215  0.042525956            4 
  368000    1.2191271   -6.3716815    180.73497  0.040927302  0.042515111            2 
  369000    1.1738891   -6.3405687    180.62989  0.040792657  0.042504329            3 
  370000    1.1725685     -6.37994    182.01636  0.040994676  0.042492684            3 
  371000    1.2245458   -6.3814975    182.47732  0.040987718  0.042482076            1 
  372000    1.2071815   -6.4136492    182.50209  0.040883085  0.042471292            4 
  373000    1.2218492   -6.4026449    181.95593   0.04065146  0.042459356            3 
  374000    1.1767084   -6.3709929    182.79711  0.040730194  0.042447638            2 
  375000     1.199495   -6.3789754    183.83543  0.040852318  0.042437244            2 
  376000    1.1937598   -6.3885807    184.38107  0.040864599  0.042427529            5 
  377000    1.1604115   -6.4150239    184.13498  0.040701808  0.042417296            3 
  378000    1.2023058   -6.4122739    185.12578  0.040812561  0.042406193            3 
  379000    1.2017154   -6.3857899    185.66701  0.040823882  0.042395655            4 
  380000    1.1952962   -6.3718937    186.43783  0.040885489  0.042385317            3 
  381000    1.1740964    -6.392239    187.05419   0.04091299  0.042375007            3 
  382000    1.1642473   -6.4196031    187.47255  0.040897153  0.042364351            3 
  383000    1.1652031   -6.4151361    187.00606  0.040688874  0.042352856            6 
  384000    1.1788045    -6.396623    187.89693  0.040776243  0.042341062            2 
  385000    1.1795122   -6.3424225    188.61707  0.040826206  0.042330295            2 
  386000    1.2044058   -6.3928341    188.95712  0.040793852  0.042319293            7 
  387000    1.2184634   -6.3750216    188.75945  0.040645876  0.042307298            4 
  388000    1.1537471   -6.3807106    189.40565  0.040679907  0.042295857            7 
  389000    1.1538642     -6.39876    189.89175  0.040679466  0.042283348            3 
  390000    1.1829821   -6.3731905    191.25968  0.040867452  0.042272816            2 
  391000    1.1903671   -6.3574438    191.57053  0.040829184   0.04226223            4 
  392000    1.1907082   -6.3982308    191.33613  0.040675197   0.04225216            1 
  393000    1.1800355   -6.3564819    191.18757  0.040540198  0.042241508            4 
  394000    1.1941887   -6.3913679    192.22488  0.040656701  0.042229939            5 
  395000    1.1824507   -6.4039458    191.98946  0.040504106  0.042217033            3 
  396000    1.2184498   -6.3896455    192.33364   0.04047425  0.042203128            4 
  397000    1.1857891   -6.3283186    193.69169  0.040657366  0.042189106            3 
  398000    1.1794679   -6.4017998    193.43671  0.040501824  0.042177173            5 
  399000    1.1976803   -6.3674436    194.32315  0.040585452  0.042164364            3 
  400000    1.1898197   -6.3800127    194.39538  0.040499037  0.042151789            2 
  401000    1.1786859   -6.3787504    194.94429  0.040512113  0.042138855            2 
  402000    1.1936209   -6.3977453    196.11217  0.040653435  0.042125771            2 
  403000    1.1807798   -6.3956243     195.8187  0.040491873  0.042112391            1 
  404000    1.1801226   -6.4090828    196.42214  0.040516118  0.042098875            3 
  405000    1.1839327   -6.4255054    196.64496  0.040461926  0.042086544            4 
  406000    1.1979203   -6.3719504    197.86082  0.040611826  0.042074872            3 
  407000    1.1977583   -6.3651201    198.20014  0.040581519  0.042063342            3 
  408000    1.1982575    -6.378326    199.02925  0.040651398  0.042051598            1 
  409000    1.2053713   -6.3997986    199.35648   0.04061868  0.042039651            2 
  410000    1.1828675   -6.3828428    199.77901  0.040605489  0.042027382            3 
  411000    1.1979317   -6.4120578    199.79093  0.040509109   0.04201579            2 
  412000    1.2058417    -6.386283    200.50433  0.040555083  0.042003781            1 
  413000    1.1697185   -6.4160555    200.71815   0.04050003  0.041991727            2 
  414000    1.1888209    -6.385654    201.14515  0.040488154  0.041978852            3 
  415000     1.169618   -6.3914641    202.34014   0.04063055  0.041966869            2 
  416000    1.1884671   -6.4084448    202.15404    0.0404956  0.041955563            3 
  417000    1.1873238   -6.4369594    201.80676  0.040329088  0.041943707            2 
  418000    1.2037511   -6.3787693     203.4907  0.040568322  0.041931164            2 
  419000    1.1864541   -6.4150639    202.99636  0.040373182  0.041918059            3 
  420000    1.2022701   -6.4101358    203.16694  0.040310901  0.041904482            2 
  421000    1.2062092   -6.4188436    203.44258  0.040269711  0.041890007            2 
  422000    1.1728587   -6.4462761    203.68444  0.040222045  0.041875748            1 
  423000    1.1609834   -6.3795009    204.82789  0.040352224  0.041862811            2 
  424000    1.1870748   -6.4150661     205.4437  0.040378087  0.041850201            2 
  425000    1.2069094   -6.4028469    206.34019   0.04045886  0.041837818            4 
  426000    1.1670077   -6.4083584    206.19335  0.040335161  0.041826069            2 
  427000      1.19456   -6.3836626    206.72079  0.040343636  0.041813379            4 
  428000    1.1591538   -6.4112491    207.01463  0.040306587  0.041800253            2 
  429000     1.168464   -6.4368883    207.25824  0.040259953  0.041786535            2 
  430000    1.1999193   -6.3759252    208.16145  0.040341366  0.041772905            1 
  431000     1.176352   -6.4115376     207.8096  0.040179737  0.041759329            3 
  432000    1.1538093    -6.388806    208.42412  0.040205271  0.041746358            5 
  433000    1.1829661   -6.4109439    209.35971  0.040292476  0.041733618            3 
  434000    1.1587943   -6.3902641    209.61274  0.040248221  0.041719491            2 
  435000    1.1915891   -6.4128279    209.70172  0.040172743  0.041705731            3 
  436000    1.1655638   -6.3980462    210.89348  0.040308388   0.04169274            2 
  437000    1.1598074   -6.3905576    211.21509  0.040277477    0.0416807            3 
  438000    1.1686055   -6.3885332     211.8893  0.040313794  0.041669474            4 
  439000    1.1983811   -6.4347735    211.85354  0.040215175  0.041658726            2 
  440000    1.1764635   -6.4289088     212.3491  0.040217632  0.041646952            2 
  441000    1.1773776   -6.4159376    212.80577  0.040212731  0.041634791            4 
  442000    1.1756502   -6.3968523    213.69085  0.040288621  0.041623107            2 
  443000    1.2022351   -6.3747739    213.90247  0.040237486  0.041612162            2 
  444000    1.1805183   -6.3849359    214.67616  0.040292072  0.041600885            3 
  445000    1.1581115   -6.4309225    214.22961  0.040117905  0.041588312            4 
  446000    1.1779468   -6.4047265    215.23076  0.040215015  0.041575734            4 
  447000     1.175789   -6.4091384     215.3944  0.040155556  0.041562776            5 
  448000    1.1739675   -6.3979315    215.28568  0.040045699  0.041549532            7 
  449000    1.1904839   -6.3937769    216.12397  0.040112095  0.041535855            2 
  450000    1.1935829   -6.3319935    216.98977   0.04018329  0.041522734            4 
  451000    1.1672116   -6.3737985    217.06052  0.040107265  0.041510199            3 
  452000    1.1801416    -6.388748    216.54438  0.039923373  0.041496052            2 
  453000    1.1773032   -6.4252294    216.63927  0.039852698  0.041481327            3 
  454000    1.1717445   -6.4184224    217.73168  0.039965432  0.041466686            5 
  455000    1.1708142   -6.4151466    218.28829  0.039979539  0.041452784            3 
  456000     1.177153    -6.403433    219.66814  0.040144032  0.041439154            3 
  457000    1.1694646   -6.3746501    218.73779  0.039886541  0.041425756            6 
  458000    1.2122788   -6.3858719    220.26778  0.040077835  0.041412032            3 
  459000    1.1868127   -6.4135268    219.52246  0.039855203  0.041399043            3 
  460000    1.1743462     -6.39356    221.22618  0.040077207   0.04138591            2 
  461000    1.1844136   -6.3755788    220.84529  0.039921419  0.041372758            2 
  462000    1.1737955   -6.4342813    221.81158  0.040009303  0.041359542            2 
  463000    1.2144339   -6.4104519    221.99867  0.039956564     0.041347            2 
  464000    1.1781638   -6.4145674    223.50539  0.040141055  0.041334733            1 
  465000    1.1526787   -6.4475448     222.7353  0.039916721  0.041322282            5 
  466000    1.1697382   -6.3772905    223.77066  0.040016213  0.041310203            2 
  467000    1.1972923   -6.3793065    224.44491   0.04005084  0.041298044            2 
  468000    1.1574802   -6.4565881    223.63586    0.0398212  0.041284946            5 
  469000    1.1835071   -6.3996851    224.73656  0.039931869  0.041271504            1 
  470000    1.1849853   -6.4384736    224.84703  0.039866495  0.041257321            2 
  471000    1.1924597   -6.4270546    224.97854  0.039805121  0.041243585            3 
  472000    1.1768663    -6.401389    225.81204  0.039867946   0.04122884            2 
  473000    1.1731625   -6.4266402    225.90739  0.039800457  0.041214594            3 
  474000    1.1469425    -6.412848    227.09146  0.039924658  0.041200741            2 
  475000    1.2040074   -6.4438752    226.34037  0.039708836  0.041187114            3 
  476000    1.1861141   -6.4127525    228.34489  0.039976347   0.04117379            4 
  477000    1.1712127   -6.4472486      227.307  0.039711216  0.041160761            3 
  478000    1.2011987   -6.4202152    228.22471  0.039788129  0.041147493            2 
  479000    1.1846548    -6.375126    229.45466  0.039919043  0.041134703            4 
  480000    1.2031149   -6.3751787      229.836  0.039902083  0.041122324            1 
  481000    1.1963857   -6.4012278    229.94173  0.039837445   0.04110963            3 
  482000    1.1765314   -6.4161775    229.93369  0.039753404  0.041096735            5 
  483000    1.1589993   -6.4518197    230.20838  0.039718492  0.041083489            3 
  484000    1.1580331   -6.3927451    230.73343  0.039726829  0.041070639            3 
  485000    1.1678805   -6.4285864    231.47594  0.039772498  0.041058068            2 
  486000    1.1670943   -6.4050685    231.38136  0.039674445   0.04104503            3 
  487000    1.2045765   -6.3862831    232.91353  0.039855156  0.041032787            2 
  488000    1.1641402   -6.3906964    232.79681  0.039753553  0.041020132            4 
  489000    1.1763994   -6.3864982    233.33794  0.039764474  0.041007378            4 
  490000    1.1773534   -6.4270867    233.55769  0.039720695  0.040994686            4 
  491000    1.1518601   -6.4244474    234.25892  0.039758812  0.040982485            2 
  492000       1.1713    -6.427478    235.94417  0.039963444  0.040971121            2 
  493000    1.1715643   -6.4165346     235.8351  0.039863946  0.040960662            2 
  494000    1.1833693   -6.4056643    235.96846  0.039805746  0.040950253            4 
  495000    1.1620153   -6.4268484    236.61436  0.039834067  0.040939797            3 
  496000    1.1910991   -6.4321331    237.99215   0.03998524  0.040928741            2 
  497000    1.1740517   -6.4032153    237.76937  0.039867433  0.040918215            4 
  498000    1.1762117   -6.4360434     237.7807  0.039789274  0.040908086            4 
  499000    1.1712264   -6.4292254     238.9036  0.039897061  0.040898272            1 
  500000    1.1490485   -6.4018003    239.27015  0.039878359  0.040888595            3 
  501000    1.1605957   -6.4127776    239.38984  0.039818669  0.040878646            2 
  502000    1.1973802    -6.428444    239.60386  0.039774877  0.040868511            2 
  503000     1.159217   -6.4138309    240.04235  0.039768447   0.04085862            5 
  504000    1.1628527   -6.4187284    240.77478  0.039810645  0.040848503            3 
  505000    1.1692944   -6.3974466     241.2314  0.039807162  0.040838669            3 
  506000    1.1736504   -6.4143845    240.81737  0.039660304  0.040828184            3 
  507000    1.1748572   -6.4327185    242.00728  0.039777659  0.040817284            3 
  508000    1.1902888   -6.4166882    242.15019    0.0397228  0.040806445            5 
  509000    1.1679832   -6.4182225    241.88511  0.039601361  0.040795114            3 
  510000    1.1772256   -6.4241607    242.68838  0.039654964  0.040784048            2 
  511000    1.1607565   -6.4243869    243.22227  0.039664427  0.040772766            3 
  512000    1.1662741   -6.4377888    243.81802  0.039683923  0.040762269            3 
  513000    1.1759929   -6.4465561    244.39126  0.039699685  0.040751715            4 
  514000    1.1647214   -6.4472326    245.37294  0.039781605  0.040742054            2 
  515000    1.1644479   -6.4081416    245.82632  0.039777722   0.04073224            2 
  516000    1.1647229   -6.4371029    246.44219  0.039800095  0.040722844            4 
  517000    1.1462932   -6.4195465    246.11803  0.039670862  0.040712768            3 
  518000    1.1767999   -6.4154452    247.10146  0.039752487  0.040702932            2 
  519000    1.1838205   -6.4816036    247.56168  0.039749789  0.040693855            2 
  520000    1.1676136   -6.4009552    247.82333  0.039715277  0.040684601            2 
  521000    1.1760725   -6.4244242    248.56433  0.039757571  0.040674795            2 
  522000    1.1954175   -6.4373485    248.44326  0.039662079  0.040665551            3 
  523000    1.1665886   -6.4099117    248.57976  0.039607993  0.040655376            3 
  524000    1.1589545   -6.4438012    248.98414  0.039596714  0.040645482            4 
  525000    1.1788111   -6.4409181    250.60362  0.039778353  0.040635837            3 
  526000    1.1882698   -6.4290082    249.94261  0.039598005  0.040625885            1 
  527000    1.1799992   -6.4288867    250.92138  0.039677637  0.040615954            2 
  528000    1.1559387   -6.4368107    251.50366  0.039694391  0.040606359            2 
  529000    1.1565964   -6.4612973    250.48132  0.039458304  0.040596623            2 
  530000    1.1589496   -6.4146668    251.92639  0.039611068  0.040587206            6 
  531000    1.1634301    -6.435566     252.0917  0.039562413   0.04057773            3 
  532000    1.1754148   -6.4570243    253.64062  0.039730674  0.040568415            4 
  533000    1.1830054   -6.4332275    254.00918  0.039713755  0.040559126            7 
  534000    1.1955197   -6.4522585    254.21693  0.039671805  0.040550214            3 
  535000    1.1595986   -6.4718251    254.16554  0.039589649  0.040540871            7 
  536000    1.1631242   -6.4467261    254.90398  0.039630594  0.040531953            3 
  537000     1.144834   -6.4210022    255.72671  0.039684467  0.040523359            2 
  538000    1.1959033   -6.4414991    256.09614  0.039667927  0.040515427            2 
  539000    1.1821296    -6.485658    256.89313  0.039717553  0.040507264            2 
  540000    1.1680006   -6.4532342     256.8948   0.03964426  0.040498899            2 
  541000    1.1621113   -6.4451597    257.73393  0.039700235  0.040491344            1 
  542000    1.1531382   -6.4455026    258.31264  0.039715965   0.04048411            4 
  543000    1.1673792   -6.4137344    258.96334  0.039742685  0.040477058            3 
  544000    1.1738396   -6.4380444    259.55329  0.039760002  0.040469333            4 
  545000    1.1490901   -6.4152444    259.34887  0.039655791  0.040461524            2 
  546000    1.1842315    -6.388413    260.80717  0.039805734   0.04045448            3 
  547000    1.1552046   -6.4242524    261.52717  0.039842652   0.04044739            3 
  548000    1.1954382   -6.4340638    262.17247  0.039868077  0.040440907            1 
  549000    1.1382353   -6.4412597     261.4912  0.039692046   0.04043415            2 
  550000    1.1747683   -6.4629072    262.89097  0.039831965  0.040428101            3 
  551000    1.1536047   -6.4696427    262.38762  0.039683549  0.040421746            4 
  552000     1.158929   -6.4316738    263.61156  0.039796431  0.040415791            3 
  553000    1.1241641   -6.4510377    264.20034  0.039813192  0.040409639            4 
  554000    1.1721868     -6.39798    265.06112  0.039870806  0.040403632            3 
  555000    1.1828526   -6.4370721    264.21799  0.039672371  0.040397039            4 
  556000    1.1635611   -6.4273811    264.52951  0.039647708  0.040389648            4 
  557000    1.1680716   -6.4479121    265.07908  0.039658749  0.040382579            3 
  558000    1.1545775   -6.4492077    265.23245   0.03961058  0.040375055            3 
  559000    1.1590543   -6.4327661    266.65706  0.039752096   0.04036849            1 
  560000    1.1553608   -6.4075165    266.84802  0.039709527  0.040361121            2 
  561000    1.1695396   -6.4185593    266.42293  0.039575599  0.040353541            7 
  562000    1.1600606   -6.4703435    267.02368  0.039594258  0.040345791            6 
  563000    1.1540494   -6.4407759    267.17354  0.039546113  0.040337428            2 
  564000    1.1889417   -6.4276214    267.36776  0.039504693  0.040329182            2 
  565000    1.1849233   -6.4501056    268.50465  0.039602456  0.040321616            6 
  566000    1.1516907   -6.4179537    269.87289  0.039733936  0.040314353            2 
  567000    1.1737536     -6.43967    269.55898  0.039617723  0.040307273            3 
  568000    1.1869631   -6.4407502    269.52095  0.039542393  0.040299222            6 
  569000    1.1410044   -6.4615858    269.17513  0.039422251  0.040290892            3 
  570000    1.1517968   -6.4202135    269.44232  0.039392151  0.040281977            2 
  571000    1.1457675   -6.4506402    270.06386  0.039413873  0.040272752            6 
  572000    1.1618952   -6.4337331    270.43268  0.039398701  0.040262965            2 
  573000    1.1568304   -6.4324912     270.7902  0.039381937  0.040254026            3 
  574000    1.1550234   -6.4306468    270.92793  0.039333323  0.040245486            4 
  575000    1.1682509   -6.4542358    272.33297  0.039468546  0.040236391            4 
  576000    1.1610809   -6.4709138    272.62148  0.039441765    0.0402276            3 
  577000    1.1686815   -6.4059389    273.23615  0.039462183  0.040219482            2 
  578000    1.1590217   -6.4367821    274.26006  0.039541531   0.04021069            3 
  579000     1.178103   -6.4091292    274.14356  0.039456471    0.0402025            1 
  580000     1.151758   -6.5036341     273.2196  0.039255689  0.040193498            3 
  581000    1.1637074   -6.4525847    274.83638  0.039420021  0.040184254            3 
  582000    1.1645492   -6.4381339    273.63449  0.039180196  0.040175323            3 
  583000    1.1528224   -6.4506598    275.92559  0.039440478  0.040166587            1 
  584000    1.1373347   -6.4570028    275.69685  0.039340304  0.040157464            2 
  585000    1.1646335   -6.4298666    276.01008  0.039317675  0.040148441            3 
  586000    1.1630423   -6.4528686    276.43838  0.039311487  0.040139094            2 
  587000     1.164935   -6.4766729    276.47931  0.039250328  0.040129973            2 
  588000     1.144942   -6.4444283    277.01901  0.039260063  0.040120747            2 
  589000    1.1590253   -6.4430072    277.36019   0.03924168  0.040111482            5 
  590000    1.1648677   -6.4267211    278.48734   0.03933437  0.040102327            6 
  591000    1.1738464   -6.4267656     279.5727  0.039420855  0.040093714            3 
  592000    1.1265825   -6.4486177    278.25855  0.039169277  0.040084633            8 
  593000    1.1686534   -6.4551822    278.44464  0.039129375  0.040074368            6 
  594000    1.1492642   -6.4451887    279.61513  0.039227711  0.040064138            2 
  595000    1.1638598    -6.466876    279.45787  0.039139757  0.040054545            2 
  596000    1.1613087   -6.4701928    280.84949  0.039268665  0.040045569            4 
  597000    1.1453116    -6.452457    281.58465  0.039305507  0.040036504            3 
  598000    1.1583112   -6.4351892     282.0227  0.039300822   0.04002772            2 
  599000    1.1467963   -6.4181106     281.7184  0.039192877  0.040018521            2 
  600000    1.1378445   -6.4642802    282.20055   0.03919452  0.040009435            2 
  601000    1.1503685   -6.4599431    282.83356  0.039217078   0.03999973            2 
  602000    1.1559686   -6.4332887    283.11986  0.039191564  0.039990643            1 
  603000    1.1653469   -6.4754746    282.69127  0.039067339  0.039980924            2 
  604000    1.1321138   -6.4915257    282.85469  0.039025206  0.039971031            2 
  605000    1.1505168   -6.4359935    284.20711  0.039146984  0.039961582            3 
  606000    1.1616583   -6.4344655      284.286  0.039093235  0.039952301            2 
  607000     1.154112   -6.4452456    285.68131  0.039220389  0.039942865            2 
  608000     1.137151   -6.4235788    285.66958  0.039154274  0.039933522            2 
  609000    1.1574145   -6.4678048    286.35149  0.039183291  0.039924675            2 
  610000    1.1588203   -6.4611139    286.21041  0.039099783  0.039915426            2 
  611000    1.1609209   -6.4511892    286.06861   0.03901645  0.039906211            3 
  612000     1.144124   -6.4798496    287.31795  0.039122815  0.039896685            1 
  613000    1.1590347   -6.4870654    286.63055  0.038965545  0.039886826            2 
  614000    1.1161302   -6.4459152     287.0788   0.03896292  0.039877247            2 
  615000    1.1570786   -6.4481195    287.95811  0.039018715  0.039867082            3 
  616000    1.1938793   -6.4310434     288.4197  0.039017817  0.039857506            2 
  617000    1.1297171   -6.4412763    289.17102  0.039056053   0.03984734            3 
  618000    1.1701941    -6.468238     289.0705  0.038979301  0.039837273            4 
  619000    1.1476745   -6.4403727    289.74823  0.039007571  0.039827698            2 
  620000    1.1491938   -6.4615967     290.5329  0.039050121  0.039818483            1 
  621000    1.1467718    -6.457062     291.1878   0.03907512  0.039810077            3 
  622000    1.1732332   -6.5024828    291.23286  0.039018336  0.039800978            2 
  623000    1.1541261    -6.483187    291.81788  0.039033959  0.039791836            4 
  624000    1.1276969   -6.4858937    292.09838  0.039008865  0.039782772            3 
  625000    1.1344858   -6.4849841     293.1935  0.039092466  0.039773801            1 
  626000    1.1581819   -6.4660924    294.25228  0.039170964  0.039765646            2 
  627000    1.1467223   -6.4408333    294.94796  0.039200952  0.039757308            5 
  628000    1.1473145   -6.4348967    293.84978  0.038992805  0.039748663            4 
  629000    1.1378601   -6.4720772    293.31537  0.038860012  0.039739509            1 
  630000     1.145049   -6.4330023    295.11748  0.039036704  0.039730019            3 
  631000    1.1549058   -6.4854172    295.87458  0.039074826  0.039721145            2 
  632000    1.1430953   -6.4465796    295.27162  0.038933494  0.039711758            2 
  633000    1.1521343    -6.450971    295.31115  0.038877192  0.039702178            2 
  634000    1.1487547   -6.4997715     296.6836  0.038996267   0.03969266            3 
  635000    1.1445516    -6.428916     297.0419  0.038981876  0.039683295            3 
  636000    1.1318788   -6.4630473    296.91888  0.038904465  0.039673613            2 
  637000     1.183951   -6.4746424    296.92905  0.038844721  0.039663699            3 
  638000    1.1561407    -6.467302    298.06135  0.038931733  0.039653402            2 
  639000    1.1488546   -6.4619876    297.41718    0.0387868  0.039643504            2 
  640000    1.1485404   -6.4508939    298.48045  0.038864642  0.039633811            2 
  641000    1.1622663   -6.4781411     298.3531  0.038787454  0.039623612            2 
  642000    1.1458509   -6.4358994    299.20522  0.038837646   0.03961315            1 
  643000     1.160403   -6.4607696    298.73822  0.038716721  0.039602488            3 
  644000    1.1451223   -6.5020176     299.0455  0.038696364  0.039591624            2 
  645000    1.1124148    -6.507491    299.38255  0.038679916  0.039580856            1 
  646000    1.1518693   -6.5065803     299.3492  0.038615738   0.03956992            2 
  647000    1.1102392   -6.4997916    299.75694  0.038608571  0.039558897            6 
  648000    1.1580546   -6.4555803    300.31774  0.038621109  0.039548359            3 
  649000     1.166191    -6.464864    301.21132  0.038676338  0.039537682            3 
  650000    1.1579007   -6.4627066    301.89874  0.038704967  0.039527089            2 
  651000    1.1442256   -6.4166507    302.79892  0.038760742   0.03951713            1 
  652000     1.128397   -6.4571712    303.15457   0.03874675   0.03950688            4 
  653000    1.1638464   -6.4796746    302.56451  0.038612113  0.039496937            2 
  654000    1.1705959   -6.4760738    303.46391  0.038667674  0.039486967            3 
  655000    1.1498436   -6.4739874    303.49544  0.038612651  0.039476638            2 
  656000    1.1451695    -6.454026    304.23334  0.038647528  0.039466013            3 
  657000    1.1538228    -6.473751    304.64874  0.038641393  0.039455897            2 
  658000    1.0976611   -6.4611161    305.67513  0.038712655  0.039446335            3 
  659000    1.1612389   -6.4821778     305.0302  0.038572357  0.039436734            4 
  660000    1.1441169   -6.5017675    306.47509   0.03869635  0.039427072            2 
  661000    1.1351383   -6.4452995    306.67833   0.03866343  0.039417357            3 
  662000     1.127203   -6.4667297    307.42305  0.038698773  0.039407938            2 
  663000     1.147596   -6.4820492    306.85826  0.038569414  0.039398946            3 
  664000    1.1769434   -6.4523714    308.47121  0.038713757  0.039389704            3 
  665000    1.1433048   -6.4514368    309.57925  0.038794392  0.039380467            2 
  666000    1.1542113   -6.4894703    308.02372  0.038541507  0.039370798            3 
  667000    1.1156142   -6.4676835    309.94952  0.038724328  0.039361495            2 
  668000    1.1417077   -6.4440312    309.15258  0.038566939   0.03935153            2 
  669000     1.154597   -6.4701085    310.02152  0.038617529  0.039342451            2 
  670000    1.1282171   -6.4684727    310.64684  0.038637667  0.039332735            3 
  671000    1.1266888   -6.4381271     310.5243  0.038564865  0.039322956            2 
  672000    1.1406912   -6.4920988    310.81325   0.03854331  0.039313689            6 
  673000    1.1541656   -6.4573051    312.44203  0.038687721  0.039304927            2 
  674000    1.1615978   -6.5166708    311.94725  0.038569145  0.039296424            2 
  675000    1.1255971    -6.444832    313.56453  0.038711671  0.039287691            3 
  676000    1.1417256   -6.4697909    313.52862  0.038649978  0.039279032            2 
  677000    1.1498338    -6.508363    313.02102  0.038530406  0.039270204            2 
  678000    1.1083996   -6.4847702    314.30742  0.038631688  0.039261109            2 
  679000    1.1438371   -6.5134519     314.5181  0.038600651  0.039252562            4 
  680000    1.1363368   -6.4845479    315.06459  0.038610856  0.039243797            4 
  681000    1.1463173   -6.4698487     315.9922   0.03866767  0.039235596            2 
  682000    1.1530281   -6.5314559    314.86217  0.038472894  0.039227097            3 
  683000    1.1434657   -6.4710627     316.1966   0.03857938  0.039218288            4 
  684000     1.144332   -6.4738195    316.87009  0.038605031  0.039209482            6 
  685000    1.1253024   -6.4679311    316.78702  0.038538567  0.039200605            4 
  686000    1.1468105   -6.4830548    316.90758  0.038497033  0.039191841            2 
  687000     1.123437   -6.5199914    317.52784  0.038516235  0.039182936            2 
  688000    1.1439038   -6.4534234    317.94709  0.038511034  0.039173657            6 
  689000    1.1152871   -6.4810857    318.38749  0.038508405  0.039164288            3 
  690000    1.1430703   -6.4772634     319.5813  0.038596775  0.039155397            4 
  691000    1.1354083   -6.4638762    319.38575  0.038517336  0.039146246            5 
  692000     1.155775   -6.5084915    319.98988  0.038534427   0.03913698            6 
  693000    1.1205723   -6.4859494    319.21389  0.038385509  0.039127953            2 
  694000    1.0991192   -6.4549104    321.01437  0.038546394  0.039119489            5 
  695000    1.1608232   -6.5040643    320.43157  0.038421051  0.039110824            3 
  696000    1.1738199   -6.5086493    320.47492  0.038371039  0.039102102            6 
  697000    1.1247411   -6.4783158    321.31838  0.038416832  0.039093196            5 
  698000    1.1499578   -6.4661449    322.29994   0.03847898  0.039084618            3 
  699000    1.1415136   -6.4934718     322.0073  0.038389044   0.03907589            4 
  700000     1.128685   -6.4640582    322.91344  0.038442076   0.03906667            4 
  701000    1.1477022   -6.4699298    323.15978  0.038416521   0.03905812            2 
  702000    1.1459358   -6.4916188    324.49616  0.038520437  0.039049656            2 
  703000    1.1350568   -6.5330138    323.75183   0.03837741  0.039041168            3 
  704000    1.1227212   -6.4916728    325.45502  0.038524505  0.039032334            3 
  705000    1.1327523   -6.4893576    324.38283  0.038343124  0.039023424            4 
  706000    1.1639633   -6.4812758    324.73265  0.038330105  0.039014096            2 
  707000     1.132801     -6.46538    325.67939  0.038387481  0.039004579            5 
  708000    1.1296657   -6.4643087     325.3889   0.03829907  0.038995567            6 
  709000    1.1065406   -6.4693596    326.90847  0.038423657  0.038986497            3 
  710000    1.1399721   -6.4774458     325.9177  0.038253251  0.038977523            2 
  711000    1.1345343   -6.4760074      326.459  0.038262893    0.0389682            2 
  712000    1.1481482   -6.4893336    327.35681  0.038314233  0.038958956            3 
  713000    1.1604128   -6.4758802    326.69957  0.038183681  0.038949679            3 
  714000    1.1338778   -6.4691777    328.31237  0.038318437  0.038940022            2 
  715000    1.1441685   -6.4610745    328.45317  0.038281256  0.038930447            4 
  716000    1.1231292   -6.5172169     328.5084  0.038234217  0.038921109            4 
  717000     1.167477    -6.491661    329.50329  0.038296524   0.03891161            4 
  718000    1.1400009   -6.4989761    329.48531  0.038241099  0.038902637            2 
  719000    1.1436541   -6.4743833    330.54077  0.038310242   0.03889373            2 
  720000     1.122081   -6.4770686    330.27885  0.038226719  0.038884728            3 
  721000    1.1240873   -6.4552664     330.0198  0.038143759  0.038875031            2 
  722000    1.1148206    -6.498133    329.85154  0.038071508  0.038865632            3 
  723000    1.1386654   -6.5153735     330.2802  0.038068257  0.038856265            2 
  724000    1.1308061   -6.4843084    331.99922  0.038213538  0.038847044            4 
  725000    1.1474667   -6.4824583    332.22184  0.038186418  0.038837907            4 
  726000    1.1322133   -6.4861854    332.60388  0.038177672  0.038828815            3 
  727000    1.1567926   -6.4744282    332.96721  0.038166805   0.03881991            2 
  728000    1.1416801   -6.5282404     332.9878  0.038116736  0.038810496            3 
  729000    1.1102435    -6.465325    334.00112  0.038180284  0.038801185            2 
  730000    1.1254565   -6.4976697    333.33386   0.03805181  0.038791917            3 
  731000    1.1376441   -6.5051685      334.254  0.038104651  0.038782196            4 
  732000    1.1306601    -6.481224     334.4009  0.038069319  0.038772609            3 
  733000     1.127757   -6.4876309     335.6102  0.038154866  0.038763023            3 
  734000    1.1367357   -6.4742699     335.6217  0.038104189  0.038753287            2 
  735000    1.1232124   -6.4513339    335.88557  0.038082264    0.0387438            2 
  736000    1.1400042     -6.47667    336.11451  0.038056443   0.03873407            3 
  737000    1.1305074   -6.5406525    336.33904  0.038030195  0.038724444            3 
  738000    1.1250428   -6.4697828    337.37756   0.03809593  0.038714573            3 
  739000    1.1587685   -6.4781348    338.05867  0.038121185  0.038704928            3 
  740000    1.1316999   -6.5024763    336.46328  0.037890009  0.038695125            4 
  741000       1.1112   -6.4979877    338.63186  0.038082755  0.038685003            2 
  742000    1.1330629   -6.4952912    337.98999  0.037959343  0.038675381            2 
  743000     1.140072   -6.4638916    338.18577  0.037930212  0.038665577            2 
  744000    1.1385209    -6.489986    337.69867  0.037824672  0.038655329            7 
  745000    1.1106992    -6.504888    339.41723  0.037966133  0.038645134            2 
  746000    1.1249233   -6.5051143    339.35181  0.037907932  0.038635051            3 
  747000    1.1466947    -6.499555     338.7589  0.037791042  0.038625014            5 
  748000    1.1432353   -6.5350485    340.62857  0.037948816  0.038614481            3 
  749000    1.1581914   -6.4852601    341.13696  0.037954712  0.038604319            2 
  750000    1.1524519   -6.5306865    341.32952  0.037925502   0.03859448            3 
  751000    1.1461196   -6.4699608    341.65635  0.037911268  0.038585041            4 
  752000    1.1419825   -6.5363884     340.3761  0.037718982  0.038574906            3 
  753000    1.1287275   -6.5189836    341.23433   0.03776387  0.038564409            2 
  754000     1.136836   -6.5012029     341.9864  0.037796905  0.038553737            5 
  755000    1.1312919   -6.5017382    343.24247  0.037885483  0.038543324            3 
  756000    1.1273962   -6.4810568    342.65387  0.037770488  0.038532974            4 
  757000    1.1127876   -6.4866709    343.77886  0.037844436  0.038522488            4 
  758000    1.1540102   -6.4983226    342.45935  0.037649445  0.038511865            2 
  759000    1.1430508   -6.4880034    343.95011  0.037763517  0.038501771            5 
  760000    1.1124819   -6.5684269    342.92671  0.037601613  0.038491363            3 
  761000    1.1412697   -6.4791364    344.13305  0.037684302   0.03848106            2 
  762000    1.1540678   -6.4728816     345.7284  0.037809317  0.038471041            3 
  763000    1.1273829   -6.4874943    345.39403  0.037723244  0.038460606            4 
  764000    1.1375123   -6.4911285     346.7435  0.037821062  0.038450066            3 
  765000    1.1250124   -6.4969301    347.15272  0.037816201  0.038439999            4 
  766000    1.1214848   -6.5006773    347.25242  0.037777679  0.038430082            3 
  767000    1.1243999   -6.5021206    346.56525  0.037653764   0.03842012            2 
  768000    1.1051984    -6.483354    347.14186  0.037667303  0.038410185            3 
  769000    1.1236277   -6.5332001    348.20581  0.037733616  0.038400283            3 
  770000     1.129674    -6.489009    349.19279  0.037791427  0.038390199            7 
  771000     1.134994    -6.530022     348.6521  0.037683971  0.038380101            4 
  772000    1.1603227   -6.4894534      349.614   0.03773899  0.038370175            2 
  773000    1.1291167   -6.4903647    349.91382   0.03772249  0.038360996            3 
  774000     1.142983   -6.5068885    350.64474  0.037752448  0.038351175            2 
  775000    1.1156838   -6.5172916    350.20395  0.037656338  0.038341217            4 
  776000    1.1258144   -6.5016017    351.56428  0.037753896  0.038331338            3 
  777000    1.1202099   -6.5264291    350.72887  0.037615708   0.03832177            2 
  778000    1.1393679   -6.4974322    351.42531  0.037641956  0.038311517            3 
  779000    1.1254804    -6.483353    352.47432  0.037705854  0.038301817            3 
  780000    1.1444468   -6.5055919    352.47608  0.037657701  0.038291759            5 
  781000    1.0938611   -6.5453902    353.00572  0.037665996  0.038281678            4 
  782000     1.118701   -6.4988717    352.30725  0.037543399  0.038271643            3 
  783000    1.1454697   -6.5396959    353.35937  0.037607426   0.03826169            8 
  784000    1.1413249   -6.4874227    354.13703  0.037642116  0.038251858            3 
  785000    1.1300415   -6.5091932    354.04434  0.037584325  0.038242332            2 
  786000    1.1404135   -6.4928188    355.46231  0.037686844  0.038232709            2 
  787000     1.105724   -6.5111358     355.7033  0.037664475  0.038223209            2 
  788000    1.1220056   -6.5571588     355.1748  0.037560787  0.038213356            4 
  789000    1.1466784   -6.4888228    355.84822  0.037584308  0.038203725            3 
  790000    1.1514149   -6.5314792    356.12789  0.037566233  0.038194129            1 
  791000    1.1354408    -6.501194    356.42156  0.037549679  0.038184643            6 
  792000    1.1255272    -6.538455    357.48573  0.037614239  0.038175569            4 
  793000    1.1455621   -6.5144595    358.90469   0.03771592  0.038166213            4 
  794000      1.13834   -6.4940666    358.83988  0.037661616  0.038157162            3 
  795000    1.1291082   -6.5207739    358.77009  0.037606927  0.038148291            3 
  796000    1.1231944   -6.5171432    358.56912  0.037538643  0.038139116            3 
  797000     1.100298   -6.4728951    359.54489  0.037593569  0.038129981            3 
  798000    1.1126226   -6.4984654    358.95573  0.037484934  0.038120727            3 
  799000    1.1269793   -6.4937959    360.01471  0.037548468  0.038111535            2 
  800000    1.1471695   -6.5185463    360.40457  0.037542143  0.038102518            2 
  801000    1.1252682   -6.5208221    360.28321  0.037482647   0.03809336            5 
  802000    1.1456333   -6.4831946    361.77469  0.037590887   0.03808438            5 
  803000    1.1050987   -6.4957175    362.24119  0.037592485   0.03807516            2 
  804000    1.1170337   -6.5025469    361.56836   0.03747599  0.038066202            5 
  805000    1.1209912   -6.4929421    362.32371  0.037507631  0.038056868            3 
  806000    1.1203258   -6.5438409    362.99898  0.037530912   0.03804768            5 
  807000    1.1235353   -6.5366849     362.2522  0.037407291  0.038038177            4 
  808000     1.128617    -6.527214    362.94751  0.037432705  0.038028942            3 
[...]
 4800000   0.48736442   -7.8233364    832.81703  0.014458629  0.012936533           82 
 4801000   0.48514521    -7.816435    831.82461  0.014438391  0.012932499           79 
 4802000   0.48860698   -7.8268631    832.26462  0.014443021  0.012928468           70 
 4803000   0.49039599    -7.834679    831.40273   0.01442506  0.012924435           70 
 4804000   0.48089449   -7.8131085    831.57394  0.014425027  0.012920405           61 
 4805000   0.47922167   -7.8284004     832.9513  0.014445912  0.012916372           33 
 4806000   0.48551534   -7.8264723    833.32151  0.014449326  0.012912345           49 
 4807000   0.49510329   -7.8115396    832.03235  0.014423971  0.012908319           89 
 4808000    0.4831908   -7.8222657    831.33539  0.014408891  0.012904295           53 
 4809000   0.48959424   -7.8204648    830.83807  0.014397277   0.01290027           47 
 4810000   0.48038605   -7.8287148    831.91106  0.014412874  0.012896249           52 
 4811000   0.48717844   -7.8309742    831.80674  0.014408071  0.012892227           31 
 4812000   0.48754408   -7.8142197    832.58884  0.014418621  0.012888209           61 
 4813000   0.48637634   -7.8180558    832.17281  0.014408422  0.012884193           56 
 4814000   0.48308163   -7.8226771    833.10709  0.014421602   0.01288018           55 
 4815000   0.46840666   -7.8280818    832.19564  0.014402832  0.012876167           79 
 4816000   0.47739798   -7.8189785    832.52719  0.014405579  0.012872155           53 
 4817000   0.48412826   -7.8207775    830.59655  0.014369188  0.012868147           48 
 4818000   0.48024912   -7.8350982      831.213  0.014376868  0.012864137           82 
 4819000   0.47969849   -7.8209335    831.33769  0.014376041  0.012860131           78 
 4820000     0.475801   -7.8174881    831.88765  0.014382567  0.012856129           62 
 4821000   0.47500057   -7.8186922    832.78488  0.014395092  0.012852126           27 
 4822000   0.47640793   -7.8212605    832.62924  0.014389417  0.012848126           57 
 4823000   0.48246468   -7.8034711    832.43331  0.014383048  0.012844131           74 
 4824000   0.47860677   -7.8252388    832.24661  0.014376842  0.012840136           44 
 4825000   0.47176006   -7.8210996    832.59319  0.014379848  0.012836138           37 
 4826000   0.48356017   -7.8353977    832.97841   0.01438352  0.012832142           56 
 4827000   0.47529178   -7.8177418    832.36391  0.014369931  0.012828145           56 
 4828000   0.46671902   -7.8343375    833.08185  0.014379347   0.01282415           57 
 4829000   0.49239341   -7.8367272    831.68493  0.014352263  0.012820155           34 
 4830000   0.47379234    -7.822462    830.92873  0.014336245  0.012816158           63 
 4831000   0.46960893   -7.8321558     832.5202  0.014360729  0.012812164           56 
 4832000   0.48202773   -7.8247346     831.6931  0.014343493  0.012808175          100 
 4833000   0.47854628   -7.8105732    832.16272  0.014348623  0.012804187           49 
 4834000   0.47794128   -7.8241602    832.55947  0.014352494  0.012800197          102 
 4835000   0.46984654   -7.8166013    832.34692  0.014345862   0.01279621           78 
 4836000   0.47787771   -7.8272645    831.55243  0.014329205  0.012792224           53 
 4837000   0.47884908   -7.8315198    831.73326  0.014329358  0.012788243           47 
 4838000   0.47206297   -7.8331008    831.08719  0.014315268   0.01278426           55 
 4839000    0.4761383    -7.815275     831.5166  0.014319704  0.012780275           60 
 4840000   0.47889007   -7.8399148    830.66006  0.014301998  0.012776294           47 
 4841000   0.47227513   -7.8357199    832.38523  0.014328741  0.012772317           58 
 4842000   0.47757229   -7.8287965    830.86825  0.014299674  0.012768341           48 
 4843000   0.47219712   -7.8173613     830.0677  0.014282946  0.012764369           45 
 4844000   0.47657927   -7.8210962    832.39138  0.014319973  0.012760395           76 
 4845000   0.47564405   -7.8348526    831.77533  0.014306421  0.012756417           74 
 4846000   0.47599596   -7.8245997    830.53416  0.014282125  0.012752442           70 
 4847000   0.46491949   -7.8456478    832.51878    0.0143133  0.012748468           87 
 4848000    0.4758047   -7.8371003    831.15695  0.014286939  0.012744497          112 
 4849000   0.47986775   -7.8306158    830.65878  0.014275431  0.012740527           54 
 4850000   0.47302165   -7.8228155    831.07599  0.014279656   0.01273656           61 
 4851000   0.46159447   -7.8272215    831.80777  0.014289284  0.012732588           64 
 4852000   0.47624932   -7.8433879    831.81545   0.01428647  0.012728623           50 
 4853000   0.48054428   -7.8448709    831.37643  0.014275988  0.012724659           52 
 4854000   0.48125616   -7.8401096    831.46586  0.014274582  0.012720692           65 
 4855000   0.47631802   -7.8408932    831.28169  0.014268481  0.012716733           58 
 4856000   0.47320735   -7.8345718    831.65865  0.014272012  0.012712775           47 
 4857000   0.48981805    -7.845099    831.33957  0.014263598  0.012708818          120 
 4858000   0.47709532   -7.8431371    831.25324  0.014259181  0.012704862          108 
 4859000   0.46961106   -7.8213266    833.58856  0.014296298  0.012700913           49 
 4860000   0.48179185   -7.8197039    831.46387  0.014256925  0.012696967           55 
 4861000   0.47136044   -7.8264822    830.47018  0.014236957  0.012693019           50 
 4862000   0.48223229   -7.8220692     831.1815  0.014246221  0.012689073           61 
 4863000   0.47955114    -7.834449    831.28354   0.01424504  0.012685124           27 
 4864000   0.48728414   -7.8317019    831.66649  0.014248672  0.012681176           60 
 4865000    0.4776983   -7.8234398    830.56639  0.014226899  0.012677231           53 
 4866000   0.47155888   -7.8512521    831.97662  0.014248127   0.01267329           74 
 4867000   0.46710222   -7.8310265    830.73126  0.014223876  0.012669349           46 
 4868000   0.46708177   -7.8410302    831.20104  0.014228996   0.01266541           69 
 4869000   0.47063814   -7.8377233    830.88882   0.01422073  0.012661471           66 
 4870000   0.46795596    -7.840821    831.05214  0.014220605  0.012657533           54 
 4871000   0.48569131   -7.8400948    830.68448  0.014211395  0.012653597           95 
 4872000   0.47105241     -7.83759    833.00498   0.01424817   0.01264966           52 
 4873000   0.47623867   -7.8367659    831.35197  0.014216977  0.012645725           78 
 4874000   0.48488616   -7.8493956    832.09075  0.014226692  0.012641792           53 
 4875000   0.46916901   -7.8498947    831.56489  0.014214784  0.012637861           49 
 4876000   0.46845433   -7.8410518    832.18352  0.014222442  0.012633934           68 
 4877000   0.46465157   -7.8445259    830.93945  0.014198268  0.012630008           63 
 4878000   0.48441808    -7.830747    831.50556  0.014205029  0.012626084           90 
 4879000   0.47306765   -7.8456399    832.45376  0.014218312   0.01262216           64 
 4880000   0.47589137   -7.8531006    831.47162  0.014198627  0.012618234           56 
 4881000    0.4689063   -7.8489533    831.70484    0.0141997  0.012614311           48 
 4882000   0.46143837   -7.8430707    831.43459  0.014192179  0.012610391           68 
 4883000   0.46903318   -7.8476257    829.99668  0.014164733  0.012606473           65 
 4884000   0.46588357   -7.8452423    832.82824  0.014210146  0.012602556           96 
 4885000   0.48128792   -7.8497866    831.64586  0.014187067  0.012598638           70 
 4886000   0.46945882   -7.8424355    831.99717  0.014190155  0.012594722           62 
 4887000   0.47631499   -7.8371337    830.88235  0.014168241  0.012590807           89 
 4888000   0.46649518   -7.8378639    832.35055  0.014190373  0.012586893           84 
 4889000   0.46580504   -7.8237089    829.56292  0.014139956  0.012582979           39 
 4890000   0.46382505   -7.8439821    831.84195  0.014175902  0.012579073           70 
 4891000   0.47381556   -7.8402868    830.57436  0.014151407  0.012575164           88 
 4892000   0.47286548   -7.8571806    830.85087  0.014153224  0.012571255           73 
 4893000   0.46479357   -7.8359826    829.99955  0.014135833   0.01256735           67 
 4894000   0.46769269   -7.8364779    831.79089  0.014163447  0.012563446           91 
 4895000   0.47655648   -7.8416885    831.66203  0.014158359  0.012559546          115 
 4896000   0.46063595   -7.8282978    830.72525  0.014139523  0.012555648          124 
 4897000   0.46487292   -7.8360158    831.64836  0.014152344  0.012551751           56 
 4898000   0.46645069   -7.8323915    831.00737  0.014138549  0.012547857           57 
 4899000   0.45998902   -7.8339611    831.23528   0.01413954  0.012543966           59 
 4900000   0.46201613    -7.848407    833.04057  0.014167357  0.012540071           66 
 4901000    0.4694765   -7.8507237    830.22916  0.014116663  0.012536182           53 
 4902000   0.46224639    -7.833145    829.17052  0.014095786  0.012532294           91 
 4903000   0.48083647   -7.8488488    831.43956  0.014131477  0.012528406           85 
 4904000     0.468882   -7.8379892    830.25639  0.014108489  0.012524514           89 
 4905000   0.47277819   -7.8376394    831.10965   0.01412011  0.012520627           52 
 4906000   0.46543662   -7.8547311    830.36211  0.014104534  0.012516739           62 
 4907000   0.46361119   -7.8239505    830.93612  0.014111407  0.012512856           70 
 4908000   0.46443442   -7.8503879    830.88654   0.01410769  0.012508977           49 
 4909000   0.46616914   -7.8407468    831.20576  0.014110236  0.012505098           74 
 4910000   0.46596414   -7.8568325    831.60233  0.014114093  0.012501218           79 
 4911000   0.46979859   -7.8437978    831.63778   0.01411182  0.012497338           57 
 4912000   0.46410948   -7.8447041    830.44272  0.014088673  0.012493462           62 
 4913000   0.46847474   -7.8412256    831.23901  0.014099312  0.012489583           57 
 4914000   0.46760318   -7.8367621    832.45038  0.014116985  0.012485712           56 
 4915000   0.46887734   -7.8370146    831.30255  0.014094651  0.012481839           67 
 4916000   0.47519462   -7.8541427    832.06504   0.01410471  0.012477967           55 
 4917000   0.46147859   -7.8531255      829.913  0.014065368  0.012474096           58 
 4918000   0.44935926   -7.8495185    830.93634  0.014079849  0.012470224           63 
 4919000   0.47544411   -7.8402646    829.24536  0.014048339  0.012466351          101 
 4920000    0.4616142   -7.8524813    831.25803  0.014079574  0.012462485          101 
 4921000   0.45774176   -7.8553209    830.81945  0.014069286  0.012458619           93 
 4922000   0.45814178   -7.8617662    830.88349  0.014067511  0.012454754           56 
 4923000   0.46166614    -7.842029    830.25165  0.014053959  0.012450891           99 
 4924000    0.4675893   -7.8472889    830.75098  0.014059555  0.012447032           58 
 4925000   0.46470542   -7.8512194    831.05555  0.014061854  0.012443175           28 
 4926000   0.46938394   -7.8585874    829.94552  0.014040221  0.012439317           53 
 4927000   0.46424545   -7.8513702    830.84212  0.014052536  0.012435461           98 
 4928000   0.46636362   -7.8542644     831.8588  0.014066876  0.012431607           29 
 4929000   0.46497028   -7.8515749     830.2284  0.014036458  0.012427753           95 
 4930000   0.46520702   -7.8544576    830.51824   0.01403851  0.012423901           72 
 4931000   0.45491258     -7.84394    831.27664   0.01404848  0.012420048           87 
 4932000   0.46757415    -7.856789     831.4967   0.01404935  0.012416201           29 
 4933000    0.4665692   -7.8367048    830.83769  0.014035369  0.012412349           36 
 4934000    0.4649718    -7.854208    832.54663  0.014061387  0.012408503           43 
 4935000   0.46763777   -7.8499499    831.15868  0.014035101  0.012404657           40 
 4936000   0.46893269   -7.8524621    830.71683  0.014024798  0.012400811           56 
 4937000   0.46924987   -7.8615083    831.69497  0.014038468  0.012396966           24 
 4938000   0.45718013   -7.8495107    829.84904  0.014004473  0.012393124           77 
 4939000   0.45487112   -7.8467947    830.89858  0.014019346  0.012389283           28 
 4940000   0.46775579   -7.8425926    830.83674  0.014015465  0.012385446           37 
 4941000   0.46250773   -7.8565825    830.68959  0.014010146  0.012381608           71 
 4942000   0.46502224   -7.8719056    829.97724  0.013995299  0.012377771           35 
 4943000   0.45282708   -7.8510831    830.08869  0.013994347  0.012373938           37 
 4944000   0.46422397   -7.8633327    830.70135  0.014001843  0.012370107          108 
 4945000    0.4663302   -7.8457739     831.0318   0.01400458  0.012366278           63 
 4946000   0.44744169   -7.8521486    830.46915  0.013992269  0.012362447           62 
 4947000   0.46093094   -7.8584996    829.58059  0.013974473  0.012358621           66 
 4948000   0.45753991    -7.848171    830.68575  0.013990261  0.012354795           56 
 4949000    0.4565959   -7.8495989    831.70877   0.01400466   0.01235097           49 
 4950000   0.45691144   -7.8581428    830.03893  0.013973719  0.012347145          100 
 4951000   0.45214028   -7.8468668    831.31291   0.01399234  0.012343325           38 
 4952000   0.45882864   -7.8573836    830.63506  0.013978108  0.012339508           55 
 4953000   0.46174913   -7.8494604    830.09853  0.013966258  0.012335692           35 
 4954000    0.4563268   -7.8541327    831.98797  0.013995222  0.012331875          114 
 4955000   0.45566149   -7.8540757    829.76068  0.013954939  0.012328057           64 
 4956000   0.45530541   -7.8531726    830.83708  0.013970223  0.012324244           42 
 4957000   0.45624084   -7.8513972    831.06263  0.013971196  0.012320429          116 
 4958000   0.46375341   -7.8473978    830.77664  0.013963571  0.012316615           41 
 4959000   0.45706762   -7.8787309    829.79721  0.013944297  0.012312803           39 
 4960000   0.46137944   -7.8579805    830.09803   0.01394654  0.012308992           61 
 4961000   0.46197037   -7.8541936    830.59171  0.013952021   0.01230518          105 
 4962000   0.45195343   -7.8535976    830.04538  0.013940034  0.012301374           48 
 4963000   0.45489339    -7.860728    831.15563  0.013955867  0.012297568           61 
 4964000   0.46327604   -7.8783022    829.88142  0.013931665  0.012293762           96 
 4965000   0.45818048   -7.8467058    829.87328  0.013928722  0.012289953           56 
 4966000   0.45383847   -7.8530119    830.65976  0.013939115  0.012286152           58 
 4967000   0.45886838   -7.8619859    829.92365  0.013923959  0.012282352          100 
 4968000   0.46224617   -7.8531043    829.53447  0.013914628  0.012278557           54 
 4969000   0.45453421   -7.8647896      829.689  0.013914419  0.012274765           45 
 4970000   0.45809565   -7.8449819    830.32029  0.013922205  0.012270969           69 
 4971000   0.44983546   -7.8682445    831.52818  0.013939653   0.01226718           60 
 4972000     0.448423   -7.8495828    830.91652  0.013926598  0.012263387           48 
 4973000   0.45958724   -7.8601463     830.5494  0.013917645    0.0122596           52 
 4974000   0.44723988   -7.8652801    830.37185  0.013911873  0.012255811          105 
 4975000   0.45969141   -7.8532709    830.45459  0.013910462  0.012252019           89 
 4976000   0.45606003   -7.8498083    830.53875  0.013909076  0.012248235           67 
 4977000    0.4488542   -7.8504127    829.51321   0.01388911   0.01224445           52 
 4978000   0.45434722   -7.8770951    830.48131  0.013902526  0.012240665          107 
 4979000   0.45228048   -7.8635597    830.57368   0.01390128   0.01223688          116 
 4980000    0.4650329   -7.8600056    830.24792  0.013893037  0.012233095           95 
 4981000   0.46011975   -7.8544941    830.62839  0.013896614  0.012229316           47 
 4982000     0.460767   -7.8569302    829.21459  0.013870176  0.012225537           57 
 4983000   0.45789877   -7.8654736    830.37711  0.013886834  0.012221759          113 
 4984000   0.45649582   -7.8759854    830.14373  0.013880145  0.012217983          173 
 4985000   0.44821741   -7.8558177    830.61232  0.013885194   0.01221421          109 
 4986000   0.45351948   -7.8615594      829.988  0.013871975  0.012210438           75 
 4987000   0.44790965   -7.8662004    830.28219  0.013874109  0.012206665           68 
 4988000   0.46398016   -7.8638696    831.08258    0.0138847  0.012202897           47 
 4989000   0.44998337   -7.8715014    830.15265  0.013866384  0.012199128          115 
 4990000   0.46019097   -7.8613633    829.99865  0.013861033  0.012195361           52 
 4991000   0.45922048   -7.8654115    830.48805  0.013866427  0.012191594          130 
 4992000   0.44339179   -7.8549942    829.85576  0.013853094  0.012187825           39 
 4993000    0.4479783   -7.8718983    830.72594  0.013864843  0.012184061           70 
 4994000   0.45018349   -7.8548159    830.52533  0.013858719  0.012180302           91 
 4995000    0.4556496    -7.853804    830.35347  0.013853078  0.012176541           49 
 4996000   0.44625332    -7.862574    831.12448  0.013863165  0.012172779           37 
 4997000   0.44820767   -7.8591448    831.35404  0.013864219   0.01216902           58 
 4998000   0.46217542   -7.8507952    830.57357  0.013848432  0.012165264          100 
 4999000   0.45047094   -7.8623735    830.11889  0.013838083  0.012161506          102 
 5000000   0.44840385   -7.8707212    830.35645  0.013839274  0.012157754           54 
 5001000   0.44543229   -7.8783945    830.98908  0.013847049  0.012154001           62 
 5002000   0.45309337   -7.8784491    830.67392   0.01383903  0.012150252           76 
 5003000   0.43970642   -7.8688657    830.19662  0.013828313  0.012146504           35 
 5004000   0.45428074   -7.8685671    830.07592   0.01382354  0.012142757           68 
 5005000    0.4530313    -7.882844    831.36746  0.013842282  0.012139009           84 
 5006000   0.44179332   -7.8651766    829.91039  0.013815261  0.012135264           78 
 5007000   0.45866214   -7.8705155    829.38988  0.013803839  0.012131523           78 
 5008000   0.44432809   -7.8815163    829.71494  0.013806492  0.012127778          117 
 5009000   0.45279212   -7.8656099      831.573  0.013834648  0.012124037           86 
 5010000   0.44979841   -7.8630007    829.97468  0.013805301  0.012120295           95 
 5011000   0.44152003   -7.8677039    829.81074  0.013799819  0.012116556           97 
 5012000   0.44760399   -7.8705081    830.35401  0.013806099  0.012112819           48 
Loop time of 11056.4 on 48 procs for 5000000 steps with 4000 atoms

Performance: 78144.641 tau/day, 452.226 timesteps/s
99.4% CPU use with 48 MPI tasks x no OpenMP threads

MPI task timing breakdown:
Section |  min time  |  avg time  |  max time  |%varavg| %total
---------------------------------------------------------------
Pair    | 686.77     | 727.66     | 764.09     |  74.9 |  6.58
Neigh   | 68.821     | 70.593     | 72.516     |  11.5 |  0.64
Comm    | 626.54     | 659.17     | 701.39     |  70.5 |  5.96
Output  | 13.426     | 13.43      | 13.515     |   0.3 |  0.12
Modify  | 9425.4     | 9468       | 9498       |  20.2 | 85.63
Other   |            | 117.5      |            |       |  1.06

Nlocal:        83.3333 ave          95 max          77 min
Histogram: 3 10 6 10 8 7 1 1 1 1
Nghost:        1840.15 ave        1867 max        1822 min
Histogram: 6 3 10 5 8 6 3 4 2 1
Neighs:        11371.3 ave       12967 max        9853 min
Histogram: 1 3 6 7 5 12 7 3 2 2
FullNghs:      22742.0 ave       26328 max       20993 min
Histogram: 8 8 7 6 12 3 2 1 0 1

Total # of neighbors = 1091614
Ave neighs/atom = 272.90350
Neighbor list builds = 269248
Dangerous builds = 0

#clear
#
#next RN
#
#jump SELF
Total wall time: 3:04:19
