
units lj                  # Use reduced LJ style units
atom_style atomic         # Uncharged point particles
atom_modify map hash      # Needed for indexing of clusters etc
                          # Used to be able to find where atoms are in relation to each other.

lattice fcc 1.0 spacing 1 1 1
Lattice spacing in x,y,z = 1.5874011 1.5874011 1.5874011
region box block 0 10 0 10 0 10 units lattice
create_box 2 box
Created orthogonal box = (0.0000000 0.0000000 0.0000000) to (15.874011 15.874011 15.874011)
  3 by 4 by 4 MPI processor grid
create_atoms 1 box
Created 4000 atoms
  using lattice units in orthogonal box = (0.0000000 0.0000000 0.0000000) to (15.874011 15.874011 15.874011)
  create_atoms CPU = 0.003 seconds
set type 1 type/fraction 2 0.84 78393
Setting atom values ...
  3354 settings made for type/fraction
mass 1 1.0
mass 2 1.0
pair_style lj/cut  3.5
pair_modify tail  yes
pair_coeff 1  1  1.0  1.0   # Intearaction between 1 and 1 set with epsilon = 1 and sigma = 1
pair_coeff 1  2  1.5  0.8
pair_coeff 2  2  0.5  0.88

write_data data.0
System init for write_data ...
Neighbor list info ...
  update every 1 steps, delay 10 steps, check yes
  max neighbors/atom: 2000, page size: 100000
  master list distance cutoff = 3.8
  ghost atom cutoff = 3.8
  binsize = 1.9, bins = 9 9 9
  1 neighbor lists, perpetual/occasional/extra = 1 0 0
  (1) pair lj/cut, perpetual
      attributes: half, newton on
      pair build: half/bin/atomonly/newton
      stencil: half/bin/3d
      bin: standard
WARNING: Not all mixed pair coeffs generated from mixing. Use write_data with 'pair ij' option to store all pair coeffs. (../write_data.cpp:312)


#############################
#   M E L T   S Y S T E M   #
#############################

velocity all create 2.4 8172548 mom yes dist gaussian # Assign velocities
                                                    # Temperature 2.4, random number seed, zero linear momentum
                                                                                # Gaussian distribution

timestep 0.002   # simulation timestep
thermo 1000       # output thermodynamic data every 1000 steps bf 100

# Define a fix  in this case with index 1 applied to all
# particles in the simulation. This fix is for simulations
# in the anisotropic NPT ensemble. Note that we use the MTK
# correction.
fix 1 all npt temp 2.4 2.4 0.1 iso 5.68 5.68 0.5 mtk yes tchain 5 pchain 5 # Use NPT ensemble
                                                                         # Set temperature and pressure and damping
                                                                         # Numbers of thermostats in chain and in barostat
run 10000          # run for 10000 steps
Per MPI rank memory allocation (min/avg/max) = 3.642 | 3.644 | 3.648 Mbytes
Step Temp E_pair E_mol TotEng Press Volume 
       0          2.4   -3.4880302            0   0.11106983   -3.0192302         4000 
    1000    2.4017966   -2.7198625            0   0.88193165    5.6680397      3869.92 
    2000    2.4117055   -2.6922549            0   0.92439907    5.5963619    3917.8813 
    3000    2.4271845   -2.7516772            0   0.88818935    6.0166749     3809.182 
    4000    2.3813638    -2.700747            0   0.87040577    5.5896588     3903.966 
    5000    2.4121978   -2.7073253            0   0.91006682    5.4492271    3901.9298 
    6000    2.4159397   -2.7510861            0   0.87191756    5.7012571    3843.6256 
    7000    2.3800714   -2.7172199            0   0.85199475    5.6108909    3880.4158 
    8000    2.3966059   -2.7380403            0   0.85596976    5.7013978    3836.1579 
    9000    2.3917889   -2.7152681            0   0.87151842    5.6032288     3893.444 
   10000      2.40141   -2.7308739            0    0.8703405    5.6677638    3858.4825 
Loop time of 2.54474 on 48 procs for 10000 steps with 4000 atoms

Performance: 679047.274 tau/day, 3929.672 timesteps/s
99.6% CPU use with 48 MPI tasks x no OpenMP threads

MPI task timing breakdown:
Section |  min time  |  avg time  |  max time  |%varavg| %total
---------------------------------------------------------------
Pair    | 1.1209     | 1.194      | 1.2827     |   3.0 | 46.92
Neigh   | 0.21039    | 0.21892    | 0.23038    |   0.8 |  8.60
Comm    | 0.78337    | 0.87103    | 0.95207    |   3.9 | 34.23
Output  | 0.00024561 | 0.00025153 | 0.00031441 |   0.0 |  0.01
Modify  | 0.22187    | 0.24541    | 0.26334    |   2.1 |  9.64
Other   |            | 0.01518    |            |       |  0.60

Nlocal:        83.3333 ave          92 max          75 min
Histogram: 2 3 5 5 9 12 4 3 4 1
Nghost:        1682.21 ave        1718 max        1651 min
Histogram: 1 3 6 4 11 16 5 0 1 1
Neighs:        9885.00 ave       10994 max        8707 min
Histogram: 3 3 5 3 9 7 4 8 3 3

Total # of neighbors = 474480
Ave neighs/atom = 118.62000
Neighbor list builds = 909
Dangerous builds = 232

# Equilibrate just above the melting temperature to avoid step fn in T

fix 1 all npt temp 1.25 1.25 0.1 iso 5.68 5.68 0.5 mtk yes tchain 5 pchain 5
run 2000
Per MPI rank memory allocation (min/avg/max) = 3.643 | 3.645 | 3.649 Mbytes
Step Temp E_pair E_mol TotEng Press Volume 
   10000      2.40141   -2.7308739            0    0.8703405    5.6677638    3858.4825 
   11000    1.2415279   -4.0319214            0    -2.170095    5.5634818    2991.7375 
   12000    1.2655954   -4.0316413            0   -2.1337228    5.7324119    2984.1473 
Loop time of 0.624698 on 48 procs for 2000 steps with 4000 atoms

Performance: 553227.577 tau/day, 3201.548 timesteps/s
99.6% CPU use with 48 MPI tasks x no OpenMP threads

MPI task timing breakdown:
Section |  min time  |  avg time  |  max time  |%varavg| %total
---------------------------------------------------------------
Pair    | 0.27227    | 0.30382    | 0.32916    |   2.2 | 48.63
Neigh   | 0.03952    | 0.042444   | 0.045764   |   0.6 |  6.79
Comm    | 0.20207    | 0.22893    | 0.26238    |   2.8 | 36.65
Output  | 5.3367e-05 | 5.501e-05  | 7.1381e-05 |   0.0 |  0.01
Modify  | 0.039147   | 0.044608   | 0.050503   |   1.6 |  7.14
Other   |            | 0.004844   |            |       |  0.78

Nlocal:        83.3333 ave          93 max          77 min
Histogram: 2 6 9 9 9 7 2 0 2 2
Nghost:        2000.98 ave        2021 max        1977 min
Histogram: 2 2 4 6 4 9 6 8 4 3
Neighs:        12778.5 ave       15029 max       11373 min
Histogram: 4 2 10 11 10 5 5 0 0 1

Total # of neighbors = 613366
Ave neighs/atom = 153.34150
Neighbor list builds = 143
Dangerous builds = 12

#############################
# L I N E A R  Q U E N C H  #
#############################

# Define solid atoms. This closely follows ten Wolde  Ruiz-Montero and Frenkel  Faraday Discuss  1996  104  93-110
# Compute components of the per-atom q6 vector
compute q6 all orientorder/atom degrees 1 6 components 6 nnn NULL cutoff 1.3 # compute the Q6 parameter.
                                                                             # Use all neighbours within 1.3 unit cell.

# get number of connections
compute coord_number all coord/atom orientorder q6 0.5

# An atom is solid if it has 8 or more connections (of a possible 14)
variable is_solid atom c_coord_number>=8
group solid dynamic all var is_solid    # Must be dynamic to update
dynamic group solid defined

# do clustering
compute cluster solid cluster/atom 1.3 # Create a cluster where all atoms within are solid and max 1.3 units from another member

# define chunks one chunk per cluster
compute clus_chunks solid chunk/atom c_cluster nchunk every compress yes  # Says which atoms are in which chunk

# count the size of each chunk
compute size_chunks solid property/chunk clus_chunks count


# Find the maximum entry in the vector of chunk sizes
variable max_n equal max(c_size_chunks)


# Thermo style which includes this variable
# thermo_style custom step temp pe vol v_max_n

thermo ${N}  # Print the thermo information every 100 steps
thermo 1000  

# Reset the npt fix at a lower temperature (below freezing)
fix 1  all npt temp  ${temp} ${temp}  0.1  iso  5.68  5.68  0.5  mtk yes tchain  5  pchain  5
fix 1  all npt temp  0.45 ${temp}  0.1  iso  5.68  5.68  0.5  mtk yes tchain  5  pchain  5
fix 1  all npt temp  0.45 0.45  0.1  iso  5.68  5.68  0.5  mtk yes tchain  5  pchain  5

dump dmp2 all dcd ${N} traj.dcd
dump dmp2 all dcd 1000 traj.dcd


compute msd all msd com yes
variable twopoint equal c_msd[4]/6/(step*dt+1.0e-6)
fix 9 all vector 10 c_msd[4]
variable fit equal slope(f_9)/6/(10*dt)
thermo_style custom step temp pe c_msd[4] v_twopoint v_fit v_max_n

fix 1 all npt temp 1.25 ${temp} 0.1 iso 5.68 5.68 0.5 mtk yes tchain 5 pchain 5
fix 1 all npt temp 1.25 0.45 0.1 iso 5.68 5.68 0.5 mtk yes tchain 5 pchain 5
run 2000000 # 5000000  # Run for this many steps
Neighbor list info ...
  update every 1 steps, delay 10 steps, check yes
  max neighbors/atom: 2000, page size: 100000
  master list distance cutoff = 3.8
  ghost atom cutoff = 3.8
  binsize = 1.9, bins = 8 8 8
  4 neighbor lists, perpetual/occasional/extra = 1 3 0
  (1) pair lj/cut, perpetual
      attributes: half, newton on
      pair build: half/bin/atomonly/newton
      stencil: half/bin/3d
      bin: standard
  (2) compute orientorder/atom, occasional
      attributes: full, newton on
      pair build: full/bin/atomonly
      stencil: full/bin/3d
      bin: standard
  (3) compute coord/atom, occasional
      attributes: full, newton on
      pair build: full/bin/atomonly
      stencil: full/bin/3d
      bin: standard
  (4) compute cluster/atom, occasional
      attributes: full, newton on
      pair build: full/bin/atomonly
      stencil: full/bin/3d
      bin: standard
Per MPI rank memory allocation (min/avg/max) = 9.829 | 9.837 | 9.843 Mbytes
Step Temp PotEng c_msd[4] v_twopoint v_fit v_max_n 
   12000    1.2655954   -4.0316413 7.369933e-31 5.1180088e-33 8.3333333e+20            1 
   13000    1.2314601   -4.0191418   0.87672431 0.0056200274  0.073647324            2 
   14000    1.2867399   -4.0221942    1.8335954  0.010914258  0.076685379            2 
   15000    1.2487366   -4.0554558    2.7615224  0.015341791  0.077260824            2 
   16000    1.2428878   -4.0503301    3.7636949  0.019602577    0.0791077            1 
   17000    1.2435643   -4.0376119    4.6343046  0.022717179  0.079130353            1 
   18000    1.2503671   -4.0159837    5.6130452  0.025986319  0.078649868            2 
   19000    1.2702852   -4.0627356    6.5106407  0.028555441  0.078510595            2 
   20000    1.2572765   -4.0289949    7.4713372  0.031130571  0.078337386            2 
   21000    1.2473005   -4.0497611    8.3366703  0.033082024  0.078108324            2 
   22000    1.2416055   -4.0430384    9.1998589  0.034847949  0.077775189            3 
   23000    1.2230103   -4.0534115    10.134044  0.036717551  0.077304758            1 
   24000    1.2774694   -4.0535851    11.082912  0.038482331  0.077111826            2 
   25000    1.2230494   -4.0707019    11.887036  0.039623452  0.077010615            1 
   26000    1.2395162   -4.0376575    12.736815  0.040823123  0.076692172            4 
   27000    1.2458953   -4.0654333    13.710397  0.042316039  0.076424712            2 
   28000    1.2554394   -4.0343776     14.70276  0.043758213  0.076293613            2 
   29000    1.2189133   -4.0481968    15.595158  0.044813672  0.076270261            1 
   30000    1.2436832   -4.0292566    16.460439   0.04572344  0.076174298            1 
   31000    1.2659922   -4.0980509    17.217715   0.04628418  0.076025307            3 
   32000    1.2372615   -4.0274472    18.261119  0.047554995  0.075893395            2 
   33000    1.2406649   -3.9979067      19.0017  0.047984089  0.075740812            2 
   34000    1.2514925   -4.0446882      19.7971  0.048522303  0.075525482            3 
   35000    1.2389271   -4.0239299    20.716286   0.04932449  0.075293354            1 
   36000    1.2435598   -4.0293089    21.757364  0.050364269  0.075134143            2 
   37000    1.2203594   -4.0611633     22.46338  0.050593198   0.07501672            2 
   38000    1.2370171   -4.0721292    23.306126  0.051109925  0.074845229            3 
   39000     1.242111   -4.0687325    24.083486   0.05146044  0.074653853            3 
   40000     1.230227   -4.0431375      25.0137  0.052111873  0.074556596            1 
   41000    1.2745979   -4.0240319    25.870699  0.052582721  0.074410346            1 
   42000    1.2388569    -4.030774    26.567505  0.052713302  0.074229039            2 
   43000    1.2553047   -4.0433516    27.255155  0.052820067  0.074016627            3 
   44000    1.2256696   -4.0463653    28.330786  0.053656791  0.073821296            1 
   45000    1.2481021    -4.055053    29.200075  0.054074212  0.073707443            1 
   46000    1.2514527   -4.0675568    29.791026  0.053969249  0.073539586            1 
   47000    1.2304266   -4.0794151    30.743488  0.054509729  0.073291618            2 
   48000    1.2404113   -4.0531522    31.588024   0.05484032  0.073150366            3 
   49000    1.2309905   -4.0137213    32.555514  0.055366519  0.073019214            3 
   50000    1.2458812   -4.0711493    33.190401  0.055317335  0.072867255            4 
   51000    1.2572449   -4.0165458    34.218481  0.055912549  0.072748835            2 
   52000    1.2036544   -4.0697179    35.109081  0.056264553  0.072673891            2 
   53000     1.211939   -4.0984154    35.882423  0.056418904  0.072572105            3 
   54000     1.224251   -4.0908721    36.891203  0.056930868  0.072497655            3 
   55000    1.2288617   -4.0565487    37.775629  0.057235801  0.072467085            2 
   56000    1.2471042   -4.0780806    38.339059  0.057052171  0.072411226            3 
   57000    1.2242083   -4.0232137    39.276206  0.057421353  0.072354622            1 
   58000    1.2430338   -4.0716089    40.281397  0.057875569   0.07229276            2 
   59000    1.2245321    -4.048484    41.036988  0.057961847  0.072228583            1 
   60000    1.2103748   -4.0637516    41.667675   0.05787177  0.072169641            2 
   61000    1.2336027   -4.0698391    42.654588  0.058271294  0.072106174            1 
   62000    1.2222296   -4.0650985    43.441023  0.058388471  0.072040543            2 
   63000    1.2477476   -4.0634874    44.498245  0.058860112  0.072004608            2 
   64000    1.2156453   -4.0788555    45.392053  0.059104235  0.071986113            1 
   65000    1.2462984   -4.0740283    45.959488  0.058922421  0.071928649            2 
   66000     1.221816   -4.0554431     46.98798  0.059328257  0.071855547            2 
   67000    1.2249346   -4.0901034    47.599414  0.059203251  0.071795997            2 
   68000    1.2459562   -4.0885808    48.289374  0.059178154  0.071715349            2 
   69000    1.2225296   -4.0889741    49.221609  0.059446388  0.071628345            2 
   70000    1.2191719    -4.053975    50.408548  0.060010176  0.071567873            1 
   71000    1.2451242   -4.0618567    50.989837  0.059847226  0.071526353            2 
   72000    1.2329288   -4.0721777    51.765241  0.059913473  0.071467847            3 
   73000    1.2277315   -4.0750837    52.775771  0.060246313  0.071438608            3 
   74000    1.2526382   -4.0700685    53.695165  0.060467528  0.071416155            3 
   75000    1.2188804   -4.0627964    54.832683  0.060925203  0.071432846            5 
   76000    1.2172129    -4.032025    55.942598  0.061340567  0.071450142       -1e+20 
   77000    1.2192034   -4.0704427    56.823895  0.061497721  0.071492679            4 
   78000    1.2203727   -4.0915092    57.367217  0.061289761  0.071521827            3 
   79000    1.2283285   -4.0940988    58.366334  0.061567863  0.071545432            2 
   80000    1.2233008   -4.0622566    59.548213  0.062029388  0.071583649            2 
   81000     1.224467   -4.0908299     60.32835  0.062066203  0.071618101            2 
   82000    1.2134998   -4.0901241    61.234743   0.06223043  0.071663312            2 
   83000    1.2266276   -4.0395378     62.28957  0.062539728   0.07171291            1 
   84000    1.2146608   -4.0593412     62.88051  0.062381458  0.071752491            4 
   85000     1.217942   -4.0825813     63.65433  0.062406205  0.071777132            2 
   86000    1.2014875   -4.1006147    64.451777  0.062453272  0.071787976            3 
   87000     1.251381   -4.0725363    65.016728  0.062276559  0.071791446            2 
   88000    1.2283855   -4.0750348    66.354667  0.062835859  0.071799761            2 
   89000    1.2368246   -4.1009801    66.935334  0.062673533  0.071797477            2 
   90000    1.2360912   -4.0864313    67.116153  0.062144586  0.071770575            5 
   91000    1.2365899   -4.0613448     68.42468  0.062659963  0.071737088            1 
   92000    1.2038081   -4.0643884    69.125909  0.062614048  0.071719873            3 
   93000     1.209254   -4.0729695    70.374526   0.06305961  0.071708858            2 
   94000    1.2165382   -4.0722173    70.890055  0.062845793  0.071691257            3 
   95000    1.2338122   -4.1039544    72.233719  0.063362911  0.071693819            3 
   96000    1.2286172   -4.0816975    73.280947  0.063611933  0.071698855            3 
   97000    1.2165198   -4.1129755    73.687117  0.063305083  0.071704417            2 
   98000    1.2208655   -4.1035265     74.71048   0.06352932  0.071701702            3 
   99000    1.2338521   -4.1320949    75.890214  0.063880652  0.071719498            2 
  100000    1.2157851   -4.1049137    76.678934  0.063899112  0.071740188            4 
  101000    1.1988932   -4.0456529    77.572242  0.064003499  0.071761858            2 
  102000    1.2202056   -4.0965169    78.146168  0.063844908  0.071771387            2 
  103000    1.2152551   -4.0941996    78.797869  0.063752321  0.071764402            1 
  104000    1.2080832   -4.0814715    80.041102  0.064135498  0.071752244            3 
  105000    1.2114633   -4.0814671    80.929588  0.064229832  0.071760483            3 
  106000    1.1902823   -4.1310294    81.520452  0.064088405  0.071764469            5 
  107000    1.2180046   -4.0917067    82.767066  0.064460331  0.071785959            1 
  108000    1.2122562   -4.0933963    83.720396  0.064599071  0.071806442            3 
  109000    1.2060931   -4.0357435    84.482897  0.064589371  0.071820623            2 
  110000    1.2278581   -4.0991815    85.078949  0.064453749  0.071834871            1 
  111000    1.2142572   -4.0963997    86.582158   0.06500162  0.071861255            2 
  112000    1.2087462    -4.098701    87.244219  0.064913853  0.071884234            1 
  113000    1.1880832   -4.1334213    87.396276  0.064451531  0.071904474            1 
  114000    1.1843835    -4.087279    89.068965  0.065108892  0.071919778            1 
  115000    1.2204773   -4.1336449    90.070314  0.065268343  0.071950119            2 
  116000     1.199748   -4.0810061    91.446937  0.065694638  0.071988248            3 
  117000    1.2205123    -4.081456    92.288448  0.065732512   0.07203134            1 
  118000     1.219421   -4.1028647     93.05458  0.065716511  0.072082531            2 
  119000    1.1979571    -4.116722    93.969345  0.065804863   0.07212319            2 
  120000    1.2009676   -4.1053789    95.118291  0.066054369  0.072164564            2 
  121000    1.2110026   -4.0696306    95.796193  0.065975339  0.072206824            3 
  122000    1.2427611   -4.0935825    96.555865  0.065953459   0.07224553            5 
  123000    1.2056311   -4.0928726    97.199128  0.065853067  0.072272064            4 
  124000    1.2181072   -4.1304194    97.805499  0.065729501  0.072290111            2 
  125000    1.2085741   -4.0706888    98.788831  0.065859221  0.072305961            1 
  126000    1.2115834   -4.1389611    99.647829  0.065904648   0.07232013            1 
  127000    1.1968238   -4.1176087    100.51938  0.065957595  0.072331831            2 
  128000    1.1915424   -4.1193777    101.01615  0.065765724  0.072333982            2 
  129000    1.2324989   -4.1319414    102.08624  0.065947185   0.07234198            2 
  130000    1.1934479   -4.1278259    102.84283  0.065924891  0.072343455            3 
  131000    1.2105269   -4.0607982    103.70264  0.065968602  0.072336062            3 
  132000    1.1939142   -4.1043426     104.2253  0.065798803  0.072336812            2 
  133000    1.2167215    -4.081655    105.52119  0.066116033   0.07233365            5 
  134000    1.2045749   -4.0931643    106.62461  0.066308838  0.072326992            3 
  135000    1.1727564   -4.1218888    107.06933  0.066092181    0.0723312            2 
  136000    1.2187378    -4.103339    107.89671  0.066113179   0.07232855            2 
  137000    1.1939854   -4.1157399    108.93811  0.066264056   0.07233678            2 
  138000    1.2247521   -4.1140123    109.81233  0.066311793  0.072337159            2 
  139000    1.2262876   -4.0849777    110.77017  0.066408974  0.072341261            3 
  140000    1.1753215   -4.1326851    111.39214  0.066304846  0.072345095            2 
  141000    1.2047426   -4.1021005    113.06558  0.066823627  0.072359837            2 
  142000    1.1783741   -4.1432812    113.70464  0.066728077  0.072379482            3 
  143000    1.2134639   -4.1450295    115.03636  0.067037503  0.072398862            2 
  144000    1.1924877   -4.1247761    115.77224  0.066997823  0.072418228            4 
  145000     1.216229    -4.143574    116.14007  0.066747168  0.072440189            2 
  146000    1.2352242   -4.0755973    117.80886  0.067242498  0.072458782            3 
  147000    1.1942886   -4.1358603    118.53005  0.067193906  0.072482457            1 
  148000    1.1908448   -4.0731455    120.12424   0.06763752  0.072509748            2 
  149000    1.1956094   -4.1075396    121.18313  0.067775802  0.072540529            2 
  150000    1.1906625   -4.1390328    121.49804  0.067498911  0.072570426            5 
  151000    1.1926381   -4.1589074     122.1887  0.067433055  0.072602129            2 
  152000    1.2083819   -4.1145604    123.79123  0.067867997  0.072638621            1 
  153000    1.1953976    -4.126012     124.6933  0.067915742  0.072674489            3 
  154000    1.1912358   -4.1050547    125.56125  0.067944397  0.072710549            2 
  155000    1.1746526   -4.1386881    126.89946  0.068225518  0.072741319            1 
  156000    1.1993994   -4.0955555     126.9859  0.067834351  0.072773726            1 
  157000    1.1954113   -4.1318009     128.0797  0.067982853  0.072802238            1 
  158000    1.1635156   -4.1097484    129.46454  0.068282985  0.072834963            1 
  159000    1.2010534    -4.140247    129.67176  0.067962141  0.072861402            1 
  160000    1.1583122   -4.1646751    130.64086  0.068042114  0.072887463            2 
  161000    1.1864549   -4.1051561    131.89121  0.068266674  0.072914427            2 
  162000    1.1831434   -4.1173134    132.41386  0.068114127  0.072941698            2 
  163000    1.1667213    -4.131453    133.39142  0.068196023  0.072961962            1 
  164000    1.1847609   -4.1172454    134.20239  0.068192272  0.072986047            1 
  165000    1.2047391   -4.1322463    134.57313  0.067966228  0.073011964            3 
  166000    1.1796422    -4.100615      136.637   0.06859287  0.073035006            5 
  167000     1.179977   -4.1459285     136.6434  0.068185328  0.073055766            1 
  168000    1.1735686   -4.1359735    137.12189  0.068016812  0.073068977            2 
  169000    1.1635246   -4.1242721    137.71784  0.067908207  0.073082629            2 
  170000    1.1797904   -4.1312813     138.9653  0.068120243  0.073094531            3 
  171000    1.2103593    -4.140853    140.55277    0.0684955  0.073108576            1 
  172000    1.1767024   -4.1126912     140.9435  0.068286581  0.073128254            2 
  173000    1.2022076   -4.1513951    141.23889  0.068034149  0.073134013            4 
  174000    1.1750761   -4.1372557    142.61628  0.068302816   0.07314204            1 
  175000    1.1954871   -4.1112015    142.85296   0.06802522  0.073142013            3 
  176000    1.2029689   -4.1130028      144.115  0.068236268  0.073145401            3 
  177000    1.1862727   -4.1221038    144.77891   0.06816333  0.073142414            2 
  178000     1.171487   -4.1438511    146.03868  0.068370169  0.073137065            2 
  179000    1.2090308    -4.174444    145.18652  0.067591488  0.073133147            3 
  180000    1.1969233   -4.1661836    146.77271  0.067950328  0.073130398            2 
  181000     1.175807   -4.1447764    147.95396  0.068118768   0.07313268            1 
  182000    1.1922459   -4.1235783    149.20721  0.068318318  0.073133773            1 
  183000    1.1658453   -4.1690001    150.10483  0.068353748  0.073131365            3 
  184000    1.1497549   -4.1323158    149.89373  0.067886655  0.073132512            3 
  185000    1.1806189   -4.1971132    150.39289  0.067744546   0.07312427            2 
  186000    1.1757512   -4.1476483    152.09451  0.068142702  0.073110055            3 
  187000    1.1942981    -4.153096    153.01896  0.068190269  0.073101591            1 
  188000    1.1814112     -4.15765    153.63155  0.068099093  0.073097985            2 
  189000    1.1826359   -4.1192372    154.21713  0.067996972  0.073085596            2 
  190000     1.169663   -4.1459471    154.47884  0.067753878  0.073067978            1 
  191000    1.1705382   -4.1742001     155.1956  0.067711867  0.073041079            2 
  192000    1.1849484   -4.1620067    155.65896  0.067560314  0.073020457            2 
  193000    1.1681211    -4.140654     156.6368  0.067632471   0.07299903            1 
  194000    1.1810155   -4.1394474    158.00426  0.067871246  0.072977287            4 
  195000    1.1784608    -4.139569    158.68719  0.067815039  0.072948719            3 
  196000    1.1904517   -4.1637133    158.56207  0.067415845  0.072913581            3 
  197000     1.184073   -4.1298036    160.24537  0.067785688  0.072882319            1 
  198000    1.1684437   -4.1685253    161.04153  0.067778423  0.072850072            4 
  199000    1.1860139   -4.1087471    162.10052  0.067881291  0.072823865            2 
  200000    1.1716745   -4.1395042    162.49566  0.067706524  0.072797044            2 
  201000    1.1972341   -4.1356888    162.81684  0.067502836  0.072763449            5 
  202000    1.1880749   -4.1478489     163.8376  0.067589768  0.072729577            1 
  203000    1.1826559   -4.1628653     163.6934  0.067197617  0.072698499            5 
  204000    1.1636843   -4.1225646    166.19363  0.067889555  0.072665647            1 
  205000     1.198362   -4.1494275    166.38942  0.067637975  0.072638279            1 
  206000    1.1775775   -4.1764843    167.52318  0.067768276  0.072610956            3 
  207000    1.1948633   -4.1211287    168.90057  0.067995399  0.072588696            6 
  208000    1.1854043   -4.1315673    169.42897  0.067880195  0.072567546            4 
  209000    1.1831672    -4.164001    169.90447  0.067745003  0.072546886            2 
  210000     1.202133    -4.153529    171.03015  0.067869106  0.072528372            2 
  211000    1.1815871   -4.1601521    171.51853  0.067740337  0.072506752            1 
  212000    1.2075676    -4.150002    172.96344  0.067988774   0.07248895            2 
  213000    1.1686889   -4.1832501    173.16009  0.067746512  0.072472415            3 
  214000    1.1601725   -4.1734953    174.75589  0.068051358  0.072455119            3 
  215000    1.1822687    -4.178858     175.8353  0.068153218  0.072440791            3 
  216000    1.1837205   -4.1547592    176.90537  0.068250527  0.072424568            2 
  217000    1.1628625   -4.1308674    177.75448   0.06826209  0.072411254            3 
  218000    1.1663635   -4.1634459    178.87453  0.068377113  0.072398908            2 
  219000    1.1601721    -4.162693    178.32685  0.067856489  0.072381163            1 
  220000    1.1588438   -4.1469928    179.57659  0.068021436  0.072366878            2 
  221000    1.1390865   -4.1392706    180.56639  0.068086874  0.072343867            3 
  222000    1.1429092   -4.1805968    180.64437  0.067809449   0.07232446            4 
  223000    1.1743322   -4.1841431    182.68604  0.068268327  0.072307594            3 
  224000    1.1571745   -4.1505541    181.96671   0.06769595  0.072290208            3 
  225000    1.1709912   -4.1868519    183.10651  0.067817224    0.0722666            2 
  226000    1.1609859   -4.2091768     183.4863   0.06765719  0.072245327            2 
  227000    1.1698865   -4.1500714    185.70084  0.068172113  0.072223445            1 
  228000    1.1796947   -4.1739008    186.10654  0.068021395  0.072205619            1 
  229000    1.1533289   -4.1599112    186.31492  0.067800189  0.072184451            2 
  230000    1.1596477   -4.2100602    186.86165  0.067703495  0.072164019            2 
  231000    1.1589765   -4.2107782    188.17065  0.067882631  0.072142727            4 
  232000    1.1717159   -4.1717063    188.40136  0.067672901  0.072125226            3 
  233000      1.16449   -4.1889984    189.46545  0.067763036  0.072103846            3 
  234000    1.1592873   -4.2190894    191.10648  0.068057864  0.072081455            2 
  235000     1.175022    -4.151697     191.7773  0.068006134  0.072057635            4 
  236000    1.1453723   -4.1395364    192.66856  0.068032682  0.072033629            5 
  237000    1.1538766    -4.188446    192.69683  0.067755567  0.072009158            2 
  238000    1.1715886     -4.16401    193.36537   0.06770496  0.071980596            4 
  239000     1.177531   -4.1886382    193.02355  0.067302494  0.071951914            2 
  240000    1.1767548   -4.1542931    194.17826  0.067423005  0.071917201            2 
  241000    1.1492911   -4.1876447    195.27075  0.067521006  0.071885363            3 
  242000    1.1684384   -4.1744551    195.57421  0.067346492  0.071850732            3 
  243000    1.1305384   -4.1488331    196.89888   0.06752362  0.071818039            3 
  244000     1.170972   -4.1601194    197.07005  0.067305346   0.07178566            2 
  245000    1.1683166   -4.1585936    198.78625  0.067614372   0.07175036            3 
  246000    1.1396717   -4.1965753    198.10951  0.067110269  0.071714912            3 
  247000    1.1790077   -4.1670089    199.03126  0.067149547  0.071678672            1 
  248000    1.1292365   -4.2107408    198.81487  0.066806072  0.071638203            3 
  249000    1.1401158   -4.1897707    199.73629  0.066846147  0.071593074            3 
  250000    1.1681354   -4.1746028    200.23188  0.066743959  0.071552158            1 
  251000    1.1399717   -4.1916279    201.41509  0.066870881  0.071509311            2 
  252000    1.1442379   -4.1518002    203.12629  0.067171391  0.071469064            3 
  253000    1.1299766   -4.1656506    203.19766  0.066929401  0.071431021            1 
  254000    1.1698716   -4.1847714    203.97423   0.06692068  0.071387104            2 
  255000    1.1416562   -4.1846221    205.15315  0.067043512  0.071345423            2 
  256000    1.1412145   -4.1726039    205.61542  0.066932102  0.071308628            1 
  257000    1.1385956   -4.2007924    205.18236  0.066531245   0.07126676            1 
  258000     1.146308    -4.184576    206.08638  0.066565368  0.071220505            1 
  259000    1.1547483   -4.2205776    207.10163  0.066635016  0.071176398            4 
  260000    1.1452518   -4.1963202    208.19832  0.066730231  0.071133895            2 
  261000     1.155225   -4.1973715    208.31113  0.066510578  0.071092098            3 
  262000    1.1700238    -4.233285    209.23425  0.066550333  0.071051819            2 
  263000     1.135201    -4.209477    211.58377  0.067041751  0.071016956            1 
  264000    1.1550277   -4.1895682    211.04072  0.066616389   0.07098351            3 
  265000    1.1721379   -4.1793339    213.63746  0.067181592  0.070947196            3 
  266000    1.1413108   -4.2157938    213.25713  0.066809879  0.070915456            2 
  267000    1.1622184   -4.1712122    214.33826  0.066897085  0.070880777            3 
  268000      1.16351   -4.1879803    215.49667  0.067007671  0.070846254            2 
  269000    1.1306587   -4.1976088    216.73842  0.067143253  0.070811244            2 
  270000     1.162522   -4.2427201    215.67327  0.066565823  0.070774634            4 
  271000    1.1392727   -4.1668546    216.73061  0.066645329  0.070734718            2 
  272000    1.1366987   -4.2003272    217.02621  0.066490873  0.070691497            1 
  273000    1.1416706   -4.1899019    218.33676  0.066647361  0.070649427            2 
  274000    1.1520283   -4.2103401    218.59336  0.066482164  0.070609375            2 
  275000     1.107932   -4.1892218      220.247  0.066741515  0.070569963            6 
  276000    1.1603267   -4.1851394    220.41878  0.066551565  0.070529883            4 
  277000    1.1502164   -4.2016269    220.88999  0.066453065  0.070489441            2 
  278000    1.1640533   -4.1838627    223.01575  0.066851244  0.070452522            2 
  279000    1.1435796     -4.18889    223.36421  0.066715715   0.07041694            3 
  280000    1.1456795   -4.2091794    224.92585  0.066942218  0.070382628            2 
  281000    1.1481514    -4.197665    224.94123  0.066708549  0.070348552            3 
  282000    1.1713541   -4.2002577    225.76782  0.066716258  0.070318379            2 
  283000     1.128824   -4.1947398    226.14269  0.066590899  0.070288014            1 
  284000    1.1371461   -4.2257294    225.97481  0.066307163  0.070255027            2 
  285000    1.1460598   -4.2413856    227.29386  0.066460193  0.070220186            2 
  286000    1.1522116   -4.2111507    227.95169  0.066419491  0.070187778            2 
  287000    1.1587554   -4.1867383    230.24442  0.066853781  0.070154929            1 
  288000    1.1602537   -4.2025632     229.9139  0.066526013  0.070124452            2 
  289000    1.1624811   -4.2232417     230.2618  0.066396136  0.070091703            5 
  290000    1.1272615   -4.1795695    230.84236   0.06633401  0.070054322            3 
  291000    1.1399384   -4.1782488    232.23223  0.066504075  0.070016877            2 
  292000    1.1610731   -4.2144491    230.94989  0.065910357  0.069981496            2 
  293000    1.1328497   -4.2029215    233.07397  0.066289525  0.069946595            3 
  294000    1.1286995   -4.2103776    233.69395   0.06623978  0.069911567            2 
  295000    1.1488764   -4.2522611    234.77337  0.066320162   0.06987724            3 
  296000    1.1124763   -4.2019374    235.47666  0.066294104  0.069841267            1 
  297000    1.0959734    -4.254006     235.8274  0.066169303   0.06980402            1 
  298000     1.098108   -4.2318592    236.52752  0.066143041  0.069768616            2 
  299000    1.1216261   -4.2209099    236.95061  0.066039746  0.069732726            2 
  300000    1.1532614   -4.2123318    237.52779  0.065979941  0.069699633            3 
  301000    1.1271635   -4.2314707    237.74024  0.065819556  0.069663898            5 
  302000     1.108926   -4.1931238    239.76568  0.066160508  0.069632823            2 
  303000    1.1207226   -4.2340346    240.36698   0.06610753  0.069600411            2 
  304000    1.1134221   -4.2257109     241.4406  0.066184376  0.069565736            3 
  305000    1.1309334   -4.2147505    241.32447  0.065935647  0.069529285            1 
  306000    1.1058432   -4.1959748    242.66766  0.066085963  0.069493833            2 
  307000     1.136744   -4.2187081    242.72524  0.065886329  0.069458876            5 
  308000    1.1339854   -4.2016795    243.39403  0.065853363  0.069420768            2 
  309000    1.1138227   -4.2237543    243.78345  0.065745268  0.069381611            2 
  310000    1.1296121   -4.2141678    245.13433  0.065896325  0.069346388            1 
  311000    1.1333435   -4.2288874    245.51338  0.065786007  0.069309489            2 
  312000    1.1079387   -4.2463917    245.60996   0.06560095  0.069274109            2 
  313000    1.1209966   -4.2383033    246.59074  0.065652486  0.069237099            2 
  314000    1.1525102   -4.2218866    247.90671  0.065792651  0.069199833            1 
  315000    1.1278411   -4.2462925    247.94618  0.065594228  0.069163805            6 
  316000    1.1441002   -4.2217571    249.67626  0.065842895  0.069126526            2 
  317000    1.1438218    -4.261969    249.18241  0.065505365  0.069090623            4 
  318000    1.1129382   -4.2448459    251.24402  0.065839628  0.069055491            3 
  319000    1.0967063   -4.2327975    251.07758  0.065589754  0.069018298            2 
  320000    1.1160266      -4.2375    252.03252  0.065633467   0.06898152            2 
  321000    1.1591005   -4.2181962    253.39492  0.065782689  0.068947516            1 
  322000    1.1366933   -4.2000601    255.10162  0.066020088  0.068914712            1 
  323000    1.1145697   -4.2329617    255.94596  0.066033529   0.06888429            3 
  324000    1.1181561     -4.20783    256.22166  0.065900632   0.06885331            2 
  325000    1.0988654    -4.221703      257.027   0.06590436  0.068823476            2 
  326000    1.1293214   -4.2239747    257.92687  0.065932227  0.068792232            5 
  327000    1.1404889   -4.1897564    258.61664  0.065906382  0.068760937            1 
  328000    1.1366817   -4.1952338     258.6361   0.06571039  0.068731069            5 
  329000    1.1291304   -4.2233145    260.76925  0.066050975  0.068700838            1 
  330000    1.1297744   -4.2528898    259.48703  0.065527027  0.068672408            5 
  331000    1.1211705   -4.2439553    259.43764  0.065316626  0.068641319            1 
  332000    1.0980456   -4.2377066    262.15479  0.065801905  0.068610213            2 
  333000    1.1212936   -4.2143458    263.02952  0.065823203  0.068579774            2 
  334000    1.1216234    -4.205738    262.95233  0.065606868  0.068548547            2 
  335000    1.1403292   -4.2276543    262.85365  0.065386479  0.068518216            1 
  336000     1.143242   -4.2128202    263.64917  0.065389179  0.068486719            3 
  337000    1.1138932   -4.2176684    264.99619  0.065528238  0.068452467            2 
  338000    1.0886684   -4.2498171    264.29661  0.065161885  0.068418164            5 
  339000    1.1500714   -4.2407025    266.09071  0.065410695  0.068381451            2 
  340000    1.1347786   -4.2376701    266.30586  0.065271043  0.068346229            2 
  341000    1.1369269   -4.2589613    266.23146  0.065061451   0.06831014            2 
  342000    1.1220878   -4.2696806    266.27246  0.064881203  0.068272249            2 
  343000    1.1218957    -4.247155    266.51859  0.064751843  0.068233117            2 
  344000    1.1197782   -4.2384692    268.00236  0.064923052   0.06819253            6 
  345000    1.1309076   -4.2501082    268.55572   0.06486853  0.068155136            3 
  346000    1.1124888    -4.245272    269.97694  0.065023349  0.068118027            3 
  347000    1.1218799   -4.2332527    270.22265  0.064894969  0.068079144            2 
  348000    1.1387572   -4.2465513    269.56712  0.064551513  0.068039415            2 
  349000    1.1169726   -4.2422413    270.93167  0.064692377  0.067999137            2 
  350000    1.0994886   -4.2700636    272.65497   0.06491785  0.067958821            2 
  351000    1.1108564   -4.2198228    273.69934   0.06498085  0.067920032            2 
  352000    1.1081541   -4.2510745    273.24761  0.064689302  0.067882393            1 
  353000    1.1124189    -4.256582    274.72047  0.064853747  0.067845298            2 
  354000    1.1195096   -4.2338239     275.4646  0.064845716   0.06781042            5 
  355000    1.1172622   -4.2397181     275.6394  0.064704084  0.067774605            2 
  356000    1.1303023   -4.2551641    277.33837  0.064920031   0.06773917            2 
  357000    1.0996479   -4.2577326    276.96267  0.064650483  0.067703684            3 
  358000     1.119284   -4.2282747    277.57016  0.064611303  0.067667848            2 
  359000    1.1114108   -4.2476119    278.94761   0.06475107  0.067631724            2 
  360000    1.1286672   -4.2439151    280.32582  0.064890236  0.067594697            1 
  361000     1.108851   -4.2440867    280.67239  0.064790488  0.067560228            2 
  362000    1.1166033   -4.2665055    280.60693  0.064596439  0.067524616            4 
  363000    1.1212816     -4.26649     281.1372  0.064540221   0.06748998            3 
  364000    1.0901286   -4.2216865     283.7363  0.064957944  0.067456199            3 
  365000    1.1268341    -4.258759    283.60789  0.064750661  0.067422519            3 
  366000     1.082925    -4.247448     283.9053  0.064641463  0.067387862            3 
  367000    1.1075973   -4.2482993    284.10932  0.064511653  0.067353605            2 
  368000    1.0997225   -4.2425107    284.22517  0.064362584  0.067319791            1 
  369000    1.0914473   -4.2900728    284.47719  0.064245074  0.067283286            2 
  370000    1.1133991   -4.2597516    286.31744  0.064485911  0.067248549            5 
  371000    1.1141418   -4.3156276    285.68254  0.064169483  0.067216342            5 
  372000    1.1126325   -4.2435306    288.95224  0.064729445  0.067184591            2 
  373000    1.1069847   -4.2557452     289.5214  0.064683066  0.067156324            4 
  374000    1.1004712    -4.265774    291.40666  0.064930183  0.067128316            3 
  375000    1.1206299   -4.2383725    291.17801  0.064706224  0.067099706            2 
  376000    1.1057423   -4.2819242    290.65997   0.06441932  0.067072693            2 
  377000    1.1281034   -4.2792366    290.72396   0.06426259   0.06704274            4 
  378000    1.0751717   -4.2551846    292.05294  0.064385569  0.067012072            5 
  379000    1.1163379   -4.2599218    294.91159  0.064844236  0.066981713            1 
  380000    1.1057817   -4.2473185    294.17447  0.064511944  0.066950953            2 
  381000    1.1005584   -4.2542437    295.03232  0.064530254  0.066917751            2 
  382000    1.1194519   -4.2312926    295.57599  0.064479929  0.066885394            1 
  383000    1.1191694    -4.277598    295.66539  0.064331025   0.06685419            3 
  384000    1.1001629   -4.2723123    296.96739  0.064446047  0.066822544            2 
  385000    1.1312334   -4.2864344    296.08646  0.064087979  0.066789923            3 
  386000    1.1006312   -4.2544193    296.68786  0.064051783  0.066757867            2 
  387000    1.1026092   -4.2961638    297.45434  0.064051321  0.066723391            2 
  388000    1.0973954    -4.230118    298.84945  0.064185879  0.066687813            2 
  389000    1.0879141   -4.2605711     298.3369  0.063911075  0.066653011            1 
  390000    1.1002633   -4.2797642    299.53789  0.064003823  0.066613898            3 
  391000    1.1081928   -4.2838952     298.7137  0.063664471  0.066575552            2 
  392000    1.1267715   -4.2609439    298.65518  0.063489621  0.066537311            3 
  393000    1.1027648   -4.2442608    299.65809  0.063540733   0.06649868            2 
  394000    1.1166153   -4.2614937    301.24635  0.063715387  0.066459283            3 
  395000    1.1104624   -4.3198363    300.01854   0.06329505  0.066420767            2 
  396000    1.0962769   -4.2671247    300.60872   0.06325941  0.066378374            2 
  397000    1.0947892   -4.2872104    301.72162  0.063333672  0.066336841            1 
  398000    1.1009784   -4.2843044     302.6384  0.063366498  0.066296513            3 
  399000     1.118819   -4.2628698    303.68398  0.063426062  0.066254426            4 
  400000    1.0894933   -4.3092557    303.84783  0.063301632  0.066212824            3 
  401000    1.1032038   -4.2817282     303.6101  0.063094368  0.066172114            2 
  402000    1.1032506   -4.2740991    305.78664  0.063388607  0.066132444            1 
  403000    1.0874005   -4.2481678     306.3963  0.063357382  0.066093224            3 
  404000    1.0903621   -4.2833492     307.6362  0.063456311  0.066054353            2 
  405000    1.1031539   -4.2733571     307.5745  0.063286935  0.066017215            6 
  406000      1.09812   -4.2384052    309.91566  0.063611588  0.065980412            3 
  407000    1.0944463   -4.2964031    310.20748  0.063515046  0.065944522            3 
  408000    1.0921345    -4.290619    309.90726  0.063298051  0.065907074            2 
  409000    1.1073137   -4.3077625    310.39147  0.063241945  0.065871683            2 
  410000    1.1143834   -4.2862492    311.75088     0.063364  0.065836555            3 
  411000     1.118013   -4.2637274    312.64351  0.063390817  0.065800865            8 
  412000    1.0673036   -4.2649746    312.89836  0.063288504  0.065765204            3 
  413000    1.0855601   -4.2997143    312.25726  0.063005904  0.065729169            2 
  414000    1.0857091   -4.2875545    313.97371  0.063199217  0.065692272            3 
  415000     1.068724   -4.2942937    315.54176  0.063361799  0.065657509            2 
  416000    1.0889079   -4.3033522    314.83878  0.063068666  0.065622848            3 
  417000     1.116422   -4.2762183    316.42222  0.063233857  0.065587003            3 
  418000    1.0761537   -4.3150466     314.4951  0.062698385  0.065549536            3 
  419000    1.0786404   -4.3081031    316.65466  0.062978253  0.065513742            2 
  420000    1.0781471    -4.304917    317.71023  0.063037744  0.065477777            3 
  421000    1.0958286   -4.3314635    317.34618  0.062815951  0.065443258            2 
  422000    1.0931216   -4.3190442    320.04811  0.063200653  0.065407433            4 
  423000    1.0773629   -4.3163433    319.76592  0.062995651  0.065373534            1 
  424000    1.1038481   -4.2946825     320.7794  0.063046265  0.065339859            2 
  425000    1.0514401    -4.298237    321.93152  0.063123827  0.065305909            3 
  426000    1.0804135   -4.2786345    323.48213  0.063278976  0.065273174            2 
  427000    1.0801836   -4.2987746     322.7967  0.062997015  0.065240933            1 
  428000     1.086407   -4.3394898    323.57775  0.063001898  0.065209506            4 
  429000    1.0746397    -4.307723    325.57389  0.063242792  0.065178084            5 
  430000    1.0927311   -4.2949852    326.15339   0.06320802  0.065147717            3 
  431000    1.0439253   -4.3008043    327.25833  0.063275006   0.06511824            2 
  432000    1.0899749   -4.2971265    328.02364  0.063276164  0.065090001            2 
  433000    1.0845397   -4.2692605    328.27054  0.063177549  0.065062639            1 
  434000    1.0892203   -4.2998555    329.54079  0.063275882  0.065035759            4 
  435000    1.0840156   -4.3031958    329.60288  0.063142314  0.065009061            2 
  436000    1.0687878   -4.2967354    331.36245  0.063333801  0.064982186            3 
  437000    1.0737243   -4.2873344    331.76512  0.063265659  0.064956694            2 
  438000    1.1090405   -4.3099624    332.75509  0.063309567  0.064930541            3 
  439000    1.0796822   -4.2940208    333.82458  0.063368371  0.064905516            2 
  440000    1.0833918   -4.3101679    332.79223  0.063028831  0.064880817            2 
  441000    1.0899116   -4.3381864    334.84249  0.063273336  0.064855499            3 
  442000    1.0780343   -4.2785178    334.95237    0.0631509  0.064829245            2 
  443000     1.050251   -4.2813972     336.8227  0.063360176  0.064803795            2 
  444000    1.0660349   -4.2954336    336.13416  0.063088243  0.064777505            3 
  445000    1.0603934   -4.3145327    336.66581  0.063046031  0.064751079            3 
  446000    1.0731195   -4.3390195    335.89115   0.06275993  0.064724381            3 
  447000    1.0860943   -4.3081411    338.67406   0.06313834  0.064697253            3 
  448000    1.0819643   -4.3380421    337.89323  0.062852163  0.064670551            3 
  449000    1.0765055   -4.2957106    339.65152  0.063038516  0.064644145            4 
  450000    1.0612451   -4.3045624    340.49465  0.063054565  0.064617476            4 
  451000    1.0772617   -4.2972586    342.22932  0.063235277  0.064591664            3 
  452000    1.0978369     -4.30516    341.47161   0.06295568  0.064567324            3 
  453000    1.0907873   -4.3135542    342.33365  0.062975285  0.064542288            2 
  454000    1.0732775   -4.3403303    343.38373  0.063029318  0.064517311            2 
  455000    1.0587386    -4.322472    344.12245   0.06302609  0.064492155            2 
  456000    1.0890695   -4.2961057     344.2164  0.062905044  0.064465459            4 
  457000     1.078005   -4.2968785    343.37722  0.062614373  0.064437339            2 
  458000     1.056664   -4.3368795    342.97787  0.062404998  0.064407447            2 
  459000    1.0558108   -4.2990951    345.88381  0.062796624  0.064378786            2 
  460000    1.0937503   -4.3316457    346.56738  0.062783945  0.064350418            4 
  461000     1.057458   -4.2985773    346.15061  0.062572417  0.064321053            3 
  462000    1.0647641   -4.3314219    344.69266     0.062174  0.064291829            3 
  463000    1.0652807   -4.3202749    345.48136   0.06218167  0.064261372            2 
  464000     1.091669   -4.3459395    345.43694   0.06203968   0.06423019            3 
  465000      1.03819   -4.2879739    347.98343  0.062362622  0.064200301            2 
  466000    1.0931012   -4.3378665    348.04729  0.062240216  0.064169352            4 
  467000    1.0701691   -4.3186863    348.99245  0.062275598  0.064139253            6 
  468000    1.0854514     -4.30418    348.94859  0.062134721  0.064108994            3 
  469000    1.0552069   -4.3087404    349.89264  0.062169979  0.064079201            2 
  470000    1.0927974   -4.3240187    351.35361   0.06229674   0.06404885            3 
  471000    1.0784991   -4.3313168    351.17715  0.062133253  0.064019212            2 
  472000     1.082376   -4.2938366    352.84791  0.062296595  0.063989246            3 
  473000    1.0796034   -4.3249002    353.58637  0.062294991   0.06396073            2 
  474000    1.0564906   -4.3104952    353.87835    0.0622149  0.063932177            7 
  475000    1.0679643   -4.3386464    354.22856  0.062145362  0.063901879            3 
  476000    1.0770986   -4.3505112    354.46589  0.062056354  0.063871533            2 
  477000    1.0451165   -4.3498768    356.32878  0.062251708  0.063841628            3 
  478000      1.05505    -4.313082    355.93101  0.062052129  0.063812034            9 
  479000    1.0630949   -4.3431121     357.0556  0.062118232  0.063782306            2 
  480000    1.0487244   -4.3061012    358.08743  0.062167957  0.063752968            2 
  481000    1.0482906    -4.313228    358.83117  0.062167562  0.063724354            3 
  482000    1.0727438   -4.3306748    357.09971  0.061739231  0.063694696            3 
  483000    1.0677783   -4.3475573     358.4122  0.061837854  0.063663926            2 
  484000    1.0525105   -4.3357438    360.12367  0.062004764  0.063634558            5 
  485000    1.0827028   -4.3207475    361.37621  0.062092133  0.063605142            3 
  486000    1.0740081   -4.3513258    359.33201  0.061613857  0.063575151            3 
  487000    1.0617264    -4.324045    362.18989  0.061976367  0.063546085            2 
  488000    1.0531447   -4.3436249    361.07462  0.061658916  0.063517329            3 
  489000    1.0822439   -4.3233807    363.24991  0.061903529  0.063488303            1 
  490000    1.0621938   -4.3428798     361.0472  0.061402584  0.063456991            2 
  491000    1.0566997   -4.3393827    364.31246  0.061831713  0.063427208            3 
  492000    1.0617838   -4.3546943    364.20839  0.061688414  0.063397712            2 
  493000    1.0528929   -4.3844919    364.94356  0.061687553  0.063368569            4 
  494000    1.0636743   -4.3724837    364.64459  0.061512244  0.063339038            4 
  495000    1.0732691   -4.3311938    366.28116  0.061663494   0.06330901            1 
  496000    1.0715696   -4.3455348    366.69546  0.061608781  0.063278647            3 
  497000    1.0546824   -4.3536272    365.73694  0.061324101  0.063246632            2 
  498000    1.0656362   -4.3269075    368.14592  0.061604069  0.063214807            3 
  499000    1.0357671   -4.3666266    368.18948  0.061487888  0.063184662            3 
  500000    1.0660799   -4.3306766    369.60864   0.06160144  0.063154516            6 
  501000    1.0833963   -4.3695326    368.57986  0.061307363  0.063125008            2 
  502000    1.0615768   -4.3532573    368.58762  0.061186525   0.06309548            3 
  503000    1.0616303    -4.360777    370.48996  0.061380046  0.063065201            2 
  504000    1.0410538   -4.3915622    370.50719  0.061261109  0.063036168            3 
  505000    1.0392029   -4.3673385    372.94535  0.061542137  0.063006528            2 
  506000    1.0463595    -4.357564    372.12399  0.061285242  0.062976806            2 
  507000    1.0666084    -4.329046    374.88881  0.061618805  0.062946933            2 
  508000    1.0541372   -4.3723392    372.66737  0.061133098  0.062916379            2 
  509000    1.0585485   -4.3317048    373.36613  0.061127395  0.062886134            3 
  510000    1.0332449    -4.364614    373.06818  0.060958852   0.06285533            4 
  511000    1.0372562   -4.3635548    373.75544  0.060951638  0.062824829            8 
  512000    1.0531548   -4.3829564    376.01937  0.061201069  0.062794876            8 
  513000    1.0706697   -4.3412098    374.87242  0.060895455  0.062763945            3 
  514000    1.0400244   -4.3172135    375.59057  0.060893413  0.062732804            7 
  515000    1.0594415   -4.3378424    377.59609  0.061099692    0.0627019            4 
  516000    1.0530351   -4.3855176    377.66836  0.060992952  0.062670097            1 
  517000    1.0361321    -4.358174    378.02947  0.060933183   0.06263784            3 
  518000    1.0367796   -4.3385073    378.79212  0.060938244  0.062605901            3 
  519000     1.070607   -4.3379993     380.5909   0.06110965  0.062574097            5 
  520000    1.0505513   -4.3713333    379.94257  0.060888233  0.062542877            2 
  521000     1.042413   -4.3527689    380.61318  0.060878628  0.062511575            1 
  522000    1.0306159   -4.3839548    378.67627  0.060452789  0.062479824            3 
  523000    1.0507036   -4.3849414    380.95207  0.060699821  0.062447394            2 
  524000    1.0217672   -4.3868644    381.87057  0.060730053  0.062415062            2 
  525000    1.0498731   -4.3573493    382.22647  0.060670868  0.062382938            1 
  526000    1.0346455   -4.3705892     382.0595  0.060529072  0.062350784            2 
  527000    1.0588993   -4.3833734    383.96591  0.060715671   0.06231805            6 
  528000    1.0711035   -4.3842358    384.52401  0.060688765  0.062286214            7 
  529000    1.0578329   -4.3533706    383.71705   0.06044692  0.062253429            2 
  530000    1.0423189   -4.3479426    385.65203  0.060637111  0.062220005            3 
  531000    1.0501142   -4.3526767    383.46298  0.060179376  0.062186461            4 
  532000    1.0386716   -4.3591461    383.62652  0.060091873  0.062153182            1 
  533000     1.045253   -4.3779259    384.62968  0.060135972  0.062120297            2 
  534000    1.0267378   -4.3559909    387.11722  0.060411551  0.062087291            6 
  535000    1.0261081   -4.3558472     386.4075  0.060188084  0.062053828            3 
  536000    1.0443936    -4.393222    385.49781   0.05993436  0.062020499            2 
  537000    1.0690309   -4.3618766    387.27236  0.060098131  0.061986981            1 
  538000    1.0259167    -4.376944    387.52099  0.060024937  0.061952788            3 
  539000    1.0183457   -4.3815116    389.12161   0.06016104  0.061918582            3 
  540000    1.0313897   -4.3615837    389.04118  0.060037219  0.061885105            1 
  541000    1.0440928   -4.3946144    390.26649  0.060114986  0.061851789            3 
  542000    1.0177837   -4.3580893    391.61367  0.060211204  0.061818053            3 
  543000    1.0245057   -4.3692629     391.1689  0.060032059  0.061784526            3 
  544000    1.0504493   -4.3766337    391.78277  0.060015743    0.0617513            2 
  545000    1.0159155   -4.3902071    390.87551  0.059766897  0.061715961            4 
  546000    1.0407095   -4.3738343    390.97198  0.059672159  0.061681553            4 
  547000     1.025323   -4.3880724     391.8875  0.059702545  0.061647187            2 
  548000    1.0332697    -4.388276     391.2672   0.05949927   0.06161171            2 
  549000    1.0328575   -4.3879144    393.17968   0.05968119  0.061577217            2 
  550000     1.039084   -4.3874085    392.51964  0.059472673  0.061543478            2 
  551000    1.0342146   -4.4131082    393.57507   0.05952436  0.061508443            3 
  552000    1.0354565    -4.393579    395.43511  0.059697329  0.061473675            2 
  553000    1.0127903   -4.3940019    393.44993  0.059290225  0.061439192            3 
  554000    1.0543688   -4.3847648     397.0014  0.059717419  0.061404553            2 
  555000    1.0438166   -4.4276735    397.03067  0.059614215   0.06137092            4 
  556000    1.0284628   -4.3926978    398.25405  0.059690355   0.06133833            4 
  557000    1.0250942   -4.3549434    398.69327  0.059648903  0.061306289            2 
  558000    1.0273458   -4.3939021    399.10494  0.059603485  0.061274042            2 
  559000    1.0288804   -4.3924961    399.63556  0.059575963  0.061242048            2 
  560000    1.0165214   -4.3872822    398.28736  0.059268952  0.061208526            2 
  561000    1.0247662   -4.3909478    400.66713  0.059516804  0.061175495            2 
  562000    1.0180994   -4.4139273    400.72569  0.059419587  0.061142142            4 
  563000    1.0346868   -4.3943156    400.23106  0.059240831  0.061109487            6 
  564000    1.0212171   -4.4347501    400.57616  0.059186785  0.061076864            3 
  565000    1.0076101    -4.407097    404.08246  0.059599183  0.061043615            4 
  566000      1.03467    -4.389921    403.59332  0.059421867  0.061011183            4 
  567000     1.018599   -4.3694532    404.42815  0.059439764  0.060978783           11 
  568000    1.0189552   -4.3583305    405.51947  0.059495228  0.060946039            3 
  569000    1.0267508   -4.4270945    404.55661   0.05924965  0.060912747            2 
  570000    1.0351691   -4.3985073    404.14188   0.05908507  0.060879723            5 
  571000    1.0116334   -4.4005992    405.80972  0.059225004  0.060847755            6 
  572000    1.0404153   -4.4116476    406.27624  0.059189429  0.060815325            2 
  573000     1.050981   -4.3896576    408.83695  0.059458544  0.060783179            3 
  574000    1.0408461   -4.4064507     406.3168  0.058989082  0.060750669            4 
  575000    1.0151978   -4.4009227    407.31859   0.05903168  0.060718323            3 
  576000    1.0070715   -4.3788469    409.65013  0.059266512  0.060685844            2 
  577000     1.020685   -4.4013792    410.28415  0.059255365  0.060653036            3 
  578000     1.000207   -4.4104962    408.24629  0.058859039  0.060618871            3 
  579000     1.005909   -4.3640334    408.37019  0.058775215   0.06058493            5 
  580000     1.025248   -4.3799089    409.11375  0.058780711  0.060550544            2 
  581000    1.0328273   -4.3847587    409.48001  0.058732073  0.060515881            2 
  582000    1.0284287   -4.3696123    412.40026  0.059049293  0.060480802            4 
  583000    1.0132301   -4.4011816    410.01016  0.058606369  0.060446324           12 
  584000    1.0328027   -4.4116344    410.38472  0.058559463  0.060411599            3 
  585000    1.0110561   -4.3835778    412.40678  0.058747405  0.060377167            5 
  586000    1.0209348   -4.4056881    411.95926  0.058583512  0.060342928            5 
  587000    1.0070605   -4.4152558    412.28403  0.058529816  0.060308009            2 
  588000    1.0009727   -4.4169756    412.55125  0.058468147  0.060272304            1 
  589000    1.0279185    -4.377546    414.14919  0.058594962  0.060237363            2 
  590000    1.0264611   -4.4150152    413.41576  0.058392057  0.060202589            2 
  591000    1.0144822   -4.3994292    413.77554  0.058343985  0.060167497            1 
  592000    1.0108758   -4.3958819    414.44979  0.058340342  0.060132513            3 
  593000    1.0123544   -4.4233516    413.80999   0.05815205  0.060097957            6 
  594000    1.0420639   -4.3931695    416.58519   0.05844349  0.060063859            7 
  595000   0.99389106   -4.4303462    416.08721  0.058275519  0.060029516            3 
  596000    1.0045564   -4.4081015    418.02598  0.058448823  0.059995523            3 
  597000    1.0358244   -4.4396382    417.04293  0.058213698  0.059961844            3 
  598000    1.0416201   -4.4136253    419.40282  0.058445209  0.059927711            3 
  599000    1.0261239   -4.3803364    419.74151  0.058394756  0.059893385            2 
  600000    1.0329125    -4.411419    419.43831  0.058255321  0.059859488            3 
  601000    1.0263618    -4.416132    420.15932  0.058258363  0.059825712            2 
  602000    1.0382825   -4.4177521    421.83047  0.058392922  0.059791795            5 
  603000    1.0151514   -4.4333077    421.09329  0.058194209   0.05975893            2 
  604000    1.0261986   -4.4159772    421.02298  0.058088159  0.059725994            4 
  605000    1.0228942   -4.4180313    421.40188  0.058044336  0.059692834            3 
  606000     1.007488   -4.3883493    423.83944  0.058283752   0.05966013            3 
  607000    0.9936254   -4.4497359    422.00225   0.05793551  0.059626239            4 
  608000     1.034376   -4.4181994    422.24556  0.057873569  0.059590509            3 
  609000   0.99898686   -4.4163559    422.32089  0.057788847  0.059556252            4 
  610000    1.0229493   -4.4454425     420.3412  0.057423661  0.059521186            5 
  611000    1.0048504   -4.4436593    425.11349  0.057980563  0.059485495            6 
  612000    1.0157541   -4.4203402    424.78239   0.05784074  0.059450929            3 
  613000    1.0218419   -4.4345315    424.96158  0.057770742  0.059417636            2 
  614000    1.0076367   -4.4226769    425.04333  0.057687748  0.059383731            3 
  615000   0.99120023   -4.4174036    427.14025  0.057878083  0.059349538            7 
  616000   0.99776902   -4.4211905    427.54565  0.057838968  0.059316067            2 
  617000    1.0179965   -4.4250618    428.55776  0.057881923  0.059282411            4 
  618000   0.99774097   -4.4293636    427.19219  0.057604125  0.059248943            4 
  619000    1.0029141   -4.4578059    427.10803  0.057499735  0.059215096            3 
  620000   0.98472405   -4.4475083    427.21646  0.057421568  0.059180926            4 
  621000     1.023787   -4.4111562    429.78495  0.057673772  0.059147996            4 
  622000    1.0039763   -4.4391178    429.20974  0.057503984  0.059113798            3 
  623000   0.99882493   -4.3995564    430.52494  0.057587606  0.059080181            3 
  624000    1.0086882   -4.4403801    428.05137  0.057164979  0.059045382            3 
  625000   0.99891893   -4.4279345    430.23738  0.057364984  0.059010235            3 
  626000    1.0231026   -4.4199894    431.25734  0.057409124  0.058975499            4 
  627000   0.97214108   -4.4550476    429.84322  0.057129615  0.058940979            3 
  628000   0.99690878    -4.431381    433.23629  0.057488892  0.058905408            5 
  629000    1.0035882   -4.4195001    431.89753  0.057220129  0.058870188            3 
  630000    1.0055953   -4.4214089    430.64838  0.056964071  0.058835044            1 
  631000    1.0025154   -4.4023516    433.00783  0.057185397  0.058800182            6 
  632000    0.9818216   -4.4203556    432.99062  0.057092645  0.058764685            3 
  633000   0.99885762   -4.4669348    431.27978  0.056777223  0.058728635            3 
  634000   0.97706725   -4.4909318    432.63636  0.056865978  0.058692721            5 
  635000   0.99755219   -4.4887799    432.95928  0.056818803  0.058656119            8 
  636000   0.98376644   -4.4536325    437.44191  0.057316812  0.058620518            3 
  637000   0.99660791   -4.4665127    435.08533  0.056918541  0.058584898            2 
  638000   0.99634847   -4.4446243    435.37365  0.056866987  0.058549448            2 
  639000   0.99455462   -4.4884822    436.42685  0.056915343   0.05851458            2 
  640000    1.0095407   -4.4215485    437.07957  0.056911402  0.058480113            2 
  641000    1.0050481    -4.437623    437.96722  0.056938017  0.058445972            2 
  642000    1.0041894   -4.4528261    438.25202  0.056886296  0.058412541            2 
  643000    1.0023168   -4.4330144    440.12495  0.057040558  0.058378783            6 
  644000    1.0063286   -4.4587761    440.79704  0.057038955  0.058346054            2 
  645000   0.99593307   -4.4530623    442.47306  0.057167062  0.058313213            3 
  646000    1.0083355   -4.4441162    440.61343  0.056838677   0.05828099            4 
  647000    1.0016372   -4.4404731    441.69631  0.056890302   0.05824828            4 
  648000    1.0004601    -4.447815    440.71325  0.056676086  0.058215618            3 
  649000   0.98926187   -4.4488168    441.77725  0.056725378  0.058182503            3 
  650000    1.0059254   -4.4359644    443.40958  0.056847382  0.058149257            3 
  651000   0.99214989   -4.4392962    444.15329  0.056855259  0.058116091            3 
  652000   0.99610516   -4.4461328    443.01376  0.056622413  0.058082633            4 
  653000    1.0046167   -4.4569809    444.45762  0.056719961  0.058050023            3 
  654000   0.96297057   -4.4571519    445.11296  0.056716738  0.058017624            5 
  655000   0.99475178   -4.4702579    445.37085  0.056662957  0.057985034            4 
  656000   0.98717356   -4.4211099    447.78423   0.05688316  0.057952811            2 
  657000   0.98002433   -4.4517708    446.04842  0.056576411  0.057921285            3 
  658000    1.0018949   -4.4433866    447.62411  0.056689984  0.057889083            2 
  659000    1.0050318   -4.4672423    445.71471  0.056362507  0.057856048            2 
  660000   0.97861677   -4.4421499    446.66542  0.056397149  0.057822308            3 
  661000   0.97439231   -4.4265823    448.19618  0.056504813  0.057788625            4 
  662000    1.0044449   -4.4509982    447.79006  0.056368336  0.057755509            3 
  663000   0.98597464   -4.4739017    448.02529  0.056312882  0.057721804            5 
  664000   0.99361418   -4.4655464    448.60314  0.056300594  0.057688924            4 
  665000   0.99031527   -4.4452802    450.80201  0.056491479    0.0576557            3 
  666000   0.97380277   -4.4381814    450.92136  0.056421592  0.057623069            3 
  667000   0.99545975   -4.4456035    451.69485  0.056433639  0.057590259            4 
  668000   0.99585287   -4.4521722    449.92326  0.056128152    0.0575569            7 
  669000   0.98390468    -4.472038    448.72208  0.055894629  0.057522827            3 
  670000   0.98176567   -4.4297698    452.08387  0.056229337  0.057489275            4 
  671000   0.99209255   -4.5189206    449.92582  0.055877524  0.057455433            4 
  672000   0.97649789   -4.4474603    452.85449   0.05615755  0.057422874            4 
  673000   0.97730518   -4.4487423    454.01412  0.056217697  0.057390569            3 
  674000     1.001188   -4.4671017    454.60114  0.056206866  0.057358414            4 
  675000   0.98791575   -4.4589599     456.4611  0.056353222   0.05732702            2 
  676000   0.99805655   -4.4710259    456.20925  0.056238813  0.057295088            4 
  677000   0.98439249    -4.465795     455.5536  0.056075036  0.057263467            3 
  678000   0.99646114   -4.4716748    456.16899  0.056067969  0.057231215            6 
  679000    1.0009153   -4.4821379    456.36881  0.056009918  0.057199657            3 
  680000   0.96600723   -4.4761099    458.79898  0.056225365  0.057168052            3 
  681000   0.96632689    -4.420821    457.58983  0.055994839  0.057136491            4 
  682000   0.98662682   -4.4940454    456.71959  0.055806401  0.057105907            5 
  683000   0.98343281   -4.4861903     459.3367  0.056044009  0.057074384            3 
  684000   0.97372798   -4.5108363    459.30942   0.05595875  0.057043316            5 
  685000    0.9851955   -4.4902681     460.6201  0.056036508  0.057011208            3 
  686000   0.98509273    -4.439025    461.63531  0.056078147   0.05697975            4 
  687000   0.97290053   -4.4503381    461.46869  0.055976309  0.056948305            2 
  688000   0.96518925   -4.4807961    461.52404  0.055901652  0.056916562            4 
  689000   0.96771539   -4.4949587    460.72065  0.055723349  0.056884783            5 
  690000   0.98290705    -4.468974    461.34643  0.055718168  0.056852371            6 
  691000   0.97716909   -4.4900069    461.28704  0.055630371  0.056820128            3 
  692000   0.97493447   -4.4525684    462.30233  0.055672246   0.05678731            3 
  693000    0.9789159    -4.483904    461.58512  0.055505666  0.056754765            2 
  694000   0.96070056   -4.5162311    462.97275   0.05559231  0.056721928            4 
  695000   0.97729576   -4.4732826    461.54702  0.055341369    0.0566886            3 
  696000   0.97462852   -4.4939912    462.30946  0.055353144  0.056655016            2 
  697000   0.97075867   -4.5038042    464.17077  0.055496266  0.056621537            1 
  698000   0.95539948   -4.4716379    462.07246  0.055166244  0.056588163            2 
  699000   0.97300108   -4.5157821    462.40915  0.055127462  0.056554516            6 
  700000   0.97849284   -4.4740237    463.75144  0.055208505  0.056521096            3 
  701000    0.9951628   -4.4904818    463.74467  0.055128944  0.056487416            3 
  702000   0.96764086   -4.4825792    465.10832  0.055212289  0.056454082            1 
  703000   0.96204222    -4.458455    466.28205  0.055272884  0.056421206            2 
  704000   0.95916733   -4.5185465    465.50268  0.055102116  0.056388468            6 
  705000   0.95239661   -4.4961487    465.74159  0.055052197  0.056354876            3 
  706000   0.96536008   -4.4968105    466.41029   0.05505315  0.056321594            2 
  707000   0.99917188   -4.4583814    468.25166  0.055192322  0.056288754            6 
  708000   0.98408112   -4.4997044    468.39843  0.055131642  0.056256863            5 
  709000    0.9366389   -4.4790451    468.96818  0.055120848  0.056224464            3 
  710000   0.95513037   -4.4957398    468.69174  0.055010767  0.056191491            5 
  711000   0.96318974   -4.4917442    467.98228  0.054850244  0.056158744            3 
  712000   0.98140415   -4.4613598    472.40087  0.055290364  0.056127234            4 
  713000   0.96407048   -4.4825397     470.7038  0.055014469  0.056095885            6 
  714000   0.95525708   -4.5582346    470.91022   0.05496151  0.056064351            6 
  715000   0.95829007   -4.4855279    472.42703  0.055061425  0.056032716            4 
  716000    0.9670245   -4.5182238    471.20464  0.054842253   0.05600133            3 
  717000   0.97324136   -4.4806581    472.92576  0.054965802  0.055970684            3 
  718000    0.9799751    -4.479523    473.58576   0.05496585   0.05594023            6 
  719000   0.96763829   -4.5092585     473.9609  0.054932881  0.055909797            2 
  720000   0.93235073   -4.4821408    475.18032  0.054997722  0.055878778            4 
  721000   0.97324961   -4.5070052    475.00183  0.054900813  0.055848885            3 
  722000   0.95696923   -4.4950251    475.04477  0.054829729  0.055817951            2 
  723000   0.98099946   -4.5237342     474.7568  0.054720701  0.055787289            4 
  724000   0.96671787   -4.4971761    475.59701  0.054741829  0.055755701            4 
  725000    0.9840932   -4.5261853    474.32377  0.054519974  0.055724401            3 
  726000   0.95658038   -4.5194198    477.38341  0.054796075     0.055694            4 
  727000   0.94998239   -4.5133631    477.29226  0.054710254  0.055663505            3 
  728000   0.95043287   -4.5338808    478.20774  0.054739897   0.05563245            6 
  729000   0.98067934   -4.5274407    478.15856  0.054659186  0.055601713            3 
  730000   0.95601165   -4.5073466    480.00722  0.054795345  0.055571402            2 
  731000   0.98675417   -4.5172672    478.68568  0.054569731  0.055540911            3 
  732000   0.96126967   -4.5365887     478.6014  0.054485588  0.055510501            4 
  733000   0.96187889   -4.4980668    479.80159  0.054547703  0.055479413            5 
  734000   0.96013831   -4.5058081    480.56269  0.054559797  0.055448899            4 
  735000   0.97918188    -4.514728    481.26915  0.054565663  0.055419027            4 
  736000   0.97514591   -4.5688853    477.32913  0.054045418    0.0553876           12 
  737000   0.96545662   -4.5138454    483.88638  0.054713521  0.055356535            3 
  738000   0.95162018   -4.5176588    482.55335  0.054488861  0.055326518            8 
  739000   0.96412895   -4.5017718    484.24283  0.054605642  0.055295765            4 
  740000   0.96766072   -4.5263409    482.74679  0.054363378  0.055265582            6 
  741000   0.95619251   -4.5071177    483.58475  0.054384249  0.055235412            4 
  742000   0.96240775   -4.5164024    483.88091  0.054344217  0.055204794            2 
  743000   0.96011455   -4.5242466    483.22309  0.054197296  0.055174352            4 
  744000   0.98127619   -4.5129872    484.77683   0.05429848  0.055144179            4 
  745000   0.95942897   -4.5148827    484.77885  0.054225823  0.055113936            3 
  746000    0.9561558   -4.5200151    483.23286  0.053980435  0.055083324            2 
  747000   0.94906591   -4.5182781    485.31464  0.054140411  0.055052897            5 
  748000   0.96725519   -4.5429901    487.06249  0.054262756  0.055022599            6 
  749000   0.93731067   -4.5200412    485.96541  0.054068247  0.054992571            5 
  750000   0.95266688   -4.5110977    487.12937  0.054125486  0.054962299            2 
  751000   0.97563759   -4.5388286    486.11078  0.053940388  0.054931768            3 
  752000   0.95854702   -4.5542234    487.00223  0.053967446  0.054901138            4 
  753000   0.94648853   -4.5248407    486.88778  0.053883109  0.054870085            5 
  754000   0.97048023   -4.5238001    485.59209  0.053668445  0.054839537            3 
  755000   0.95678739   -4.5193957    488.38986  0.053906165   0.05480804            3 
  756000   0.94269296    -4.499007     488.6528  0.053863845   0.05477719            2 
  757000   0.95244439   -4.5374763    487.70623  0.053688488  0.054745523            3 
  758000   0.95622072   -4.5669034     488.5594  0.053711455  0.054713485            5 
  759000    0.9848697    -4.548052    489.94555   0.05379288  0.054681953            3 
  760000   0.96692624   -4.5425007    490.15854  0.053745454  0.054650367            5 
  761000    0.9355321     -4.53947    488.88265  0.053535113  0.054618825            9 
  762000   0.96351174   -4.5443336    489.39229  0.053520592  0.054586868            3 
  763000   0.93564715   -4.5417125    490.50436  0.053571905  0.054555132            3 
  764000   0.95925812   -4.5241358    491.67706  0.053629696  0.054523811            6 
  765000   0.96015527   -4.5227288    492.35333   0.05363326  0.054492861            2 
  766000   0.92472607    -4.492138    493.31045  0.053667369  0.054461773            2 
  767000   0.95184177   -4.5126443    492.88195  0.053550842   0.05443043            1 
  768000   0.96683532   -4.5219827    491.18419  0.053296896  0.054398598            2 
  769000     0.936927   -4.5487297    491.44342  0.053255681   0.05436705            2 
  770000   0.95205092   -4.5435774     493.8017  0.053441742  0.054334819            4 
  771000   0.96433657   -4.5460908    493.06103  0.053292372  0.054303005            3 
  772000   0.95538951    -4.533961    493.46745  0.053267212  0.054271255            3 
  773000   0.94650212   -4.5329275    496.65382  0.053541809  0.054239239            4 
  774000   0.97701081   -4.5177242    495.37783  0.053335253  0.054208247            2 
  775000    0.9500966   -4.5570027    494.67114  0.053190445  0.054176754            2 
  776000   0.94366516   -4.5627915    494.76891    0.0531324  0.054145707            3 
  777000   0.94489146   -4.5518622    496.08093  0.053204732  0.054114249            5 
  778000   0.93602475   -4.5226074    497.60828  0.053299944  0.054083201            2 
  779000    0.9293882   -4.5315749    497.52861  0.053223001   0.05405238            5 
  780000   0.92706115   -4.5653126    496.38095  0.053032152  0.054021028            4 
  781000   0.93179482   -4.5412381    497.77718  0.053113228  0.053989916            4 
  782000   0.95678401   -4.5263657     497.6988  0.053036957  0.053958798            3 
  783000   0.93271229   -4.5493865     496.9517  0.052889708  0.053927276            5 
  784000   0.94755502   -4.5220949    497.93541  0.052926808  0.053895402            2 
  785000   0.96240347   -4.5458123    497.61629  0.052825508  0.053863993            2 
  786000    0.9472296   -4.5242476    499.58374  0.052966893  0.053833288            5 
  787000   0.94701529   -4.5573406    498.19463  0.052752503  0.053802486            5 
  788000   0.93438393   -4.5408925    499.85609  0.052861262  0.053771118            7 
  789000   0.94028421   -4.5443063    500.23712  0.052834508  0.053739765            2 
  790000   0.94170101   -4.5464677    502.07388   0.05296138  0.053708745            3 
  791000   0.92584433   -4.5356183    501.72539   0.05285771  0.053678221            4 
  792000   0.93150028   -4.5943166    500.31782  0.052642868   0.05364711            6 
  793000   0.94946463   -4.5548613    501.11052  0.052659786  0.053615894            3 
  794000   0.95026421   -4.5724589    503.04817  0.052796827  0.053584952            6 
  795000   0.92882976   -4.5634688    501.99828  0.052620365  0.053554157            4 
  796000   0.92600836   -4.5252308    505.65517  0.052937099  0.053524101            4 
  797000   0.94062951   -4.5615545    504.71126  0.052771984  0.053493398            4 
  798000   0.92809411   -4.5506833    505.90904  0.052830936  0.053463606            4 
  799000   0.93757123   -4.6028079    503.22791  0.052485181  0.053433238            4 
  800000   0.93239991   -4.5629902    505.62184  0.052668942  0.053403338            3 
  801000   0.92680804   -4.5714046    505.36131  0.052576083  0.053373164            4 
  802000   0.91732794   -4.5796845    506.13516  0.052590935   0.05334327            4 
  803000   0.91486567   -4.5466682    506.23873  0.052536191  0.053313041            3 
  804000   0.95136634   -4.5541538    506.74072  0.052522877  0.053282934            5 
  805000   0.92644851   -4.5594737    507.09502  0.052494308   0.05325328            2 
  806000   0.94141194   -4.5824387    507.49519  0.052470553  0.053223504            4 
  807000   0.93817443   -4.5593643    508.92756  0.052553445  0.053193733            4 
  808000   0.91887927    -4.544269     508.2547  0.052419008  0.053164091            6 
[...]
 1800000   0.53324727   -5.3867636    674.80799  0.031241111   0.03009364           15 
 1801000   0.54618063   -5.3775484    673.57231  0.031166588  0.030073666           23 
 1802000   0.53863301   -5.3759608    674.26137  0.031181158  0.030053664           16 
 1803000   0.52546223   -5.4068294    673.49215  0.031128312   0.03003368           24 
 1804000   0.53766399    -5.420844    674.36434  0.031151346  0.030013624           44 
 1805000   0.52853192   -5.4084689     672.4041  0.031043587  0.029993518           17 
 1806000   0.52633942   -5.4060062    672.31395  0.031022238  0.029973476           23 
 1807000   0.52726952   -5.4158574    671.95286  0.030988418   0.02995338           22 
 1808000   0.52617749   -5.4059447    672.25455  0.030985184  0.029933345           28 
 1809000    0.5424377    -5.380571    674.91369  0.031090551  0.029913477           21 
 1810000   0.54115644    -5.391204    674.42385  0.031050822  0.029893595           16 
 1811000   0.53904261   -5.3912947    674.34443  0.031030022  0.029873779           18 
 1812000   0.52098623    -5.406554    673.34004  0.030966705  0.029853881           23 
 1813000   0.53486457   -5.4061031    673.94954   0.03097764  0.029833977           20 
 1814000   0.54455545   -5.4334764    672.16922  0.030878777  0.029814133           24 
 1815000   0.51664299   -5.3932293    673.08637  0.030903874  0.029794253           47 
 1816000   0.53149876   -5.4126337    672.54613  0.030862065  0.029774453           22 
 1817000   0.53309966    -5.407603    673.01537  0.030866601  0.029754599           25 
 1818000   0.53429787   -5.3931301    674.77072  0.030930084  0.029734801           40 
 1819000   0.52894033   -5.4107436    672.35923  0.030802603  0.029715008           60 
 1820000   0.52600185    -5.403356     674.0321  0.030862276  0.029695215           49 
 1821000   0.53776912   -5.3935873    673.56433  0.030823921  0.029675468           83 
 1822000   0.53796484   -5.4055037    672.44646  0.030755875  0.029655697           85 
 1823000   0.52461402   -5.4219259    673.39051  0.030782159   0.02963585           78 
 1824000   0.51848691   -5.4019411    673.99597  0.030792945  0.029616074           34 
 1825000   0.51939187   -5.4212202    672.25803  0.030696714   0.02959627          114 
 1826000   0.51775241   -5.3979539    673.22298   0.03072394  0.029576466          111 
 1827000   0.52780221   -5.4015695    672.70981  0.030683717  0.029556691          118 
 1828000   0.52455672   -5.4194542    673.73606  0.030713715  0.029536966           67 
 1829000    0.5214483    -5.413809    672.84664  0.030656399  0.029517239           61 
 1830000   0.50905556   -5.4114297    672.11407  0.030606287  0.029497403           63 
 1831000   0.51855434   -5.4151578     671.5253  0.030562775  0.029477606          163 
 1832000   0.51824512   -5.4374213     671.4311  0.030541808  0.029457789           81 
 1833000   0.51912018   -5.4165543     673.1268  0.030602237   0.02943795          185 
 1834000   0.52157631   -5.4291489     673.5141  0.030603149   0.02941827           67 
 1835000   0.51550985   -5.4367281    672.02468  0.030518832  0.029398576           93 
 1836000   0.52797197   -5.3912796    673.77379  0.030581599  0.029378879           68 
 1837000   0.51711276   -5.4159128    671.71239  0.030471438  0.029359226           77 
 1838000   0.51631908   -5.4362667    672.63002  0.030496464  0.029339588           75 
 1839000   0.51948807    -5.419427    674.46193  0.030562893  0.029319912           43 
 1840000   0.51691973   -5.4159926    673.00075  0.030480107  0.029300301           77 
 1841000   0.52141659   -5.4318243    670.83025  0.030365302  0.029280642          118 
 1842000   0.51590182    -5.432242    672.52028  0.030425275   0.02926097          162 
 1843000   0.51906084   -5.4137011    673.92675  0.030472362  0.029241397           56 
 1844000   0.50782476   -5.4026387     673.3903  0.030431593  0.029221829           64 
 1845000   0.51328548   -5.4073866    673.57378  0.030423387  0.029202351           56 
 1846000   0.51509562   -5.3947478    673.63099  0.030409489  0.029182864           56 
 1847000   0.51317374    -5.430579    672.82843  0.030356814  0.029163385           57 
 1848000   0.50611177    -5.439037    673.13451   0.03035419  0.029143933           69 
 1849000   0.51046503   -5.4393554    671.80739   0.03027796  0.029124482           71 
 1850000   0.50860835   -5.4325912    673.67104  0.030345542  0.029104981           32 
 1851000   0.50232205   -5.4340381    673.07885  0.030302488   0.02908542           52 
 1852000   0.51299772   -5.4238816    674.45109  0.030347871  0.029065896           45 
 1853000   0.51012032    -5.440148     672.2227  0.030231278  0.029046374           68 
 1854000   0.51941685    -5.435449     673.2898  0.030262936  0.029026881           68 
 1855000   0.50940452   -5.4441773    673.12436   0.03023919  0.029007356           74 
 1856000   0.51606935    -5.445917    671.71587  0.030159656  0.028987825           73 
 1857000   0.50892506   -5.4358051     674.5834  0.030272097  0.028968356           93 
 1858000   0.51060486   -5.4414249    673.12888  0.030190567  0.028948907          110 
 1859000   0.50917179   -5.4364421    672.41348  0.030142257  0.028929499          111 
 1860000   0.51111684      -5.4453    672.92012  0.030148751  0.028910087          107 
 1861000   0.50477274   -5.4392933     673.1941  0.030144819  0.028890662          123 
 1862000   0.51456116   -5.4471895    674.00535  0.030164937  0.028871315           80 
 1863000   0.51538645   -5.4656787    673.46434  0.030124546  0.028851941           67 
 1864000   0.51881653   -5.4510254    673.48587  0.030109347  0.028832538           96 
 1865000   0.50765869   -5.4462204    674.25281  0.030127471  0.028813231          122 
 1866000   0.49997632   -5.4666033    672.14042  0.030016989  0.028793862          143 
 1867000     0.506021   -5.4466141    672.34973  0.030010254  0.028774459          103 
 1868000   0.51467765   -5.4577716    671.36084  0.029950073  0.028755076          184 
 1869000   0.49804785   -5.4463098    673.27365  0.030019335  0.028735719          188 
 1870000   0.51208222   -5.4637405    670.62798  0.029885382  0.028716312           78 
 1871000   0.50834296   -5.4862584    671.40296  0.029903927  0.028696928          120 
 1872000   0.51080143   -5.4740414     671.7125  0.029901732  0.028677644           80 
 1873000   0.49494055   -5.4606829    671.58199  0.029879961  0.028658373           99 
 1874000   0.50093832   -5.4659977    673.34087   0.02994223  0.028639142          119 
 1875000   0.51678898   -5.4569095    672.57585   0.02989226  0.028619935           93 
 1876000   0.50516723   -5.4658638    673.03516  0.029896729  0.028600763          103 
 1877000   0.50827834   -5.4765784    672.17999  0.029842834  0.028581586          137 
 1878000    0.5077556   -5.4834584    673.28956  0.029876178    0.0285624          126 
 1879000   0.49958342   -5.4819235    672.53876   0.02982698  0.028543118          144 
 1880000   0.49341905   -5.4785516    671.81053  0.029778835  0.028523833          118 
 1881000   0.50434975    -5.481451    671.52115  0.029750184  0.028504531          198 
 1882000   0.51345406   -5.4590591    671.39915  0.029728974  0.028485278          107 
 1883000   0.49388611   -5.4780803    670.61903  0.029678661  0.028466037          162 
 1884000   0.50743191   -5.4801889    673.74545  0.029801196  0.028446839          132 
 1885000   0.51499847   -5.4673274    671.25232  0.029675169   0.02842761          152 
 1886000   0.49512095   -5.4697778    671.46182  0.029668691  0.028408389          167 
 1887000   0.49197938   -5.4854245    671.48177  0.029653849  0.028389162          130 
 1888000   0.50857628   -5.4878838    671.93298  0.029658059  0.028369879          167 
 1889000   0.50486607   -5.4831841    671.22042  0.029610924  0.028350636          197 
 1890000   0.50052991    -5.477182    671.48614  0.029606973  0.028331415          171 
 1891000   0.49781966   -5.4850709    671.14208  0.029576154  0.028312181          198 
 1892000   0.50031086   -5.4860041    671.49464   0.02957605  0.028292948          192 
 1893000   0.50105332   -5.4838574    671.68072  0.029568618  0.028273699          317 
 1894000   0.50711972   -5.4883479    671.01976  0.029523925  0.028254511          237 
 1895000   0.50470133   -5.4786221    672.19581  0.029560062   0.02823535          278 
 1896000   0.48439762   -5.4677762     670.5924  0.029473998  0.028216187          297 
 1897000   0.49132779   -5.4720703    670.29019  0.029445185  0.028197028          230 
 1898000   0.48068857   -5.4798422    671.64222  0.029489033  0.028177889          239 
 1899000   0.49160613   -5.4888155     670.8309  0.029437901  0.028158781          230 
 1900000    0.5011142   -5.4863279    672.77459  0.029507658  0.028139712          194 
 1901000   0.49721241    -5.489906    671.48733  0.029435706  0.028120716          250 
 1902000   0.49984623    -5.477499    672.83704  0.029479366  0.028101682          150 
 1903000   0.50252947   -5.5005464     671.1102  0.029388256  0.028082661          206 
 1904000   0.50177574   -5.5099628    673.11362  0.029460505  0.028063674          196 
 1905000   0.49538979   -5.4852185    671.54686  0.029376503   0.02804466          212 
 1906000   0.49406742   -5.5024172    670.93533  0.029334353  0.028025644          172 
 1907000   0.49145791     -5.50728    671.79172  0.029356394  0.028006678          177 
 1908000   0.49034584   -5.4948118    670.10449  0.029267317   0.02798772          202 
 1909000   0.48214303   -5.4905891    671.77784  0.029325032  0.027968744          192 
 1910000   0.48827749   -5.4957059    670.18742  0.029240289   0.02794972          193 
 1911000   0.49081458   -5.4962645    671.72559  0.029292063  0.027930757          182 
 1912000   0.49739349   -5.4884516    672.29556  0.029301585  0.027911812          196 
 1913000   0.50153287   -5.4893937    671.81212  0.029265208  0.027892873          175 
 1914000   0.48290075   -5.5097292    670.94002  0.029211948   0.02787392          154 
 1915000   0.48640159   -5.5038095     671.4309  0.029218055  0.027854988          288 
 1916000   0.47723954   -5.4951109    670.00707  0.029140878  0.027836044          292 
 1917000   0.48271515   -5.5075432    670.60964  0.029151871  0.027817087          206 
 1918000   0.48206761   -5.5161762    670.76709  0.029143513  0.027798207          261 
 1919000   0.50126509   -5.5053086    670.81393   0.02913036  0.027779256          264 
 1920000   0.49064603    -5.504237    670.53923  0.029103265  0.027760317          320 
 1921000   0.47979864   -5.5032852    669.90641  0.029060663  0.027741379          293 
 1922000    0.4910346   -5.5253454    670.52479  0.029072355  0.027722438          371 
 1923000   0.48482429     -5.51817    670.81989  0.029070025  0.027703501          327 
 1924000    0.4821304   -5.5054125     670.0772  0.029022748  0.027684642          299 
 1925000   0.48114949    -5.511108    670.56552   0.02902881  0.027665732          398 
 1926000   0.48365078    -5.505582    670.77379   0.02902275  0.027646846          377 
 1927000   0.47918719   -5.5072007    668.71636  0.028918715  0.027627952          352 
 1928000   0.47674701    -5.519465    670.60013  0.028985137  0.027609056          377 
 1929000   0.48474194   -5.5156227    670.63537  0.028971634  0.027590161          325 
 1930000    0.4743491   -5.5147362    670.74361  0.028961296  0.027571244          359 
 1931000   0.48983986   -5.5094418    670.45823  0.028933982  0.027552382          324 
 1932000   0.47914073   -5.5265388    670.01498  0.028899887  0.027533555          360 
 1933000   0.47718189   -5.5241342    669.63444  0.028868531  0.027514657          424 
 1934000   0.48625397   -5.5367978    668.32226  0.028797064  0.027495759          422 
 1935000   0.47749418   -5.5130941    669.00283  0.028811491  0.027476865          395 
 1936000   0.49055727    -5.508349    668.89662  0.028792038  0.027457979          599 
 1937000   0.47575903    -5.533723    668.81516  0.028773669  0.027439082          468 
 1938000   0.47661308   -5.5257792    670.14141   0.02881585  0.027420195          554 
 1939000   0.48009819     -5.52208    668.68394  0.028738351  0.027401334          600 
 1940000   0.47982127   -5.5028566    669.18506  0.028745063  0.027382465          573 
 1941000   0.47667903   -5.5298624    669.41699  0.028740211  0.027363608          546 
 1942000   0.48106789   -5.5526785    669.02465  0.028708576  0.027344762          576 
 1943000   0.47771668   -5.5616521    669.20786  0.028701658  0.027325925          534 
 1944000   0.47750751   -5.5338264    668.84968   0.02867154  0.027307089          600 
 1945000   0.47509805   -5.5411806    669.97706  0.028705101   0.02728826          487 
 1946000   0.46945447   -5.5265969     668.9476  0.028646266  0.027269442          471 
 1947000   0.48016452   -5.5297766    667.91126  0.028587197  0.027250635          664 
 1948000   0.48392184   -5.5301601    669.25412  0.028629967   0.02723185          546 
 1949000   0.47913851   -5.5511375    668.81298  0.028596416  0.027213069          568 
 1950000   0.47786237   -5.5480346    668.68227  0.028576165  0.027194245          608 
 1951000   0.47460629   -5.5425077    667.03736  0.028491259  0.027175385          601 
 1952000   0.47582747     -5.52319    668.51756  0.028539855  0.027156575          648 
 1953000   0.47255198   -5.5451516    668.11595  0.028508105  0.027137768          605 
 1954000   0.47636657   -5.5355274     669.0414  0.028532984  0.027118952          696 
 1955000   0.46625126   -5.5452933    666.99277  0.028431064  0.027100108          666 
 1956000   0.47923467   -5.5567454    669.38803  0.028518577  0.027081306          632 
 1957000   0.46898824   -5.5462303    668.71091  0.028475171   0.02706255          720 
 1958000   0.47286379   -5.5404389    667.22673   0.02839746  0.027043789          641 
 1959000   0.46464985   -5.5436485    667.54972  0.028396704  0.027025019          655 
 1960000   0.47067092   -5.5383733    667.60051  0.028384376  0.027006306          697 
 1961000   0.46614295   -5.5360514    667.49268  0.028365319  0.026987534          731 
 1962000   0.47015204   -5.5493993    667.32506  0.028343742  0.026968795          756 
 1963000   0.46342634   -5.5474701      667.026  0.028316607  0.026950043          810 
 1964000   0.46499133    -5.552918    667.12436  0.028306363  0.026931291          724 
 1965000   0.47862235   -5.5755163    666.20692   0.02825305  0.026912517          710 
 1966000   0.47368528   -5.5553374     667.3691  0.028287941  0.026893781          759 
 1967000   0.46960496   -5.5527636    667.74035  0.028289288  0.026875092          752 
 1968000   0.46326132   -5.5549006    666.80306  0.028235225   0.02685642          804 
 1969000   0.46516656   -5.5453161    666.09177  0.028190781  0.026837748          865 
 1970000    0.4622046    -5.551739    667.55556  0.028238391  0.026819079          735 
 1971000   0.47875118    -5.552469    667.34146  0.028215012    0.0268004          712 
 1972000   0.45828333   -5.5598769    666.99682   0.02818614  0.026781737          745 
 1973000   0.47180415   -5.5640955    666.48661  0.028150304  0.026763053          767 
 1974000   0.46256204   -5.5557592    666.25216  0.028126147    0.0267444          831 
 1975000   0.46198061   -5.5727731     666.4863  0.028121785  0.026725742          784 
 1976000   0.45541038   -5.5855475     666.6867  0.028116005  0.026707081          818 
 1977000   0.45882939   -5.5846086    666.17711  0.028080303   0.02668843          846 
 1978000   0.45990164   -5.5666618    665.54179  0.028039341  0.026669784          777 
 1979000   0.47321486   -5.5788936    666.20184  0.028052966  0.026651118          885 
 1980000   0.47117627   -5.5678321    667.00568  0.028072629  0.026632494          725 
 1981000    0.4551524   -5.5753909    667.26896  0.028069534  0.026613893          833 
 1982000   0.46409853   -5.5857396    665.96718  0.028000638   0.02659533          929 
 1983000   0.47281272   -5.5912178    665.59305  0.027970795  0.026576743          971 
 1984000   0.45162094   -5.5791257     665.7626  0.027963819  0.026558161          946 
 1985000   0.45725066   -5.5975494    665.62285  0.027943864  0.026539551          905 
 1986000    0.4590262   -5.5814668    665.69129  0.027932666  0.026520966          900 
 1987000   0.44905131   -5.5605416    665.64839  0.027916809  0.026502378          953 
 1988000   0.46246636    -5.568901    666.00018  0.027917513  0.026483839         1028 
 1989000    0.4593802   -5.5794441    664.05073  0.027821801  0.026465334         1042 
 1990000   0.45057597   -5.5939063    665.40275  0.027864437  0.026446804         1067 
 1991000   0.45994768   -5.5825723    666.33543  0.027889479  0.026428312         1049 
 1992000   0.45803763    -5.595962    666.21732  0.027870537  0.026409838         1108 
 1993000   0.46327784   -5.5952958    665.63184  0.027832072  0.026391329         1082 
 1994000     0.448731   -5.5759389    665.42694  0.027809551  0.026372858         1137 
 1995000   0.46006156    -5.589081    665.89472  0.027815151   0.02635436         1014 
 1996000   0.45434237   -5.5902778    665.50566  0.027784972  0.026335896         1091 
 1997000   0.45952025   -5.5804662    665.37091  0.027765436  0.026317422         1100 
 1998000   0.45349811   -5.6065063     664.9328  0.027733267  0.026298975         1049 
 1999000   0.45574407   -5.5985153    664.68334  0.027708994  0.026280519         1076 
 2000000   0.45809293    -5.591956    665.85085  0.027743785  0.026262091         1098 
 2001000   0.45911038    -5.615574    665.13659  0.027700174  0.026243641         1051 
 2002000   0.45463373   -5.6028673    665.22816   0.02769015  0.026225191         1116 
 2003000   0.44713933   -5.5924771     664.4042  0.027642045  0.026206748          987 
 2004000   0.45967347   -5.6085882    665.16483  0.027659881  0.026188344         1046 
 2005000   0.45349973   -5.6003773    664.66191  0.027625183  0.026169953         1093 
 2006000   0.45393082   -5.6019541    664.32457  0.027597398  0.026151513         1116 
 2007000   0.45145139   -5.6028917    664.61344  0.027595642    0.0261331         1131 
 2008000   0.45653255   -5.6133926     664.0704  0.027559362  0.026114675         1090 
 2009000   0.44716854   -5.6074817    664.74151  0.027573482  0.026096309         1082 
 2010000    0.4518391   -5.6062409    663.85967  0.027523203  0.026077918         1119 
 2011000   0.45853727   -5.6105641    664.94359  0.027554434  0.026059546         1070 
 2012000   0.45255645   -5.6076824    665.50333  0.027563922  0.026041202         1085 
Loop time of 5024.41 on 48 procs for 2000000 steps with 4000 atoms

Performance: 68784.163 tau/day, 398.056 timesteps/s
99.4% CPU use with 48 MPI tasks x no OpenMP threads

MPI task timing breakdown:
Section |  min time  |  avg time  |  max time  |%varavg| %total
---------------------------------------------------------------
Pair    | 344.38     | 367.32     | 396.36     |  63.3 |  7.31
Neigh   | 33.912     | 35.568     | 36.823     |  14.3 |  0.71
Comm    | 312.07     | 342.77     | 371.41     |  68.6 |  6.82
Output  | 4.4841     | 4.486      | 4.5222     |   0.3 |  0.09
Modify  | 4216.8     | 4228.6     | 4238.2     |   6.8 | 84.16
Other   |            | 45.67      |            |       |  0.91

Nlocal:        83.3333 ave          92 max          76 min
Histogram: 2 4 1 10 7 12 10 0 1 1
Nghost:        2322.48 ave        2343 max        2300 min
Histogram: 3 3 1 8 10 4 7 5 4 3
Neighs:        15803.1 ave       18341 max       13171 min
Histogram: 1 0 4 8 8 13 8 5 0 1
FullNghs:      31673.1 ave       36093 max       28961 min
Histogram: 4 6 5 13 6 8 4 0 0 2

Total # of neighbors = 1520307
Ave neighs/atom = 380.07675
Neighbor list builds = 107737
Dangerous builds = 1

#clear
#
#next RN
#
#jump SELF
Total wall time: 1:23:47
