
units lj                  # Use reduced LJ style units
atom_style atomic         # Uncharged point particles
atom_modify map hash      # Needed for indexing of clusters etc
                          # Used to be able to find where atoms are in relation to each other.

# Define a lattice with which to populate the simulation cell. With units
# set to 'lj' the second argument to the lattice command is the reduced
# density rho* and the spacings are multiples of that required to acheive
# that density. Also define a simulation cell called 'box' in lattice units
# and fill it with atoms. Here we're creating a box which is ten lattice
# constants in each direction.
lattice fcc 1.0 spacing 1 1 1                 # All equal sizes - gives the right reduced density.
Lattice spacing in x,y,z = 1.5874011 1.5874011 1.5874011

region box block 0 10 0 10 0 10 units lattice # Defines a region, "box", in lattice units
create_box 1 box                              # Creates a simulation box as specified above,
Created orthogonal box = (0.0000000 0.0000000 0.0000000) to (15.874011 15.874011 15.874011)
  2 by 3 by 4 MPI processor grid
                                              # with one type of atom
create_atoms 1 box                            # Creates particles on lattice points
Created 4000 atoms
  using lattice units in orthogonal box = (0.0000000 0.0000000 0.0000000) to (15.874011 15.874011 15.874011)
  create_atoms CPU = 0.003 seconds


# Set the mass of the first (and only) atom type.
mass 1 1.0

# Lennard-Jones interactions between particles, 3.5 sigma cut-off. Apply
# long range tail corrections to energy and pressure and set all coefficients
# to unity since we work in reduced units here. Note that this doesn't shift
# the potential such that it goes to zero at the cutoff. That would require
# pair_modify('shift', 'yes').
pair_style lj/cut  3.5      # non-GPU version
pair_modify tail  yes
pair_coeff 1  1  1.0  1.0   # Intearaction between 1 and 1 set with epsilon = 1 and sigma = 1

write_data data.*
System init for write_data ...
Neighbor list info ...
  update every 1 steps, delay 10 steps, check yes
  max neighbors/atom: 2000, page size: 100000
  master list distance cutoff = 3.8
  ghost atom cutoff = 3.8
  binsize = 1.9, bins = 9 9 9
  1 neighbor lists, perpetual/occasional/extra = 1 0 0
  (1) pair lj/cut, perpetual
      attributes: half, newton on
      pair build: half/bin/atomonly/newton
      stencil: half/bin/3d
      bin: standard

#############################
#   M E L T   S Y S T E M   #
#############################

velocity all create 2.4 1741580 mom yes dist gaussian # Assign velocities
                                                    # Temperature 2.4, random number seed, zero linear momentum
						                                                        # Gaussian distribution

timestep 0.002   # simulation timestep
thermo 100       # output thermodynamic data every 100 steps

# Define a fix  in this case with index 1 applied to all
# particles in the simulation. This fix is for simulations
# in the anisotropic NPT ensemble. Note that we use the MTK
# correction.
fix 1 all npt temp 2.4 2.4 0.1 iso 5.68 5.68 0.5 mtk yes tchain 5 pchain 5 # Use NPT ensemble
                                                                         # Set temperature and pressure and damping
                                                                         # Numbers of thermostats in chain and in barostat
run 1000         # run for 10000 steps
Per MPI rank memory allocation (min/avg/max) = 3.676 | 3.679 | 3.684 Mbytes
Step Temp E_pair E_mol TotEng Press Volume 
       0          2.4   -8.3859253            0   -4.7868253   -2.2405722         4000 
     100    1.2552531   -6.5115672            0   -4.6291582     5.497081    4088.0579 
     200    1.4628633    -6.289567            0   -4.0958206    6.0903972    4138.0466 
     300    1.5904925   -6.0345783            0   -3.6494359    5.7376042    4272.4771 
     400    1.6850752   -5.7072351            0   -3.1802542    5.9705826    4399.2373 
     500    1.7895599   -5.4225046            0   -2.7388358     5.865757    4546.8704 
     600    1.8965854   -5.1442855            0   -2.3001186     5.865539    4691.2751 
     700    2.0304439     -4.92263            0   -1.8777256    5.8141752    4830.4151 
     800    2.1710171   -4.7567122            0   -1.5010006    5.6106115    4968.6247 
     900    2.2247838   -4.5230698            0   -1.1867284    5.8051376    5086.8715 
    1000     2.364264   -4.4348938            0  -0.88938446    5.9115751    5144.0032 
Loop time of 0.31903 on 24 procs for 1000 steps with 4000 atoms

Performance: 541641.161 tau/day, 3134.497 timesteps/s
99.5% CPU use with 24 MPI tasks x no OpenMP threads

MPI task timing breakdown:
Section |  min time  |  avg time  |  max time  |%varavg| %total
---------------------------------------------------------------
Pair    | 0.17585    | 0.18674    | 0.19643    |   1.1 | 58.53
Neigh   | 0.033687   | 0.035389   | 0.037234   |   0.5 | 11.09
Comm    | 0.063134   | 0.072965   | 0.084449   |   2.0 | 22.87
Output  | 0.00020494 | 0.00021217 | 0.00027911 |   0.0 |  0.07
Modify  | 0.019302   | 0.021521   | 0.023488   |   0.8 |  6.75
Other   |            | 0.002203   |            |       |  0.69

Nlocal:        166.667 ave         176 max         152 min
Histogram: 1 0 2 0 3 4 6 4 3 1
Nghost:        1840.88 ave        1857 max        1826 min
Histogram: 3 1 3 4 1 2 4 4 0 2
Neighs:        14784.9 ave       15702 max       13755 min
Histogram: 2 1 1 5 1 3 5 0 4 2

Total # of neighbors = 354837
Ave neighs/atom = 88.709250
Neighbor list builds = 86
Dangerous builds = 16

# Equilibrate just above the melting temperature to avoid step fn in T

fix 1 all npt temp 1.25 1.25 0.1 iso 5.68 5.68 0.5 mtk yes tchain 5 pchain 5
run 1000
Per MPI rank memory allocation (min/avg/max) = 3.677 | 3.680 | 3.685 Mbytes
Step Temp E_pair E_mol TotEng Press Volume 
    1000     2.364264   -4.4348938            0  -0.88938446    5.9115751    5144.0032 
    1100    1.9499649   -4.6617779            0   -1.7375618    5.8205171    4978.7844 
    1200    1.7213197   -4.9482774            0   -2.3669434    5.7402188    4808.4294 
    1300    1.5721809   -5.1954201            0   -2.8377383    5.7003773    4667.9329 
    1400    1.4692769   -5.4052033            0   -3.2018389    5.6740098     4560.708 
    1500    1.3897296   -5.5637068            0   -3.4796336    5.6667574    4476.2103 
    1600    1.2963572   -5.6470084            0   -3.7029588    5.6441736    4434.9383 
    1700    1.2716936   -5.7363737            0   -3.8293102    5.7159049    4387.6158 
    1800    1.2561313   -5.8008832            0   -3.9171572    5.6027564    4366.0004 
    1900     1.242552   -5.8327759            0   -3.9694139    5.6800198    4347.3872 
    2000    1.2686809   -5.8614487            0   -3.9589031    5.5394068    4347.1855 
Loop time of 0.311524 on 24 procs for 1000 steps with 4000 atoms

Performance: 554691.764 tau/day, 3210.022 timesteps/s
99.7% CPU use with 24 MPI tasks x no OpenMP threads

MPI task timing breakdown:
Section |  min time  |  avg time  |  max time  |%varavg| %total
---------------------------------------------------------------
Pair    | 0.1812     | 0.18572    | 0.19444    |   0.8 | 59.62
Neigh   | 0.030625   | 0.031356   | 0.032003   |   0.2 | 10.07
Comm    | 0.061965   | 0.070782   | 0.075981   |   1.3 | 22.72
Output  | 0.0002076  | 0.00021386 | 0.00027425 |   0.0 |  0.07
Modify  | 0.01986    | 0.020988   | 0.022639   |   0.5 |  6.74
Other   |            | 0.002463   |            |       |  0.79

Nlocal:        166.667 ave         176 max         159 min
Histogram: 1 1 7 1 4 5 1 3 0 1
Nghost:        2035.25 ave        2048 max        2013 min
Histogram: 1 0 2 0 4 2 5 1 6 3
Neighs:        17526.7 ave       18387 max       16728 min
Histogram: 3 2 3 3 2 3 1 2 2 3

Total # of neighbors = 420641
Ave neighs/atom = 105.16025
Neighbor list builds = 76
Dangerous builds = 5


# Small amount of linear quench

fix 1 all npt temp 1.25 ${temp} 0.1 iso 5.68 5.68 0.5 mtk yes tchain 5 pchain 5
fix 1 all npt temp 1.25 0.8 0.1 iso 5.68 5.68 0.5 mtk yes tchain 5 pchain 5
run 2000
Per MPI rank memory allocation (min/avg/max) = 3.677 | 3.680 | 3.685 Mbytes
Step Temp E_pair E_mol TotEng Press Volume 
    2000    1.2686809   -5.8614487            0   -3.9589031    5.5394068    4347.1855 
    2100    1.2268144   -5.8425558            0   -4.0027942    5.6563058     4341.501 
    2200    1.2056958   -5.8911484            0   -4.0830567    5.6083763    4326.7941 
    2300    1.1976273   -5.9166444            0   -4.1206524    5.5363578    4321.8826 
    2400    1.1848309   -5.9441781            0    -4.167376    5.7491616    4289.5702 
    2500    1.1670109   -5.9714882            0   -4.2214096    5.7324459    4279.1135 
    2600    1.1224418     -6.01006            0   -4.3268183     5.548013    4274.4581 
    2700    1.1073412   -6.0408298            0   -4.3802333    5.6084252    4254.3354 
    2800    1.0930318   -6.0889675            0   -4.4498296    5.6459461    4232.3542 
    2900    1.0541013   -6.1152974            0   -4.5345408    5.6113972    4223.2166 
    3000    1.0289041    -6.140428            0   -4.5974576    5.6035984    4211.0587 
    3100    1.0224838   -6.1779565            0   -4.6446142    5.7842354    4180.3248 
    3200    1.0130242   -6.2179454            0   -4.6987891    6.0399551    4146.9933 
    3300   0.97860426   -6.2563145            0    -4.788775    5.8751916    4143.5236 
    3400   0.94931739   -6.2955072            0   -4.8718871    5.7963542    4131.6311 
    3500   0.92662977   -6.3292604            0   -4.9396633    5.6982874    4125.8706 
    3600   0.91441319   -6.3860901            0   -5.0148132    5.6149529    4110.2555 
    3700    0.8923951    -6.420635            0    -5.082377    5.7316207    4086.3956 
    3800   0.87611217   -6.4689449            0   -5.1551052    5.8100419    4063.6387 
    3900   0.83911395   -6.4918472            0    -5.233491    5.7181527    4058.7263 
    4000   0.82972908   -6.5451202            0   -5.3008377    5.6145591    4046.6035 
Loop time of 0.653755 on 24 procs for 2000 steps with 4000 atoms

Performance: 528638.502 tau/day, 3059.251 timesteps/s
99.7% CPU use with 24 MPI tasks x no OpenMP threads

MPI task timing breakdown:
Section |  min time  |  avg time  |  max time  |%varavg| %total
---------------------------------------------------------------
Pair    | 0.3903     | 0.40361    | 0.43592    |   1.3 | 61.74
Neigh   | 0.050966   | 0.052337   | 0.054742   |   0.4 |  8.01
Comm    | 0.1195     | 0.14875    | 0.16638    |   2.5 | 22.75
Output  | 0.00040477 | 0.0004168  | 0.00055335 |   0.0 |  0.06
Modify  | 0.036796   | 0.042731   | 0.052246   |   2.6 |  6.54
Other   |            | 0.005909   |            |       |  0.90

Nlocal:        166.667 ave         175 max         157 min
Histogram: 1 0 3 1 4 5 5 4 0 1
Nghost:        2133.58 ave        2150 max        2121 min
Histogram: 3 3 4 1 2 3 5 1 1 1
Neighs:        18883.0 ave       20047 max       17811 min
Histogram: 1 2 2 2 5 5 4 2 0 1

Total # of neighbors = 453192
Ave neighs/atom = 113.29800
Neighbor list builds = 122
Dangerous builds = 0

#############################
# F R E E Z E  S Y S T E M  #
#############################

# Define solid atoms. This closely follows ten Wolde  Ruiz-Montero and Frenkel  Faraday Discuss  1996  104  93-110
# Compute components of the per-atom q6 vector
compute q6 all orientorder/atom degrees 1 6 components 6 nnn NULL cutoff 1.3 # compute the Q6 parameter.
                                                                             # Use all neighbours within 1.3 unit cell.

# get number of connections
compute coord_number all coord/atom orientorder q6 0.5

# An atom is solid if it has 8 or more connections (of a possible 14)
variable is_solid atom c_coord_number>=8
group solid dynamic all var is_solid    # Must be dynamic to update
dynamic group solid defined

# do clustering
compute cluster solid cluster/atom 1.3 # Create a cluster where all atoms within are solid and max 1.3 units from another member

# define chunks one chunk per cluster
compute clus_chunks solid chunk/atom c_cluster nchunk every compress yes  # Says which atoms are in which chunk

# count the size of each chunk
compute size_chunks solid property/chunk clus_chunks count


# Find the maximum entry in the vector of chunk sizes
variable max_n equal max(c_size_chunks)


# Thermo style which includes this variable
thermo_style custom step temp pe vol v_max_n

thermo ${N}  # Print the thermo information every 100 steps
thermo 100  

# Reset the npt fix at a lower temperature (below freezing)
fix 1  all npt temp  ${temp} ${temp}  0.1  iso  5.68  5.68  0.5  mtk yes tchain  5  pchain  5
fix 1  all npt temp  0.8 ${temp}  0.1  iso  5.68  5.68  0.5  mtk yes tchain  5  pchain  5
fix 1  all npt temp  0.8 0.8  0.1  iso  5.68  5.68  0.5  mtk yes tchain  5  pchain  5

dump dmp2 all dcd ${N} traj_${rand}.dcd
dump dmp2 all dcd 100 traj_${rand}.dcd
dump dmp2 all dcd 100 traj_462431.dcd


# fix rnuntil all halt ${N} v_max_n >= 3980 error soft message no   # Stop when solidified


run 100000 # 5000000  # Run for this many steps
Neighbor list info ...
  update every 1 steps, delay 10 steps, check yes
  max neighbors/atom: 2000, page size: 100000
  master list distance cutoff = 3.8
  ghost atom cutoff = 3.8
  binsize = 1.9, bins = 9 9 9
  4 neighbor lists, perpetual/occasional/extra = 1 3 0
  (1) pair lj/cut, perpetual
      attributes: half, newton on
      pair build: half/bin/atomonly/newton
      stencil: half/bin/3d
      bin: standard
  (2) compute orientorder/atom, occasional
      attributes: full, newton on
      pair build: full/bin/atomonly
      stencil: full/bin/3d
      bin: standard
  (3) compute coord/atom, occasional
      attributes: full, newton on
      pair build: full/bin/atomonly
      stencil: full/bin/3d
      bin: standard
  (4) compute cluster/atom, occasional
      attributes: full, newton on
      pair build: full/bin/atomonly
      stencil: full/bin/3d
      bin: standard
Per MPI rank memory allocation (min/avg/max) = 9.499 | 9.503 | 9.508 Mbytes
Step Temp PotEng Volume v_max_n 
    4000   0.82972908   -6.5451202    4046.6035           24 
    4100   0.81142641   -6.5633848    4030.4557            9 
    4200   0.80332524   -6.5882171     4025.244            6 
    4300   0.81737474   -6.5857853    4026.3913           10 
    4400   0.80733612   -6.5932835    4016.4721            9 
    4500   0.78804762   -6.5854256    4007.2798           13 
    4600   0.80744291   -6.6189255    4012.0609           18 
    4700   0.81229059   -6.6289612    4003.6986           15 
    4800   0.80423171   -6.6401866    4002.3166           12 
    4900   0.81930726   -6.6297227     4010.749           10 
    5000   0.81833266   -6.6114804    4028.6662            8 
    5100   0.80633617   -6.6471151    4013.5968           21 
    5200   0.78529941   -6.6502571    4008.6832           10 
    5300   0.80832741   -6.6515906    4012.9254           10 
    5400   0.80979513   -6.6467226    4017.7194           11 
    5500   0.80955587   -6.6255661    4015.6893           18 
    5600   0.78305022   -6.6131672     4001.229           11 
    5700   0.80372014   -6.6255429    3999.5415           12 
    5800   0.80595619   -6.6518824    4005.5311           12 
    5900   0.79453519   -6.6415895    4008.5128           20 
    6000   0.80670614   -6.6256076    4008.3158           12 
    6100   0.80259393    -6.641188    4004.2213           11 
    6200   0.80952709   -6.6370367    3999.6187           13 
    6300   0.79667782   -6.6499136    3996.2987           14 
    6400   0.80145709   -6.6550116    3989.4241           17 
    6500   0.81601956   -6.6472323    4004.4425           21 
    6600   0.79933571   -6.6518621    4006.3867           45 
    6700   0.78983309   -6.6516716    3993.7776           40 
    6800   0.80489127    -6.659609    4001.4701           36 
    6900   0.79791858   -6.6471451    3998.6681           39 
    7000   0.81340952   -6.6440628    3998.7603           12 
    7100   0.80402652   -6.6484296    4000.9624           14 
    7200   0.79995746   -6.6526096    4005.9763           28 
    7300   0.80028611   -6.6570021    3998.9854           42 
    7400   0.79961769   -6.6756748    3987.5916           25 
    7500   0.79457156   -6.6561581    3993.0586           32 
    7600   0.80746567   -6.6370773    4010.2579           27 
    7700   0.81251099   -6.6435843    3997.3486           25 
    7800   0.79997939   -6.6369876    3990.0534           28 
    7900   0.79726022   -6.6526059    3989.5685           29 
    8000    0.8123956   -6.6732825    3997.2448           30 
    8100   0.81845159    -6.649431    4004.3796           17 
    8200   0.79531256   -6.6431176     4001.768           21 
    8300   0.82445952   -6.6433121    4005.3911           13 
    8400    0.7896643   -6.6356163    4004.3216           32 
    8500   0.80194033   -6.6854351    4003.9647           24 
    8600   0.80508544   -6.6530778    4008.0628           33 
    8700   0.79732239    -6.625278    3996.8751           25 
    8800   0.79050315   -6.6383122    4004.4226           21 
    8900   0.79923308   -6.6291181    4011.0607           31 
    9000   0.79971307   -6.6646345    4010.0355           42 
    9100   0.79275536   -6.6551892    4014.2115           18 
    9200   0.79712491   -6.6441974    4016.7982           10 
    9300    0.7915768   -6.6530541    4003.6653           13 
    9400   0.78995911    -6.638297    3996.4826           12 
    9500   0.80440884   -6.6518743    4005.1836           26 
    9600    0.8181149   -6.6609516    4009.6942           17 
    9700   0.78832205   -6.6590541    4009.8494           31 
    9800   0.80176834     -6.63916    4012.9793           44 
    9900   0.80400652   -6.6224153    4007.4365           36 
   10000   0.79820525   -6.6362647    4004.4484           40 
   10100   0.80353269   -6.6025785    4011.5858           16 
   10200   0.80483938   -6.6143208     4007.793           36 
   10300   0.81711801   -6.6627969     3997.488           18 
   10400   0.79721981     -6.65792    4002.0941           58 
   10500    0.8109323   -6.6613146    4011.7463           29 
   10600   0.81553863   -6.6222744    4017.1613           38 
   10700   0.80524601   -6.6465375    4009.0462           22 
   10800    0.7873139   -6.6302088    3995.7158           39 
   10900    0.7942749   -6.6684607    4000.2465           26 
   11000    0.7863278     -6.64566    4005.5572           35 
   11100   0.79268762   -6.6613524    4008.2001           25 
   11200   0.79562239   -6.6681007    4009.1948           20 
   11300   0.79403815   -6.6324104    4013.2311           21 
   11400   0.79563632   -6.6458143    4009.0024           16 
   11500   0.79591826   -6.6841818    3994.0633           20 
   11600   0.80103346    -6.636662    3986.1377           14 
   11700   0.79075272   -6.6383837    3993.5495           10 
   11800   0.80457525    -6.676838     3995.221           13 
   11900   0.80302525    -6.675993    4003.7255           15 
   12000   0.80183621   -6.6430983    4005.9855           12 
   12100     0.788008   -6.6552054    3999.6756           17 
   12200   0.82185135    -6.660609    3999.1399           14 
   12300   0.80196524   -6.6402922     4002.003           21 
   12400   0.81480106   -6.6465453    4007.5711           17 
   12500   0.80535322    -6.659173    4006.3652           18 
   12600   0.78753708    -6.645785    3995.9974           21 
   12700   0.79987854   -6.6289149    4010.0006           21 
   12800   0.79381658   -6.6412955    4013.5863           12 
   12900   0.79849015     -6.65882    4013.7223           13 
   13000   0.81124304   -6.6394154    4012.1448           18 
   13100   0.79456957   -6.6458969    4007.0786           15 
   13200   0.79107297   -6.6387395    4003.9669           21 
   13300   0.78360441   -6.6451044    3993.1798           26 
   13400   0.81586712   -6.6589843    3997.1853           23 
   13500   0.80547526   -6.6406358    3995.8152           15 
   13600   0.78886303   -6.6485552    3994.4637           14 
   13700   0.82137862   -6.6695732    4012.3607           31 
   13800   0.79753447    -6.654136    4001.1147           58 
   13900   0.79311067     -6.63888    3991.3552           50 
   14000   0.80505361   -6.6452145    4001.9621           42 
   14100   0.78877571   -6.6513199    4017.6515           18 
   14200   0.77532064   -6.6514173    4009.6502           44 
   14300   0.79722259   -6.6490207    4020.1348           33 
   14400   0.80056124   -6.6399215    4017.3444           10 
   14500   0.78901481   -6.6489683     4007.287           43 
   14600   0.81277209   -6.6624669    3999.0519           20 
   14700   0.79215489   -6.6488253    4001.7717           34 
   14800   0.80539796   -6.6242031     4015.599           18 
   14900   0.80347397   -6.6239009    4003.2321           21 
   15000   0.80883349   -6.6518558    3998.9004           30 
   15100   0.78137315   -6.6333311    3995.1548           35 
   15200   0.80136724   -6.6339669    4014.0759           35 
   15300   0.80200637   -6.6373676    4020.4447           23 
   15400   0.82105237   -6.6310012    4013.2605           25 
   15500   0.79528769   -6.6224971    3999.1761           25 
   15600   0.79701795   -6.6432219     3997.683           21 
   15700   0.79824142   -6.6425813    3998.5524           32 
   15800   0.79019138   -6.6558099    3998.8877           28 
   15900   0.80225399   -6.6411632    4009.5343           27 
   16000    0.8136062   -6.6474767    4018.8765           17 
   16100   0.81705718   -6.6106749    4017.3261           20 
   16200   0.80209292   -6.6256848    4007.0482           18 
   16300   0.80149504   -6.6469531    4004.7372           25 
   16400   0.81774039   -6.6313359    4001.6222           13 
   16500   0.78973829   -6.6326755    4002.6566           13 
   16600   0.79614134    -6.635926     4010.631           20 
   16700   0.79415481   -6.6570738    4010.1702           33 
   16800   0.79865796    -6.651914    4009.6675           16 
   16900   0.79611887   -6.6003317    4010.4953           40 
   17000   0.80191016   -6.6227018    4006.1257           62 
   17100   0.80156407   -6.6271052    3999.3705           56 
   17200   0.81627827   -6.6541683    4000.3408           15 
   17300   0.79744136   -6.6551587    3997.1702           15 
   17400   0.80820907    -6.644525     4004.701           45 
   17500   0.79700988   -6.6694142    4006.7584           16 
   17600   0.79886525   -6.6416386    4006.5175           28 
   17700   0.81165155   -6.6664074    4004.0153           18 
   17800   0.79727956   -6.6487945    4005.2985           24 
   17900   0.79998004   -6.6335214    3993.4418           17 
   18000    0.7962938   -6.6379504    3988.2663           22 
   18100   0.79741805   -6.6620053    3995.3037           26 
   18200   0.81495926   -6.6503977    4005.4581           19 
   18300   0.80007415   -6.6334512    3997.7672           15 
   18400   0.78156127   -6.6503856    3997.9769           18 
   18500   0.80736528   -6.6532279    4005.3676           14 
   18600   0.80542872   -6.6436914    4004.3913           15 
   18700   0.79567773   -6.6658308      3992.51           25 
   18800   0.80148997   -6.6524484    3990.2609           16 
   18900   0.81350995   -6.6387106    4005.4682           15 
   19000   0.79618094   -6.6241829    4012.3947           16 
   19100   0.78471713    -6.653741    4003.9829           12 
   19200   0.80397004   -6.6666423    4008.0793            7 
   19300   0.80474969   -6.6486026    4006.4948            8 
   19400   0.78193021   -6.6575112    3996.9833           17 
   19500   0.79554011   -6.6620015    4001.1463           17 
   19600   0.79398426   -6.6497541    4010.1608            9 
   19700   0.80127603   -6.6403547    4019.6598            6 
   19800   0.79728048   -6.6368231     4018.841            8 
   19900   0.79619935   -6.6523679    3994.6252           12 
   20000   0.79681588   -6.6477331    3992.2989           14 
   20100   0.80765442   -6.6466823    3994.5661           10 
   20200   0.81325712   -6.6380465    4001.6353           16 
   20300   0.79654516   -6.6431067    4002.1014           12 
   20400   0.81591567   -6.6423789    4001.6867           14 
   20500   0.80482717   -6.6736895    3998.0725           17 
   20600    0.7928891   -6.6568555    3997.8972            5 
   20700   0.80344239   -6.6559502    4012.4786           16 
   20800   0.78380587   -6.6224343     4006.391           14 
   20900   0.79233959   -6.6587752    3999.9868           17 
   21000   0.78779218   -6.6632867    3998.1593           11 
   21100    0.8095992   -6.6561706    3995.2446           11 
   21200   0.80908082    -6.631062    4001.0406            7 
   21300   0.78878876   -6.6277807     4006.738            6 
   21400   0.79518324   -6.6365012    3993.8237            6 
   21500   0.79654222     -6.64631    4000.0891           17 
   21600   0.79697207   -6.6501654    4007.8635           13 
   21700   0.80519523   -6.6371249    4014.1856           13 
   21800   0.80032862   -6.6607489    4010.9605           21 
   21900   0.79626293   -6.6339942    4006.2303           15 
   22000    0.8073827   -6.6345458    4014.0238           17 
   22100   0.79538766   -6.6574227     4012.377           11 
   22200   0.78275707   -6.6419204    4017.7217           14 
   22300    0.8051611   -6.6436496      4019.03           15 
   22400   0.78889772   -6.6349867    4005.3429           13 
   22500    0.7878619    -6.635873    4001.2353           15 
   22600   0.81012528   -6.6430157    4014.8978            9 
   22700   0.79412645   -6.6648961    4006.2889           10 
   22800   0.78942225    -6.640292     3998.128           17 
   22900    0.7998409     -6.63312    4011.4874           11 
   23000   0.80611291    -6.659717    4002.7255           16 
   23100   0.78757226   -6.6375905    3996.9065           14 
   23200   0.79125249   -6.6344677    3999.9457           14 
   23300   0.78056139   -6.6692823    3994.6481           13 
   23400   0.80649191   -6.6802907    4005.3283           14 
   23500   0.79397845   -6.6531945    4007.7603           14 
   23600   0.81355909   -6.6440201    4011.7874           16 
   23700   0.77882104   -6.6204131    4009.6608           23 
   23800   0.82193561   -6.6455751    4008.2696           15 
   23900    0.7961405   -6.6405299    3998.2092           11 
   24000   0.79881653   -6.6682538    3992.2607           17 
   24100   0.79860668   -6.6398819    4006.5304           17 
   24200   0.79215021   -6.6845326    4016.7469           19 
   24300   0.78307565   -6.6640454    4011.8373           19 
   24400   0.79885796   -6.6454642    4007.9824           25 
   24500   0.79431795   -6.6426332    3999.0293           37 
   24600   0.79820817   -6.6544017    3997.3453           28 
   24700     0.801884   -6.6696218    4001.8491           43 
   24800   0.80914705   -6.6791378    4007.2679           41 
   24900   0.81650533    -6.673891    4013.9246           78 
   25000   0.79517105   -6.6692492    3998.7436           32 
   25100   0.79331284    -6.664556    3993.5241           54 
   25200   0.80960315   -6.6601394    4006.3813           56 
   25300   0.77852385   -6.6654369    4005.1047           69 
   25400   0.78349665    -6.680443    4000.2128           52 
   25500   0.80845828     -6.65721    3997.2535           58 
   25600   0.80320911   -6.6393076    3987.5509           33 
   25700   0.81830196   -6.6272184    3995.1648           47 
   25800   0.80363687   -6.6596265    4004.6535           45 
   25900   0.78792677    -6.640169    3997.4792           61 
   26000   0.80315015   -6.6668928    4000.7459           54 
   26100   0.79310857   -6.6878167    3994.3943          101 
   26200   0.79827411   -6.6656067    3999.0604           35 
   26300   0.79356754   -6.6513996    4006.2119           40 
   26400   0.79820291   -6.6646019    4000.6891           48 
   26500   0.81136788   -6.6871008    3993.0899           45 
   26600   0.81744703   -6.6516623    3997.0441           54 
   26700   0.81050629   -6.6731278     3990.996           22 
   26800   0.79373064   -6.6733212    3990.6949           37 
   26900    0.7978321   -6.6614177     3996.186           19 
   27000   0.80697484   -6.6434569    3989.5751           19 
   27100   0.79824244   -6.6561404    3989.4059           17 
   27200   0.81246955   -6.6568689    3990.7543           18 
   27300   0.79729398   -6.6632999    3999.7409           24 
   27400   0.78827672   -6.6667874    4007.2943           42 
   27500   0.78507531   -6.6458378    4007.4685           18 
   27600   0.81262824   -6.6686682    4005.2095           30 
   27700   0.78202286   -6.6554301     3997.605           21 
   27800   0.80659695    -6.660421    3996.4504           22 
   27900   0.78325916   -6.6611958     3997.755           13 
   28000   0.80291127    -6.664267    3996.2441           23 
   28100   0.80031948    -6.671992    3994.5925           32 
   28200   0.81214202   -6.6541328    3999.4766           17 
   28300   0.81002894   -6.6536585    3997.8405           15 
   28400   0.79347013   -6.6735162    3993.1577           12 
   28500   0.78494508   -6.6410055    4002.1643            8 
   28600   0.80607326   -6.6487562     4005.376           10 
   28700   0.79678373   -6.6735984    4001.9457           18 
   28800   0.80074272   -6.6824216     3997.113           17 
   28900   0.79793384   -6.6434129    4005.9801            8 
   29000   0.80049555   -6.6461413    4003.1625           12 
   29100   0.78662921   -6.6667279    3994.7222            9 
   29200   0.79520781   -6.6431303    3994.6269           12 
   29300   0.80659459   -6.6469678    4005.0733           11 
   29400   0.80479198   -6.6485333    4020.3917            5 
   29500   0.80148906   -6.6630806    4011.8357           18 
   29600   0.80004179   -6.6586823    3999.8917           26 
   29700    0.7988491   -6.6322507    4014.8193           39 
   29800   0.80010259   -6.6283297    4012.3254           15 
   29900   0.79818603   -6.6299172    4005.4535           15 
   30000   0.81101064   -6.6443884    4005.3335           14 
   30100   0.78280676   -6.6355073    4007.9771           11 
   30200   0.78795791   -6.6600142    4009.7134           20 
   30300    0.8050429   -6.6533265    4015.8776           14 
   30400   0.80293841   -6.6640202    4015.0557           20 
   30500    0.7817317   -6.6482168    4004.6583           17 
   30600   0.80109562   -6.6371476    4007.3893           21 
   30700   0.80467879   -6.6660384    4017.7056           44 
   30800   0.79408177   -6.6456169    4011.5849           28 
   30900   0.79027944   -6.6589988    3995.9957           28 
   31000   0.81121655   -6.6399978    3990.1849           27 
   31100   0.79752438   -6.6194103     3999.792           32 
   31200   0.81130935   -6.6284139    4014.6022           18 
   31300   0.80006128   -6.6507169    4013.1281           19 
   31400   0.79395291   -6.6617082    4005.8776           19 
   31500   0.79062058   -6.6344895    3998.9692           29 
   31600   0.80821191   -6.6147604    4005.7256           25 
   31700   0.79310734   -6.6152713     3998.731           18 
   31800   0.78740229   -6.6385449    4010.7113           32 
   31900   0.79114919   -6.6285971    4014.9531           52 
   32000   0.81105176    -6.615642    4018.4387           38 
   32100   0.80233351   -6.6315223    4009.6261           20 
   32200   0.78014935   -6.6398837    4012.9596           28 
   32300   0.79127393   -6.6205317    4009.8835           34 
   32400   0.78290818   -6.6388735    4013.3556           20 
   32500   0.78624073   -6.6616791    4012.2367           13 
   32600   0.79852442   -6.6527083    4016.3442           28 
   32700   0.80570386   -6.6262864    4013.6903           30 
   32800   0.79475169   -6.6353261    4006.2515           33 
   32900   0.79544674   -6.6482675    3997.4041           27 
   33000   0.77724969   -6.6473457    4007.6805           27 
   33100   0.80109435   -6.6561338    4018.7717           15 
   33200   0.79384898   -6.6246021    4006.7257           21 
   33300   0.80882437   -6.6190115    4003.2863           13 
   33400   0.79898065   -6.6507991    3999.7608           32 
   33500   0.80994889   -6.6580414    4012.8395           31 
   33600   0.79529559   -6.6490852    4009.7302           13 
   33700   0.78622517   -6.6609289    4000.2688           15 
   33800   0.78618194   -6.6242473    4004.1841           22 
   33900   0.79827898   -6.6241961    4009.1837           23 
   34000   0.79308239   -6.6666252    4008.8662           20 
   34100   0.79439137   -6.6380989    4004.7099           18 
   34200   0.79140026   -6.6150506    4010.6957           17 
   34300   0.80966574   -6.6640268    4012.7379           15 
   34400    0.7872006   -6.6315197    4007.5052           19 
   34500   0.79533657   -6.6216052    4011.0675           23 
   34600   0.79012192   -6.6205029     4010.376           34 
   34700   0.81089516   -6.6655827    4010.9449           17 
   34800   0.78623947   -6.6449735    4005.0507           11 
   34900   0.79462928   -6.6277083    4004.5079           22 
   35000   0.81986532   -6.6226081    4008.0446            7 
   35100   0.79923637   -6.6230349    3998.0648            7 
   35200   0.81152106   -6.6644095    4006.4645           18 
   35300   0.79058246   -6.6455849     4007.991           23 
   35400   0.80077467   -6.6666259    4007.1144           15 
   35500    0.8049517   -6.6430208    4005.6945           25 
   35600   0.79718924   -6.6505799    4008.3598           15 
   35700   0.79430931   -6.6535004    4005.5847           14 
   35800   0.80463737   -6.6377295    4007.4819            8 
   35900   0.79474943   -6.6467299    4008.0796           10 
   36000     0.795277    -6.681147    4007.5401           15 
   36100   0.79609968   -6.6318325    4004.9918           12 
   36200   0.79702258   -6.6159095    4000.1878           23 
   36300   0.79131332   -6.6594796    4001.2232           19 
   36400   0.80847104   -6.6745387    4000.0889           13 
   36500   0.79631594   -6.6325756    3999.0596           17 
   36600   0.79860661   -6.6462358    3997.0381           12 
   36700   0.79539798   -6.6789905    3992.0548           14 
   36800   0.78964588   -6.6530621     4010.775           20 
   36900   0.80001496   -6.6484076    4012.6275           15 
   37000   0.81788893   -6.6637721    4011.4904           26 
   37100    0.7922394   -6.6292792    3998.7855           15 
   37200   0.79811599   -6.6307823    3993.8283           18 
   37300   0.80504706   -6.6173607    4011.2836           12 
   37400   0.79927379   -6.6332971    4018.1664           30 
   37500   0.80159699   -6.6523787    4006.1806           21 
   37600   0.78869011   -6.6568051    4001.5629           14 
   37700   0.80109297   -6.6520065    4006.2736           17 
   37800   0.80461842   -6.6496405    4008.9577           28 
   37900    0.7971024   -6.6543125    4015.0636           12 
   38000   0.80503411    -6.647165    4011.0211           17 
   38100   0.80931808   -6.6196919    4003.6481           26 
   38200    0.8039628   -6.6311644    4002.1965           25 
   38300   0.79890271   -6.6442062    4005.5185           26 
   38400   0.80222923   -6.6507228    4003.1717           21 
   38500   0.79923305    -6.653532    4003.5373           34 
   38600   0.81187072   -6.6351937    4009.2543           60 
   38700   0.80399311   -6.6422509    3993.4339           26 
   38800   0.79189958   -6.6239558    3995.0584           32 
   38900   0.79835828   -6.6288417    3998.8335           19 
   39000   0.81714524   -6.6365706    4005.6835           15 
   39100   0.79355956   -6.6387751    4010.6272           11 
   39200   0.80352936   -6.6587173    4014.6108           12 
   39300   0.79016057   -6.6758508    4010.4744           18 
   39400   0.78054644   -6.6533853    3993.8048           18 
   39500   0.79784589   -6.6364967    3999.9663           10 
   39600   0.80918195    -6.628954    3994.7242            8 
   39700   0.80614637   -6.6334779    4000.7609           19 
   39800   0.78731563   -6.6372508    4001.0107           36 
   39900   0.79016328   -6.6258646    4009.8706           21 
   40000   0.79995614   -6.6510853    4020.8473           16 
   40100   0.78787354   -6.6553847    4006.8282           29 
   40200   0.81292735   -6.6575895     4010.034           20 
   40300   0.80313163   -6.6370827    4006.2422           15 
   40400   0.80625154   -6.6359008      3999.89           14 
   40500   0.80723888   -6.6531931    3999.7009           13 
   40600   0.80378405   -6.6617216    3993.1636           16 
   40700   0.78469142   -6.6488024    3997.6214           19 
   40800   0.80856336   -6.6395663    4005.8854           18 
   40900   0.79876652   -6.6478087    4006.4308           18 
   41000   0.80010637   -6.6814422    3991.5855           21 
   41100   0.80258556   -6.6519845    3988.4456           14 
   41200   0.80903984   -6.6286253    3978.5347           13 
   41300   0.82210478   -6.6415394    3991.0924           13 
   41400   0.80028792   -6.6469082    4003.2772           14 
   41500   0.79546938   -6.6574172    4000.1435           21 
   41600   0.80463141   -6.6369598    4006.5116           31 
   41700   0.81710359   -6.6487765    4009.0103           24 
   41800   0.80826228   -6.6422105    4001.8874           29 
   41900    0.7967416   -6.6442897    4000.9549           35 
   42000   0.79094109   -6.6749298    3991.2187           33 
   42100    0.7950975   -6.6674673    3998.8403           17 
   42200   0.79474045    -6.645085    4006.5516           16 
   42300   0.80743919   -6.6348535    4017.8336           12 
   42400   0.79069612   -6.6298009    4010.3387           13 
   42500   0.79584899   -6.6559748    3997.0525           14 
   42600   0.78902107   -6.6353361    3987.8796           12 
   42700   0.79606337   -6.6206571    4002.3601           17 
   42800   0.79378246   -6.6462468    4008.7375           18 
   42900   0.79492466   -6.6674267    4013.1612           19 
   43000   0.80109488   -6.6472011    4017.7082           19 
   43100   0.80014684   -6.6081951    4001.4587           40 
   43200    0.8061278    -6.643221    4002.0924           30 
   43300   0.80576821   -6.6577264    3997.6259           30 
   43400    0.8224231   -6.6326563       4000.5           32 
   43500   0.80369548   -6.6371091    4003.6705           36 
   43600   0.79499118   -6.6324018    4012.6318           40 
   43700    0.7995918   -6.6400552    4019.5585           57 
   43800   0.78379445   -6.6327395    4004.9612           52 
   43900   0.80029088   -6.6532502    4006.5761           37 
   44000   0.82217204   -6.6601685    3994.7424           21 
   44100   0.79969537   -6.6444224    3998.2074           37 
   44200   0.81089197   -6.6341601    4004.5051           49 
   44300   0.81436124   -6.6412506     4006.285           35 
   44400   0.80253341   -6.6576874      3992.85           27 
   44500   0.80784541   -6.6243305    3987.1315           34 
   44600   0.80754158   -6.6505206    4003.2016           28 
   44700   0.80067403   -6.6583913     3996.212           34 
   44800   0.79122192   -6.6653674    3995.5092           43 
   44900    0.8032269   -6.6723512    4004.2933           46 
   45000   0.79861702   -6.6801175    4005.1972           39 
   45100   0.78942772   -6.6681324    3994.0985           56 
   45200   0.81391823   -6.6574081    3994.2658           40 
   45300   0.79223166   -6.6140723    3988.0216           50 
   45400   0.80386464   -6.6794316    3993.1858           45 
   45500   0.79512107   -6.6312628    4001.6701           26 
   45600   0.81554426   -6.6549423    4002.3633           54 
   45700   0.78363452    -6.647999    4001.9103           60 
   45800   0.80642558   -6.6666699    4007.2265           77 
   45900    0.7823635   -6.6602958    3999.7028           70 
   46000    0.8081148   -6.6531119    4001.7978           59 
   46100   0.79447828   -6.6485407    3993.9299           49 
   46200   0.81461687   -6.6553939    3987.3103           51 
   46300   0.81401525   -6.6627555    3998.4042           59 
   46400   0.80344028   -6.6663497    3999.2062           32 
   46500   0.79697315   -6.6394222    3987.2502           28 
   46600   0.82474811    -6.644367      3985.12           75 
   46700   0.81297138   -6.6650905    3980.6842          101 
   46800   0.82153337   -6.6934476     3986.076           35 
   46900   0.79813559   -6.6870546     3986.823           73 
   47000   0.80755156   -6.6632524    3999.4411           33 
   47100   0.79262223   -6.6387402     4002.972           18 
   47200   0.82078541   -6.6480424    4002.9584           26 
   47300    0.7864616   -6.6404442    4004.5158           18 
   47400   0.81318157   -6.6503138    4012.3908           14 
   47500   0.82018261   -6.6347558    4013.2612           11 
   47600    0.7985788    -6.628848    3991.2699           10 
   47700   0.80648439   -6.6403461    3989.7008           10 
   47800   0.81607423   -6.6293844    4011.8202           14 
   47900   0.79707323   -6.6460798    4014.3827           24 
   48000    0.7959292    -6.661665    4006.8221           18 
   48100   0.78032881   -6.6708208    3996.5574           21 
   48200   0.79930393   -6.6773507    4004.4821           32 
   48300   0.81249597   -6.6643025    3991.9687           42 
   48400   0.80849278   -6.6795811    3988.7604           23 
   48500   0.80352667   -6.6627018    3989.4146           18 
   48600   0.81880975   -6.6400148    3996.5289           17 
   48700   0.79561269   -6.6358307    4003.1385           37 
   48800   0.79690233   -6.6694978    4006.2981           14 
   48900   0.79207025   -6.6867917    4002.2221           37 
   49000   0.80087348   -6.6379392    4002.9213           25 
   49100   0.82007482   -6.6595524    4011.6824           35 
   49200   0.80870332   -6.6602478     3996.664           43 
   49300   0.81017587   -6.6586426     3990.192           49 
   49400   0.79853638   -6.6824263    3989.1174           35 
   49500   0.78664477   -6.6684761    3985.7912           35 
   49600   0.80856712   -6.6678948    4006.8459           20 
   49700   0.78619335   -6.6500965    4008.1384           29 
   49800   0.77347859   -6.6818617    3993.7553           16 
   49900     0.782076   -6.6570506     4003.136           13 
   50000   0.79903784   -6.6533319     4007.753           14 
   50100   0.77998696   -6.6612458     4003.395           25 
   50200    0.8044534   -6.6554988    4002.0685           17 
   50300   0.80791964   -6.6278126    3994.3028           22 
   50400   0.81053837   -6.6344895    3994.1853           45 
   50500   0.81441804   -6.6399119     4004.563           83 
   50600    0.7976124   -6.6539613    4012.8582           29 
   50700   0.79938333   -6.6224519    4010.3055           25 
   50800   0.80141401   -6.6381381    4011.6556           15 
   50900    0.7914611   -6.6586171    4009.2861           11 
   51000    0.7890966   -6.6265453    4000.9326           21 
   51100   0.78998504   -6.6460979    3998.2462           20 
   51200   0.79496748   -6.6628165    4004.1964           28 
   51300   0.80646231   -6.6485701     4008.712           26 
   51400   0.78888082   -6.6709111    3999.8179           25 
   51500   0.79831577   -6.6590593    3995.4885           25 
   51600    0.8197486   -6.6482403    3991.1624           24 
   51700   0.81038648   -6.6834829    3992.6739           22 
   51800   0.77146867   -6.6643667    4000.7511           15 
   51900   0.78664307   -6.6646994     4007.799           16 
   52000   0.82123213   -6.6760211    4006.4421           16 
   52100   0.80049441   -6.6776982    3997.8019           21 
   52200   0.79441237   -6.6672659    3991.0815           21 
   52300   0.79217023    -6.668987    3993.9456           19 
   52400   0.80470608   -6.6617135    4000.2297           16 
   52500   0.78260106    -6.669974    3997.3475           21 
   52600   0.78116174   -6.6767305    3994.6883           23 
   52700   0.81141001    -6.670459    4001.3966           25 
   52800   0.81070909   -6.6737218    3990.8799           16 
   52900   0.81063923   -6.6786675     3985.913           16 
   53000   0.81666171   -6.6720296    3996.1052           24 
   53100   0.80448479     -6.65631    3996.9551           31 
   53200   0.79930525   -6.6781639    3992.6738           30 
   53300   0.78735535   -6.6456683    3997.9095           33 
   53400   0.80899162   -6.6516775    4002.4632           33 
   53500   0.80172594   -6.6749685    3996.8044           22 
   53600   0.79975057   -6.6619581    3990.7398           16 
   53700   0.80325844   -6.6522356    3994.2084           15 
   53800   0.79229809   -6.6577042    4001.9076           12 
   53900   0.80507505   -6.6679345    4006.4936           22 
   54000    0.7900376   -6.6842495    4000.9125           19 
   54100   0.78616712   -6.6678835    3996.0589           23 
   54200    0.8060975    -6.654305    3999.1868           60 
   54300   0.79732144   -6.6584219     4005.201           21 
   54400   0.79067423   -6.6613717    3999.9381           37 
   54500   0.80750337   -6.6332276    4000.4084           17 
   54600   0.80510313   -6.6587945    4000.5055           26 
   54700   0.79555342   -6.6622342    3994.3942           24 
   54800   0.79844611   -6.6438849    3995.7819           17 
   54900   0.81835055   -6.6547755    3994.9873           24 
   55000   0.79960777   -6.6645199    3996.9131           25 
   55100   0.80777799   -6.6582213    4006.5188           30 
   55200   0.80089802   -6.6404484    4013.2342           38 
   55300   0.81262472   -6.6415767    4000.5099           34 
   55400   0.79560865    -6.645654    3983.9315           27 
   55500    0.8105841   -6.6363166    4000.1369           30 
   55600   0.80592613   -6.6620005    4005.5998           23 
   55700   0.78291616   -6.6681607    3998.4755           36 
   55800   0.81190747   -6.6857659    3990.9744           15 
   55900   0.80816644   -6.6775146    3991.3736           24 
   56000   0.81133254   -6.6351428    3999.5725           25 
   56100   0.81866261   -6.6751464    4003.1709           14 
   56200   0.79430609   -6.6626089    4003.6872           22 
   56300   0.80991047   -6.6383134    3999.5855           22 
   56400   0.82044217    -6.611339    4005.7805           13 
   56500   0.80470903   -6.6494217    4011.1381           12 
   56600   0.78564396   -6.6405497    4007.0117           17 
   56700   0.80344837   -6.6478625    4010.2525           28 
   56800     0.810626   -6.6479872    4015.2706           16 
   56900   0.78285733    -6.637186    4000.7108           21 
   57000   0.81452109   -6.6587057    4001.5152           18 
   57100    0.8304708    -6.641702    4004.2061           10 
   57200   0.81338033    -6.652797    3990.8172           18 
   57300   0.79384905   -6.6576058    3992.9302           16 
   57400   0.81066159   -6.6351588    4000.3012           11 
   57500   0.79958006   -6.6457434    4002.2203           24 
   57600   0.80606397   -6.6752906      4004.08           30 
   57700   0.79518774   -6.6581135    4005.9452           27 
   57800   0.79008169   -6.6538323    4007.0912           17 
   57900    0.7989648   -6.6335777    4004.5546           22 
   58000   0.79045456   -6.6549943    3990.8266           25 
   58100   0.79680125   -6.6498997    3989.5259           23 
   58200   0.80399551   -6.6410792     4000.468           24 
   58300   0.80226745    -6.663895    4003.4645           30 
   58400   0.78794409   -6.6743651    4003.9406            8 
   58500   0.80204337   -6.6593672      3999.38           26 
   58600   0.80992696   -6.6304944    3995.9229           33 
   58700    0.7976602   -6.6405745    3996.6883           16 
   58800   0.79194246   -6.6487775    3995.8368           24 
   58900   0.81089212   -6.6634685    4010.3805           40 
   59000   0.79275604   -6.6723238     4001.348           25 
   59100   0.78750514   -6.6440201    4003.0196           34 
   59200   0.79665641   -6.6443495    3992.9429           24 
   59300    0.7934822   -6.6495526    3993.9323           40 
   59400   0.80819821   -6.6533922    4016.2677           24 
   59500   0.79487617   -6.6624515    4018.7896           31 
   59600    0.7968129   -6.6766881    4007.4787           43 
   59700   0.78989651   -6.6669085    3999.7217           28 
   59800   0.81607134   -6.6582239    3995.5172           36 
   59900   0.80231617   -6.6603295    3992.4628           43 
   60000   0.81079678   -6.6733174    3985.7713           30 
   60100     0.812953   -6.6690755    3985.2885           59 
   60200   0.79806733     -6.68858    3985.9972           62 
   60300   0.81068755   -6.6663202    3998.1063           59 
   60400    0.8104538   -6.6594217    4000.9911           37 
   60500   0.79169026    -6.668364    3993.3704           72 
   60600   0.80668804   -6.6610243    4003.8116           68 
   60700   0.79648174   -6.6511062    4006.7486           60 
   60800   0.79040598   -6.6837416     4000.871           33 
   60900   0.79050535   -6.6588558      4002.57           45 
   61000   0.79029978   -6.6647724    4006.3331           36 
   61100   0.78761498   -6.6777303     4001.945           29 
   61200   0.78799235   -6.6605976     3989.037           25 
   61300   0.80328611    -6.655289    4002.8114           27 
   61400   0.78601009   -6.6187423    3997.8128           34 
   61500   0.81226105   -6.6286303    4012.8698           53 
   61600   0.80675199   -6.6606508    4003.5235           23 
   61700   0.77746084   -6.6399325    4005.7877           43 
   61800   0.79298428    -6.649291    4017.4689           25 
   61900   0.80201193   -6.6501775    4012.0182           41 
   62000   0.80137211   -6.6501416    4003.1984           28 
   62100    0.7951152   -6.6502234    3997.4451           17 
   62200   0.78177989   -6.6600533    3995.9558           24 
   62300   0.79217774   -6.6425897    3999.5315           17 
   62400    0.8278193   -6.6767625    4000.0157           20 
   62500   0.78936458    -6.641167    4002.0406           25 
   62600   0.79876376   -6.6176938    4005.1918           15 
   62700   0.79219651   -6.6440124    4010.4591           19 
   62800   0.79826227   -6.6464572    4002.7304           12 
   62900   0.80450891   -6.6506363    4003.5424           26 
   63000   0.81237742   -6.6605087    4016.0363           21 
   63100   0.79662083   -6.6497608    4003.5879           55 
   63200   0.78192669   -6.6451408     4012.765           23 
   63300   0.79892107    -6.662068    4017.0474           21 
   63400   0.81665486   -6.6232391    4006.5515           14 
   63500   0.79069457   -6.6169451    4005.6753           12 
   63600    0.8094283   -6.6426551    4002.4103            9 
   63700   0.80535353   -6.6364157    3998.7346           15 
   63800   0.80235747   -6.6573743    3994.0193           13 
   63900   0.80162668   -6.6148005     4002.017           21 
   64000   0.80036515   -6.6346622    4012.2267           13 
   64100   0.78715259    -6.661687    3998.5747           18 
   64200   0.79517901    -6.661266    4001.0758           15 
   64300   0.80185028   -6.6498049     4014.258           12 
   64400   0.79961771   -6.6689472    4020.7451           11 
   64500   0.78291497   -6.6559241    4010.5012           21 
   64600    0.8062089   -6.6256943    4000.8247           15 
   64700   0.81612044   -6.6266548    3996.8606            7 
   64800    0.8159319   -6.6407831    3999.0286           14 
   64900   0.79433933   -6.6557061    4012.5774           10 
   65000   0.77741306   -6.6581749    4002.8544           29 
   65100   0.80300342   -6.6643657    3998.9692           25 
   65200   0.82253954   -6.6513442    3999.5954           26 
   65300   0.80879348   -6.6288606    4003.1874           39 
   65400   0.79693919   -6.6671109    4010.0242           39 
   65500    0.8016574   -6.6502391    4008.6692           22 
   65600   0.80291104   -6.6422122    4009.7388           24 
   65700    0.8039315   -6.6608121    4001.3748           25 
   65800   0.81270098   -6.6496588    3996.5555           34 
   65900   0.81042659   -6.6345896    4001.8381           32 
   66000   0.78945326   -6.6356484    3989.8045           13 
   66100   0.81066669   -6.6592743    3997.7444           26 
   66200   0.81062262   -6.6506907    4000.2576           19 
   66300    0.8017672   -6.6538461    4002.8427           17 
   66400   0.78888331   -6.6308188    3997.5991           38 
   66500   0.79847501   -6.6661902    4001.7169           38 
   66600   0.80131041   -6.6347389    4001.3459           47 
   66700   0.80941814   -6.6486671    4000.5938           42 
   66800   0.79764747   -6.6432309    4007.8463           48 
   66900   0.78500239   -6.6549011    4010.5159           30 
   67000   0.78776206   -6.6663954    4002.7283           44 
   67100   0.80994407   -6.6555256    3993.8279           49 
   67200   0.81250795   -6.6310748    3985.0853           18 
   67300   0.78972996   -6.6596657    3994.9305           10 
   67400   0.79892048   -6.6512765      4008.23           15 
   67500   0.79433613   -6.6632962    4010.0673           48 
   67600    0.7962838   -6.6650074    4007.7951           18 
   67700   0.79594987    -6.647426    4003.7084           35 
   67800   0.79904308   -6.6445499    3997.6717           17 
   67900   0.81433767   -6.6450648    4005.4415           14 
   68000   0.78668773   -6.6442373    3998.2648           35 
   68100   0.80861849   -6.6589716    3996.2789           61 
   68200   0.81058498   -6.6456357    3996.9069           18 
   68300   0.78516504   -6.6432168    4003.4296           13 
   68400   0.80425856   -6.6566005    4021.5469           20 
   68500   0.79605463   -6.6456856    4018.9523           25 
   68600    0.7907302   -6.6385086    4014.2273           34 
   68700   0.79192419   -6.6390447    4010.0223           30 
   68800   0.79108223   -6.6402871    4005.5999           22 
   68900   0.80980383   -6.6201796    4006.7103           18 
   69000   0.79145376   -6.6165008    4000.2193           48 
   69100   0.79368047   -6.6435432    3999.2864           27 
   69200   0.80181676   -6.6268066    4014.4028           30 
   69300   0.81099512   -6.6494168     4010.953           19 
   69400   0.79716314   -6.6542536    4006.6352           37 
   69500    0.8039629   -6.6601754    4006.6601           21 
   69600   0.80568787   -6.6218481    4004.6302            9 
   69700   0.80365465   -6.6452264    3987.2355           26 
   69800    0.8002877   -6.6462161    3991.3019           16 
   69900   0.80572444   -6.6556488    4001.1618           17 
   70000   0.80192599   -6.6563061    4011.0854           20 
   70100   0.80979591   -6.6457999    4019.0905           30 
   70200   0.80019349   -6.6454171    4012.8893           14 
   70300   0.78958651   -6.6565678    3995.0552           14 
   70400   0.80129544   -6.6516714     3997.244           17 
   70500   0.78861711   -6.6436641    3993.5388            9 
   70600   0.81081379   -6.6660655    3994.3254           17 
   70700   0.80181379   -6.6225935    4003.1367           12 
   70800   0.78872725   -6.6474623    4011.5223           11 
   70900   0.81380557   -6.6658553    4006.7892           13 
   71000   0.78187051   -6.6465869    3992.3183           29 
   71100    0.8033361   -6.6486063    4004.4821           20 
   71200   0.78514652   -6.6436501    4013.3034            7 
   71300   0.80313808     -6.66379    4014.7048           16 
   71400   0.78570812   -6.6455883    4004.5396            8 
   71500   0.80811959    -6.645984    3996.6228           12 
   71600   0.81267127    -6.649867    3997.5734           15 
   71700   0.79417837   -6.6558064    3990.4509           20 
   71800   0.80123446   -6.6680396    3997.9353           23 
   71900   0.80417605   -6.6529404    4010.9614           13 
   72000    0.7997506   -6.6478857    4007.1571           22 
   72100   0.79572895   -6.6721417    3999.6033           18 
   72200   0.79558658   -6.6333783    3998.5095           15 
   72300   0.80914833   -6.6493651     4007.505           16 
   72400   0.78468451   -6.6456175    4001.3859           24 
   72500     0.797575   -6.6505917    4000.1275           26 
   72600   0.80619357   -6.6545124    4000.3837           17 
   72700   0.81327007   -6.6362285    4001.3347           17 
   72800   0.79312757   -6.6415018    4013.4105           28 
   72900   0.77377847   -6.6630139    4007.4847           22 
   73000   0.77826323   -6.6527755    4021.3107           20 
   73100   0.80494996   -6.6548898    4017.6199           16 
   73200   0.78544896   -6.6456603    4007.6463           16 
   73300   0.82365099   -6.6527383    4008.9634           22 
   73400   0.80447788   -6.6212643    4012.5504           16 
   73500   0.81455397   -6.6280083    4011.2274           22 
   73600   0.79300769   -6.6376028     4009.035           13 
   73700   0.80762036   -6.6469825     4011.261           20 
   73800    0.8054796   -6.6119033    4003.4547           15 
   73900   0.81978433   -6.6597377     3991.676           18 
   74000   0.79023491    -6.653225    3996.2002           15 
   74100   0.81441872   -6.6589074    4004.8769           29 
   74200   0.80045845   -6.6503856    4017.5033           10 
   74300   0.78719768    -6.631085     4016.211           17 
   74400   0.80127536   -6.6500016     4007.534           21 
   74500   0.79441122   -6.6493727    3988.1679           13 
   74600   0.79991893   -6.6400501    3996.3263           15 
   74700   0.81216855    -6.632895    4004.5965           11 
   74800   0.81261905   -6.6431354    4000.1643           28 
   74900   0.80918425   -6.6241474    4009.8579           15 
   75000   0.78730081   -6.6258384     3998.984           32 
   75100   0.81576362   -6.6572861    4007.0212           19 
   75200   0.82356407   -6.6327973    4010.4959           13 
   75300   0.80225511   -6.6281706     3997.997           14 
   75400   0.80257023   -6.6557998    3997.6966           20 
   75500   0.80473167    -6.649944    3992.7996           12 
   75600   0.82115769   -6.6660628    4006.1601           17 
   75700   0.79468468   -6.6510923    4000.0376           15 
   75800   0.80240359   -6.6840396    4007.2713           31 
   75900   0.80324121   -6.6340735    3996.3701           35 
   76000   0.80862801   -6.6666081     3990.934           33 
   76100   0.80178133   -6.6389096    3989.4917           17 
   76200   0.80773363   -6.6219046    4006.7183           18 
   76300   0.79777364   -6.6650778    4012.3193           17 
   76400   0.79990517   -6.6487699    4003.5572           19 
   76500   0.78802499   -6.6514542    3994.8605           20 
   76600   0.80518704   -6.6789953    3995.2922           20 
   76700   0.80842679   -6.6712794    4000.3112           21 
   76800   0.79497554   -6.6625809    4001.1999           30 
   76900    0.7854942   -6.6743432    3994.6852           37 
   77000   0.80975308    -6.678071    3990.4419           22 
   77100   0.80359486   -6.6588063    3995.4885           10 
   77200   0.82005156   -6.6371378    3999.5608           20 
   77300   0.80573439   -6.6636758    3998.4489           25 
   77400   0.79393862   -6.6520454    4005.0001           12 
   77500   0.81208166   -6.6573139    4024.8135           11 
   77600   0.78872893   -6.6584431    4009.7427           12 
   77700   0.79504418   -6.6268147    4000.1032           25 
   77800   0.79504233    -6.645724    4005.2198           19 
   77900   0.79147841   -6.6674193    4004.7949           15 
   78000   0.79615603   -6.6531887    4003.5589           21 
   78100   0.82539763   -6.6583558    4001.8412           14 
   78200   0.80413333   -6.6570581    3992.9231           25 
   78300   0.79890388   -6.6639803    3999.5091           13 
   78400   0.81553957   -6.6472222    4003.5944           17 
   78500   0.78478796   -6.6299849    4008.1786           30 
   78600   0.79977097   -6.6499005    4009.0864           27 
   78700   0.79747687   -6.6554186    3994.4562           14 
   78800   0.81851185   -6.6300596    3995.6854           18 
   78900   0.80088903   -6.6274388    3992.4654           27 
   79000   0.80231385   -6.6608141    3994.4255           27 
   79100    0.7910851   -6.6761224    4001.3115           14 
   79200   0.78919732   -6.6395166     4015.804           20 
   79300    0.8055575   -6.6384054    4008.2149           16 
   79400   0.80953733   -6.6667449    3999.8526           19 
   79500   0.79815344   -6.6339116    3996.1245           26 
   79600   0.81201591   -6.6561167    4001.2821           12 
   79700   0.80488398   -6.6726719    3990.7732           18 
   79800   0.79198883   -6.6441074    3991.3732           28 
   79900   0.80748968   -6.6425657    4001.6267           18 
   80000   0.79209376   -6.6473675    3998.1024           17 
   80100   0.79073691   -6.6730478    3995.2207           28 
   80200   0.81310358   -6.6690411    4001.6987           11 
   80300   0.79996612   -6.6444525    3993.2329            7 
   80400   0.78399707   -6.6663445    3991.2885            5 
   80500   0.80024844   -6.6522829    4006.9052           12 
   80600    0.8199452   -6.6758482    4014.2234            9 
   80700   0.79218618   -6.6678455    4009.4134            9 
   80800   0.80145546   -6.6588843    4010.6729           13 
   80900    0.8022159   -6.6292324    4005.3671           21 
   81000   0.80209737   -6.6262103     3998.838           13 
   81100    0.7820851   -6.6435984    4002.4254           22 
   81200   0.79651036   -6.6579313    4006.1712           16 
   81300   0.79744157   -6.6537919    4008.3199           13 
   81400   0.81541216    -6.635354    4008.9136            6 
   81500   0.80287735   -6.6456509     4000.095           10 
   81600   0.79779536   -6.6470125    3986.7559            8 
   81700     0.811321   -6.6465374    3998.7916           10 
   81800   0.79887793   -6.6529949    4008.2124            8 
   81900   0.78263781   -6.6598893    4001.0209            6 
   82000   0.80677188   -6.6491985    4002.2411            8 
   82100    0.8028868   -6.6479581    4000.3806           20 
   82200   0.79637353   -6.6888575     3997.124           10 
   82300   0.79117575   -6.6477778    4002.3675           16 
   82400   0.80685258   -6.6513765    4007.0343           19 
   82500   0.79062431   -6.6572099    4008.4275           10 
   82600   0.81217071    -6.664379    4009.6769           11 
   82700   0.80406345   -6.6635913    4007.1983           10 
   82800     0.766707   -6.6379551     4002.947           18 
   82900   0.79745577   -6.6525324    4011.6959           18 
   83000   0.81486396   -6.6508238    4004.8655           12 
   83100   0.78855885   -6.6469195    4004.1795           12 
   83200   0.79817061   -6.6465738    4010.7452           19 
   83300   0.79105726   -6.6452578      4003.85            9 
   83400   0.80285745   -6.6577076    3999.1275           19 
   83500   0.81490305   -6.6429128    4003.6845           24 
   83600   0.79518431   -6.6255235    4001.0727           46 
   83700    0.8177731   -6.6130932    4009.5299           10 
   83800   0.81263661   -6.6344587    4000.6539           12 
   83900   0.79768057   -6.6293974    4001.2296           35 
   84000   0.81238213   -6.6328195    4018.7598           16 
   84100   0.80725342    -6.666493    4015.9884           21 
   84200   0.80016378   -6.6565097    4008.8171           22 
   84300   0.77767457   -6.6408845     4007.261           13 
   84400   0.79396253   -6.6794734    3998.5531           19 
   84500   0.79808231   -6.6556581    4004.8623           12 
   84600   0.79435242   -6.6554442    4010.4029           14 
   84700   0.81368893   -6.6461169    4010.7318           10 
   84800   0.81865616   -6.6230431    4006.5539           14 
   84900   0.79537244   -6.6191877    3991.2334           10 
   85000   0.81652024   -6.6778245    3999.8186           22 
   85100   0.81174985   -6.6532785    3997.5721           14 
   85200    0.8143617   -6.6413388    4005.0516           13 
   85300   0.78075437   -6.6120124     3998.013           11 
   85400   0.81023656   -6.6402757    4003.6598           12 
   85500   0.81114529   -6.6236844    4011.7634           13 
   85600   0.80642394   -6.6413342    4009.0536           11 
   85700   0.78880107   -6.6488826    4005.8921           18 
   85800   0.79839454   -6.6355229    4004.3217           25 
   85900   0.81254166   -6.6371711    4008.5067           20 
   86000    0.7961055   -6.6384693    4014.8672           21 
   86100   0.81045527   -6.6445782    4005.4234           42 
   86200   0.79848027   -6.6498915    3994.4705           34 
   86300   0.80408207   -6.6616097    4005.9068           24 
   86400    0.8012449   -6.6404338    4005.1427           12 
   86500   0.79450319   -6.6298563      4001.76           19 
   86600   0.82405108   -6.6377165    4005.8172           31 
   86700   0.78470729   -6.6302659     4006.463           19 
   86800   0.81139044   -6.6379568    4008.3463           23 
   86900   0.78647296   -6.6472197    4004.4773           10 
   87000   0.79621154   -6.6485979     4008.329           22 
   87100   0.81205033   -6.6439509    4008.1891           18 
   87200   0.80451985   -6.6581687    3996.9216           11 
   87300   0.81025983   -6.6158738    4002.7524            9 
   87400   0.80884206   -6.6384196    4002.1092           13 
   87500   0.80064926   -6.6560456    4003.3307           14 
   87600    0.8078068   -6.6406175    4009.6168           11 
   87700    0.8001916   -6.6507042    4021.2266           10 
   87800   0.78316284   -6.6608337    4024.9246           11 
   87900   0.78310501   -6.6601301    4014.1047           31 
   88000   0.79655115   -6.6456644    3999.0299           42 
   88100   0.78578405   -6.6542612    4000.5806           28 
   88200   0.79960276   -6.6633332     4001.013           34 
   88300   0.80130875    -6.651935    4011.5193           21 
   88400   0.78267637   -6.6421042    4008.2052           32 
   88500   0.80643806   -6.6774061     4001.368           12 
   88600   0.81810691   -6.6482079    4001.5448           19 
   88700   0.78513811   -6.6273157    3991.7131           34 
   88800   0.82511818   -6.6889343    3997.4819           47 
   88900   0.81417854   -6.6761149    3999.8836           19 
   89000   0.80436321   -6.6570034    3992.0609           16 
   89100   0.79672845   -6.6643212    3982.6962           15 
   89200   0.77996716   -6.6883108    3986.4538           35 
   89300   0.79095217   -6.6732107    4013.7093           14 
   89400    0.7979258   -6.6598851    4008.9188           16 
   89500   0.78781382    -6.667447    3989.7125           26 
   89600   0.79526411   -6.6800203    3992.2856           10 
   89700     0.798547   -6.6513409    4001.0942           22 
   89800   0.78594168    -6.620468    4002.7422           19 
   89900   0.79095501   -6.6440665    3998.7924           31 
   90000     0.794896   -6.6742165    3996.1506           26 
   90100   0.77825095   -6.6729737    4001.6781           23 
   90200   0.80924998   -6.6696618    3997.3225           32 
   90300   0.80415941   -6.6700478    3995.2908           18 
   90400   0.81053101   -6.6363339    3993.1439           31 
   90500   0.79962933   -6.6447565     3995.271           19 
   90600   0.81200442    -6.623065    4002.6304           19 
   90700   0.79635021   -6.6619842    3992.4544           25 
   90800   0.81559305   -6.6753788    4001.6226           20 
   90900   0.78889081   -6.6519568    4008.7949           22 
   91000   0.80519105   -6.6387048    4020.4009           41 
   91100   0.78333744    -6.643119    4015.4056           35 
   91200     0.794002   -6.6824598     4003.311           34 
   91300   0.80161512   -6.6436953    3997.7385           23 
   91400   0.81206802   -6.6481422    3992.6979           16 
   91500    0.7983203   -6.6320047     3990.945           21 
   91600   0.80386324   -6.6487702    4002.7752            8 
   91700   0.79847291   -6.6474688    3998.9127           16 
   91800   0.79126939   -6.6706982    3998.6358           24 
   91900   0.80302662   -6.6521114    4003.9612           15 
   92000   0.79674415   -6.6494703    3999.5065           12 
   92100   0.79080207   -6.6616006    3992.3998           24 
   92200   0.79831456   -6.6295652    4008.2404           16 
   92300   0.79308543   -6.6598219     4008.297           14 
   92400   0.77736119   -6.6499171    4016.1854           16 
   92500   0.80552342    -6.655029    4011.3471           13 
   92600   0.78720078   -6.6449171    3999.0745           15 
   92700   0.79466544   -6.6494322    3994.9087           24 
   92800   0.80375834   -6.6640826    3997.3544           24 
   92900   0.80448292   -6.6351999     4004.311           20 
   93000   0.78635845     -6.65728    3994.5838           17 
   93100   0.80404847    -6.664681    3997.4181           14 
   93200   0.80500412   -6.6389271    4000.1509           17 
   93300   0.80023276   -6.6705197    3998.4596           17 
   93400   0.80183875   -6.6466223    3996.0947           17 
   93500   0.81229236   -6.6562678    4009.0067           20 
   93600   0.81146965   -6.6802266    4012.1597           29 
   93700   0.79492336   -6.6865388    4000.0099           23 
   93800   0.79061174   -6.6257563    3992.5679           23 
   93900   0.78621355   -6.6342777    3999.5056           18 
   94000   0.82378681   -6.6436137    4012.9664           13 
   94100   0.80874924   -6.6279488    4017.5851           15 
   94200   0.78747831   -6.6334798    4008.7123           17 
   94300   0.80806622   -6.6751974      4006.68           16 
   94400   0.78068603   -6.6588455    4003.7696           33 
   94500    0.7993376   -6.6514209    4014.9623           20 
   94600   0.79646952   -6.6282739    4003.0599           33 
   94700   0.79338647   -6.6269267    3991.3376           36 
   94800   0.80877189   -6.6217506    3990.6063           20 
   94900   0.80862901   -6.6136953    4001.2949           23 
   95000   0.80484464   -6.6659075    4005.4044           27 
   95100   0.79057664   -6.6685524    4008.6726           18 
   95200   0.79609253   -6.6386143    4014.5202           20 
   95300   0.78823814   -6.6407187    4012.6158           16 
   95400   0.79242472   -6.6390254     4003.387           20 
   95500    0.7892595    -6.639694    3995.3478           24 
   95600   0.80892647   -6.6328239    4001.3925           22 
   95700   0.79347623   -6.6468262    4004.0382           21 
   95800   0.80357613   -6.6393447    4002.9517           31 
   95900   0.82137224   -6.6226441    4009.2406           29 
   96000   0.81118779   -6.6482613    4017.1973           32 
   96100    0.7967563   -6.6432937    3997.6624           20 
   96200   0.78892729   -6.6432839    3988.8996           26 
   96300   0.80775385   -6.6456402    4008.1198           23 
   96400   0.79588587    -6.646278     4019.272           22 
   96500   0.78235386    -6.650191    4009.3464           34 
   96600   0.80227842   -6.6648886    3997.5412           13 
   96700   0.80312638   -6.6161227    3996.9781           24 
   96800   0.79945462   -6.6385057     3994.401           19 
   96900   0.78838713   -6.6524063    4006.6096           27 
   97000    0.7964397   -6.6586074    4002.5804           37 
   97100    0.8088078   -6.6414697    4002.0838           16 
   97200   0.80480943   -6.6425043    4006.6276           30 
   97300   0.80103888   -6.6384751    4002.0677           31 
   97400   0.79068516   -6.6395609    4003.1139           15 
   97500   0.79848927   -6.6377814    3997.9744           24 
   97600   0.80220793   -6.6261913    4006.7993           23 
   97700    0.8238638   -6.6447152    4019.0185           12 
   97800   0.79333367   -6.6384188    4005.2754           20 
   97900   0.78955426   -6.6501516    3995.7497           23 
   98000   0.81207915   -6.6517943    3994.6187           19 
   98100   0.81159595   -6.6244454    3999.1066           13 
   98200   0.79040225   -6.6420514    3991.3809           21 
   98300   0.80448038   -6.6515757    4003.8955           16 
   98400   0.81234887   -6.6375322    4007.3801           21 
   98500   0.80177894   -6.6609816    4006.9231           21 
   98600   0.78871927   -6.6567854    3999.8252           15 
   98700   0.80069563   -6.6349022    3995.1495           10 
   98800   0.82118288   -6.6578641     3992.968           22 
   98900   0.80780023   -6.6791293    3985.3954           30 
   99000   0.79418876   -6.6869519    3997.2457           47 
   99100   0.80671981   -6.6662743      4007.43           38 
   99200   0.77873192   -6.6580214    4004.2995           17 
   99300   0.78230749   -6.6426368    4001.8158           35 
   99400   0.80411781   -6.6255587    3990.1939           41 
   99500   0.79781412   -6.6217282    3988.6734           50 
   99600   0.80747935   -6.6519324    3997.5734           25 
   99700   0.80430035   -6.6684875    3999.8462           29 
   99800   0.77915506   -6.6327456     4005.237           39 
   99900   0.79208357   -6.6562904    4014.7158           27 
  100000    0.7989194   -6.6811993     4013.476           47 
  100100   0.78218874    -6.667927    4000.4018           56 
  100200   0.79821761   -6.6413343    3993.2536           59 
  100300   0.80146379   -6.6525111    4003.2033           76 
  100400   0.81942916   -6.6479917    4010.2338           52 
  100500   0.81463544   -6.6613301    3995.4934           45 
  100600   0.78481819    -6.646932    3994.6157           37 
  100700   0.79306129   -6.6328249    4004.5914           36 
  100800   0.81411037   -6.6660053      4010.87           44 
  100900   0.80427931   -6.6419024    4003.5653           29 
  101000   0.79097435   -6.6547148    3992.4618           25 
  101100   0.80466442   -6.6641767    3992.3669           43 
  101200   0.78829267   -6.6332534    3992.7823           38 
  101300   0.80822038   -6.6424398      3997.87           24 
  101400   0.78305904   -6.6443645    4001.0164           37 
  101500    0.8086665   -6.6543556    3998.2021           41 
  101600     0.800412   -6.6342497    4007.0264           44 
  101700   0.81461711    -6.649674    4000.4538           49 
  101800   0.79655503   -6.6637813    4002.2008           52 
  101900    0.8092531   -6.6456199    4003.5518           62 
  102000   0.80495226   -6.5977123    4006.8988           36 
  102100   0.80926352   -6.6489826    4014.3389           39 
  102200     0.795251    -6.671605    4005.5094           22 
  102300    0.7984405   -6.6427889    4001.8021           29 
  102400   0.79919884   -6.6338845    4001.2851           18 
  102500   0.78568442   -6.6363397    3995.0437           40 
  102600   0.78649024   -6.6419861    4010.7901           44 
  102700   0.79273478    -6.656494    4005.9936           37 
  102800   0.78884154   -6.6529519    4009.4773           52 
  102900   0.79645299   -6.6570638     4012.156           67 
  103000   0.78743423   -6.6712263    3993.9266           45 
  103100   0.80458679   -6.6534441    3993.3866           56 
  103200   0.80320522   -6.6572374    3997.5088           67 
  103300   0.80485981   -6.6401938    3999.2857           76 
  103400     0.779121   -6.6345433    3999.1839           60 
  103500   0.78466606   -6.6474897    3999.7861           57 
  103600   0.81074468   -6.6570824    4010.7286           31 
  103700   0.78446028    -6.666236     4006.074           51 
  103800   0.78574662   -6.6646794    4004.1517           46 
  103900   0.79909243   -6.6515137     4009.452           54 
  104000   0.79577672   -6.6492838    4009.1143           71 
Loop time of 178.029 on 24 procs for 100000 steps with 4000 atoms

Performance: 97062.710 tau/day, 561.705 timesteps/s
99.7% CPU use with 24 MPI tasks x no OpenMP threads

MPI task timing breakdown:
Section |  min time  |  avg time  |  max time  |%varavg| %total
---------------------------------------------------------------
Pair    | 21.113     | 21.584     | 22.663     |   6.9 | 12.12
Neigh   | 2.2961     | 2.326      | 2.3548     |   0.8 |  1.31
Comm    | 8.2073     | 9.6733     | 11.255     |  24.6 |  5.43
Output  | 4.4714     | 4.4727     | 4.4855     |   0.1 |  2.51
Modify  | 134.48     | 137.4      | 139.5      |  13.6 | 77.18
Other   |            | 2.57       |            |       |  1.44

Nlocal:        166.667 ave         177 max         158 min
Histogram: 2 0 1 8 4 2 4 2 0 1
Nghost:        2138.17 ave        2156 max        2123 min
Histogram: 1 2 5 3 5 2 0 2 3 1
Neighs:        19059.8 ave       20995 max       17885 min
Histogram: 2 4 2 5 5 3 2 0 0 1
FullNghs:      38116.9 ave       40899 max       35638 min
Histogram: 2 0 1 7 5 2 5 1 0 1

Total # of neighbors = 914805
Ave neighs/atom = 228.70125
Neighbor list builds = 5347
Dangerous builds = 0

#clear
#
#next RN
#
#jump SELF
Total wall time: 0:02:59
