
units lj                  # Use reduced LJ style units
atom_style atomic         # Uncharged point particles
atom_modify map hash      # Needed for indexing of clusters etc
                          # Used to be able to find where atoms are in relation to each other.

lattice fcc 1.0 spacing 1 1 1
Lattice spacing in x,y,z = 1.5874011 1.5874011 1.5874011
region box block 0 10 0 10 0 10 units lattice
create_box 2 box
Created orthogonal box = (0.0000000 0.0000000 0.0000000) to (15.874011 15.874011 15.874011)
  3 by 4 by 4 MPI processor grid
create_atoms 1 box
Created 4000 atoms
  using lattice units in orthogonal box = (0.0000000 0.0000000 0.0000000) to (15.874011 15.874011 15.874011)
  create_atoms CPU = 0.002 seconds
set type 1 type/fraction 2 0.68 78393
Setting atom values ...
  2740 settings made for type/fraction
mass 1 1.0
mass 2 1.0
pair_style lj/cut  3.5
pair_modify tail  yes
pair_coeff 1  1  1.0  1.0   # Intearaction between 1 and 1 set with epsilon = 1 and sigma = 1
pair_coeff 1  2  1.5  0.8
pair_coeff 2  2  0.5  0.88

write_data data.0
System init for write_data ...
Neighbor list info ...
  update every 1 steps, delay 10 steps, check yes
  max neighbors/atom: 2000, page size: 100000
  master list distance cutoff = 3.8
  ghost atom cutoff = 3.8
  binsize = 1.9, bins = 9 9 9
  1 neighbor lists, perpetual/occasional/extra = 1 0 0
  (1) pair lj/cut, perpetual
      attributes: half, newton on
      pair build: half/bin/atomonly/newton
      stencil: half/bin/3d
      bin: standard
WARNING: Not all mixed pair coeffs generated from mixing. Use write_data with 'pair ij' option to store all pair coeffs. (../write_data.cpp:312)


#############################
#   M E L T   S Y S T E M   #
#############################

velocity all create 2.4 6229865 mom yes dist gaussian # Assign velocities
                                                    # Temperature 2.4, random number seed, zero linear momentum
                                                                                # Gaussian distribution

timestep 0.002   # simulation timestep
thermo 1000       # output thermodynamic data every 1000 steps bf 100

# Define a fix  in this case with index 1 applied to all
# particles in the simulation. This fix is for simulations
# in the anisotropic NPT ensemble. Note that we use the MTK
# correction.
fix 1 all npt temp 2.4 2.4 0.1 iso 5.68 5.68 0.5 mtk yes tchain 5 pchain 5 # Use NPT ensemble
                                                                         # Set temperature and pressure and damping
                                                                         # Numbers of thermostats in chain and in barostat
run 10000          # run for 10000 steps
Per MPI rank memory allocation (min/avg/max) = 3.642 | 3.644 | 3.648 Mbytes
Step Temp E_pair E_mol TotEng Press Volume 
       0          2.4   -4.2819815            0  -0.68288149   -3.8317514         4000 
    1000    2.4721561     -3.97482            0  -0.26751287    5.3775169    3660.7178 
    2000    2.3955897   -3.9397047            0  -0.34721852    5.7954346    3623.9753 
    3000    2.3779365   -3.9423922            0   -0.3763792    5.4745532    3654.4889 
    4000    2.4360667   -3.9434234            0   -0.2902369    5.7698762     3639.397 
    5000    2.4470882   -3.9475007            0  -0.27778608    5.3314214    3671.0228 
    6000    2.4185245   -3.9447125            0  -0.31783266     5.584126    3639.7127 
    7000    2.3808067   -3.9167014            0  -0.34638418     5.607389    3651.5792 
    8000    2.4014583   -3.9743288            0  -0.37304188    5.6198834    3630.1164 
    9000    2.4453004   -3.9025672            0  -0.23553358     5.808248    3647.9346 
   10000    2.3679109   -3.9154452            0  -0.36446671    5.4726221    3670.3946 
Loop time of 2.61936 on 48 procs for 10000 steps with 4000 atoms

Performance: 659704.019 tau/day, 3817.732 timesteps/s
99.6% CPU use with 48 MPI tasks x no OpenMP threads

MPI task timing breakdown:
Section |  min time  |  avg time  |  max time  |%varavg| %total
---------------------------------------------------------------
Pair    | 1.1958     | 1.2652     | 1.3263     |   2.5 | 48.30
Neigh   | 0.2177     | 0.22324    | 0.22883    |   0.5 |  8.52
Comm    | 0.82275    | 0.87582    | 0.95158    |   3.2 | 33.44
Output  | 0.00024916 | 0.00025261 | 0.00032367 |   0.0 |  0.01
Modify  | 0.21125    | 0.23921    | 0.25986    |   3.0 |  9.13
Other   |            | 0.01559    |            |       |  0.60

Nlocal:        83.3333 ave          92 max          70 min
Histogram: 1 0 3 4 6 7 7 13 4 3
Nghost:        1742.02 ave        1761 max        1714 min
Histogram: 4 0 0 5 4 8 11 7 5 4
Neighs:        10406.5 ave       12106 max        8274 min
Histogram: 1 1 2 8 7 8 9 9 2 1

Total # of neighbors = 499512
Ave neighs/atom = 124.87800
Neighbor list builds = 904
Dangerous builds = 192

# Equilibrate just above the melting temperature to avoid step fn in T

fix 1 all npt temp 1.25 1.25 0.1 iso 5.68 5.68 0.5 mtk yes tchain 5 pchain 5
run 2000
Per MPI rank memory allocation (min/avg/max) = 3.644 | 3.646 | 3.650 Mbytes
Step Temp E_pair E_mol TotEng Press Volume 
   10000    2.3679109   -3.9154452            0  -0.36446671    5.4726221    3670.3946 
   11000     1.247728   -5.8151427            0   -3.9440186    5.4983061    2784.0405 
   12000    1.2915728   -5.8823933            0   -3.9455185    5.6845007    2758.6428 
Loop time of 0.672363 on 48 procs for 2000 steps with 4000 atoms

Performance: 514008.193 tau/day, 2974.584 timesteps/s
99.7% CPU use with 48 MPI tasks x no OpenMP threads

MPI task timing breakdown:
Section |  min time  |  avg time  |  max time  |%varavg| %total
---------------------------------------------------------------
Pair    | 0.3028     | 0.32707    | 0.38217    |   2.3 | 48.64
Neigh   | 0.042561   | 0.044283   | 0.051448   |   0.7 |  6.59
Comm    | 0.19569    | 0.25021    | 0.27172    |   2.7 | 37.21
Output  | 5.3683e-05 | 5.5064e-05 | 7.1598e-05 |   0.0 |  0.01
Modify  | 0.038109   | 0.045795   | 0.051365   |   2.0 |  6.81
Other   |            | 0.004944   |            |       |  0.74

Nlocal:        83.3333 ave          94 max          76 min
Histogram: 1 5 9 10 5 12 3 2 0 1
Nghost:        2122.71 ave        2145 max        2105 min
Histogram: 4 3 9 4 9 6 4 4 2 3
Neighs:        13845.8 ave       15446 max       12231 min
Histogram: 1 3 4 9 6 8 8 6 1 2

Total # of neighbors = 664598
Ave neighs/atom = 166.14950
Neighbor list builds = 143
Dangerous builds = 10

#############################
# L I N E A R  Q U E N C H  #
#############################

# Define solid atoms. This closely follows ten Wolde  Ruiz-Montero and Frenkel  Faraday Discuss  1996  104  93-110
# Compute components of the per-atom q6 vector
compute q6 all orientorder/atom degrees 1 6 components 6 nnn NULL cutoff 1.3 # compute the Q6 parameter.
                                                                             # Use all neighbours within 1.3 unit cell.

# get number of connections
compute coord_number all coord/atom orientorder q6 0.5

# An atom is solid if it has 8 or more connections (of a possible 14)
variable is_solid atom c_coord_number>=8
group solid dynamic all var is_solid    # Must be dynamic to update
dynamic group solid defined

# do clustering
compute cluster solid cluster/atom 1.3 # Create a cluster where all atoms within are solid and max 1.3 units from another member

# define chunks one chunk per cluster
compute clus_chunks solid chunk/atom c_cluster nchunk every compress yes  # Says which atoms are in which chunk

# count the size of each chunk
compute size_chunks solid property/chunk clus_chunks count


# Find the maximum entry in the vector of chunk sizes
variable max_n equal max(c_size_chunks)


# Thermo style which includes this variable
# thermo_style custom step temp pe vol v_max_n

thermo ${N}  # Print the thermo information every 100 steps
thermo 1000  

# Reset the npt fix at a lower temperature (below freezing)
fix 1  all npt temp  ${temp} ${temp}  0.1  iso  5.68  5.68  0.5  mtk yes tchain  5  pchain  5
fix 1  all npt temp  0.45 ${temp}  0.1  iso  5.68  5.68  0.5  mtk yes tchain  5  pchain  5
fix 1  all npt temp  0.45 0.45  0.1  iso  5.68  5.68  0.5  mtk yes tchain  5  pchain  5

dump dmp2 all dcd ${N} traj.dcd
dump dmp2 all dcd 1000 traj.dcd


compute msd all msd com yes
variable twopoint equal c_msd[4]/6/(step*dt+1.0e-6)
fix 9 all vector 10 c_msd[4]
variable fit equal slope(f_9)/6/(10*dt)
thermo_style custom step temp pe c_msd[4] v_twopoint v_fit v_max_n

fix 1 all npt temp 1.25 ${temp} 0.1 iso 5.68 5.68 0.5 mtk yes tchain 5 pchain 5
fix 1 all npt temp 1.25 0.45 0.1 iso 5.68 5.68 0.5 mtk yes tchain 5 pchain 5
run 2000000 # 5000000  # Run for this many steps
Neighbor list info ...
  update every 1 steps, delay 10 steps, check yes
  max neighbors/atom: 2000, page size: 100000
  master list distance cutoff = 3.8
  ghost atom cutoff = 3.8
  binsize = 1.9, bins = 8 8 8
  4 neighbor lists, perpetual/occasional/extra = 1 3 0
  (1) pair lj/cut, perpetual
      attributes: half, newton on
      pair build: half/bin/atomonly/newton
      stencil: half/bin/3d
      bin: standard
  (2) compute orientorder/atom, occasional
      attributes: full, newton on
      pair build: full/bin/atomonly
      stencil: full/bin/3d
      bin: standard
  (3) compute coord/atom, occasional
      attributes: full, newton on
      pair build: full/bin/atomonly
      stencil: full/bin/3d
      bin: standard
  (4) compute cluster/atom, occasional
      attributes: full, newton on
      pair build: full/bin/atomonly
      stencil: full/bin/3d
      bin: standard
Per MPI rank memory allocation (min/avg/max) = 9.847 | 9.852 | 9.856 Mbytes
Step Temp PotEng c_msd[4] v_twopoint v_fit v_max_n 
   12000    1.2915728   -5.8823933 3.7305232e-30 2.590641e-32 8.3333333e+20            2 
   13000    1.2641503   -5.8531333   0.58570675 0.0037545303  0.048142805            2 
   14000    1.2391826   -5.8624431    1.1395968  0.006783314   0.04746894            2 
   15000    1.2622028   -5.8588149    1.7132068  0.009517815  0.046803519            1 
   16000    1.2342493   -5.8682932    2.2389922  0.011661417  0.046793794            2 
   17000    1.2560876   -5.8836153     2.750446  0.013482578  0.046141935            2 
   18000    1.2512137   -5.8913013    3.2507174  0.015049617  0.045193336            2 
   19000    1.2579592   -5.8623329    3.8198851  0.016753882  0.044846126            2 
   20000    1.2465124   -5.8703711    4.4217615  0.018424006  0.045095885            2 
   21000    1.2375184   -5.8700581    4.9314706  0.019569327  0.045108338            2 
   22000    1.2624376   -5.8946858     5.480454  0.020759295  0.045327385            2 
   23000    1.2474761   -5.8628565    6.0633638  0.021968709  0.045453082            1 
   24000    1.2456795   -5.8891732    6.6455862  0.023074952  0.045666651            2 
   25000    1.2349986   -5.8460075    7.1893927  0.023964642  0.045783339            2 
   26000    1.2333592   -5.8880331    7.6553694   0.02453644  0.045787208            1 
   27000    1.2409807   -5.9036678    8.1485763  0.025149926  0.045521761            6 
   28000    1.2445524    -5.865743    8.7316181  0.025986958  0.045450134            2 
   29000     1.270204    -5.850971    9.3059655   0.02674128  0.045460136            1 
   30000    1.2539015   -5.8673699    9.7312838  0.027031343  0.045340347            2 
   31000    1.2673057   -5.8148524    10.407544   0.02797727  0.045282014            3 
   32000    1.2354897   -5.9121717    10.932125  0.028469076  0.045303662            2 
   33000    1.2561693    -5.872384    11.555341  0.029180153  0.045374748            2 
   34000    1.2933151    -5.869214    12.036009  0.029500021  0.045414405            1 
   35000    1.2417694   -5.9042856    12.721321  0.030288858  0.045501445            3 
   36000    1.2703722   -5.8865051    13.285758   0.03075407   0.04561338            2 
   37000    1.2573679   -5.9131336    13.811883  0.031107844  0.045710123            4 
   38000    1.2304881   -5.8796496    14.410151  0.031601208  0.045772239            3 
   39000    1.2305641   -5.9326694    14.948472  0.031941179  0.045853115            3 
   40000    1.2675172   -5.8659919     15.52098  0.032335374  0.045914795            2 
   41000    1.2714697   -5.8814523    15.958095  0.032435153  0.045979914            2 
   42000    1.2286556    -5.840188    16.652863  0.033041394  0.045993285            2 
   43000    1.2135464   -5.8788165    17.037296  0.033018016  0.045983362            1 
   44000     1.238796   -5.8870652    17.651611   0.03343108  0.045966828            3 
   45000     1.266444   -5.8885076    18.390585  0.034056638  0.046019532            1 
   46000    1.1964271   -5.9162875    18.995565  0.034412255  0.046122755            2 
   47000    1.2449609    -5.901629    19.533359  0.034633615  0.046185251            2 
   48000    1.2665889   -5.9075782    19.896524  0.034542576  0.046215947            1 
   49000    1.2377347   -5.8766331    20.570661  0.034984118  0.046236235            2 
   50000    1.2157995   -5.8963746    21.044655  0.035074425  0.046269636            2 
   51000     1.239815   -5.9216742    21.570756  0.035246333  0.046278956            1 
   52000    1.2286723   -5.9284684    22.133644  0.035470583  0.046250727            2 
   53000    1.2222617   -5.8952865    22.625732  0.035575051  0.046240716            4 
   54000    1.2175909   -5.9260084    23.261849  0.035897914  0.046239059            1 
   55000    1.2411363   -5.8561136    24.006785  0.036373916  0.046247761            1 
   56000    1.2446589   -5.9217014     24.43543  0.036362246  0.046268649            3 
   57000     1.221207   -5.9247432    25.099557  0.036695259  0.046294172            1 
   58000    1.2252981    -5.897673     25.78186  0.037042903  0.046353684            2 
   59000    1.2240721   -5.8578188      26.5269  0.037467372  0.046415043            4 
   60000    1.2288795   -5.9174336     27.01258  0.037517472   0.04648397            3 
   61000    1.2314768    -5.935941    27.680369  0.037814711  0.046571454            4 
   62000    1.2263386   -5.9502501    28.362463   0.03812159  0.046684072            1 
   63000    1.2288728   -5.8658715    29.300761   0.03875762  0.046827416            2 
   64000    1.2257808   -5.9030139    29.788898  0.038787627  0.046971297            2 
   65000    1.2386056   -5.9357174    30.173018  0.038683356  0.047064573            3 
   66000    1.2620688   -5.9115594    30.803005  0.038892683  0.047140416            2 
   67000    1.2466605   -5.8833791    31.267433  0.038889842  0.047200283            5 
   68000    1.2420699   -5.9076946    31.562747  0.038679837  0.047223956            2 
   69000    1.2111627   -5.8968201    32.160757  0.038841494  0.047238252            7 
   70000    1.2059584   -5.9360043    32.372856  0.038539113  0.047235547            2 
   71000     1.212035   -5.9222904    33.301539  0.039086313  0.047244893            5 
   72000     1.227522   -5.9308223    33.970404  0.039317597  0.047276071            5 
   73000    1.1977494   -5.9461494    34.572665  0.039466512  0.047306687            4 
   74000    1.2322676   -5.9128746    35.284047  0.039734287  0.047337563            2 
   75000    1.2521889   -5.8972724    35.592893  0.039547658  0.047369237            5 
   76000    1.2046746   -5.9510349    36.080365  0.039561803  0.047376896            2 
   77000     1.218692   -5.9228304    36.443468  0.039440982  0.047358763            3 
   78000     1.223828   -5.9302834    36.962088   0.03948941  0.047324152            3 
   79000    1.2004218    -5.893818    37.407848  0.039459756  0.047288502            2 
   80000    1.2078175   -5.9505063    37.873696  0.039451766  0.047258381            7 
   81000     1.208928   -5.9075063    38.395315  0.039501353  0.047206396            2 
   82000    1.2321381      -5.8855    38.952271  0.039585641  0.047151574            2 
   83000    1.2263884   -5.9240425     39.53234  0.039691104  0.047111691            2 
   84000    1.2152224   -5.9659518    39.974675  0.039657415  0.047077115            4 
   85000    1.2141297   -5.9386982    40.451059  0.039657901  0.047042088            3 
   86000    1.1950889   -5.9567678    40.905782  0.039637385  0.046996362            4 
   87000    1.2107567   -5.9046084    41.575898  0.039823657  0.046943338            3 
   88000    1.2037508   -5.9162376    42.199971  0.039962094  0.046897604            2 
   89000     1.207331   -5.9172924    42.724551  0.040004261  0.046865158            4 
   90000    1.2085982   -5.9608168    43.233465  0.040030985  0.046818647            5 
   91000    1.2346887   -5.8863037    44.164244  0.040443447  0.046794134            1 
   92000    1.2392913   -5.9038428    44.844683  0.040620183  0.046785994            2 
   93000    1.2105998   -5.9495555    45.342993  0.040629922  0.046782005            4 
   94000    1.1899991   -5.9660371     45.70948  0.040522589  0.046768622            4 
   95000    1.2162482   -5.9237163    46.344552  0.040653116  0.046755058            1 
   96000    1.2037205   -5.9572642    46.703432  0.040541173   0.04673545            2 
   97000    1.2287064   -5.9229175    47.255538  0.040597541  0.046715467            1 
   98000    1.2356698   -5.9402664    47.525548  0.040412881  0.046685282            3 
   99000    1.2295935   -5.9597273    48.094152  0.040483292  0.046649208            3 
  100000    1.2035252   -5.9206743    48.778254  0.040648545  0.046628094            3 
  101000    1.2193968   -5.9451257    49.134643  0.040540134  0.046594796            2 
  102000    1.2107963   -5.9189373    49.655656  0.040568346  0.046549964            1 
  103000    1.2101711   -5.9203914    50.209303  0.040622413   0.04650024            1 
  104000    1.2108764    -5.918044    50.420457  0.040401007  0.046460661            3 
  105000    1.2032501    -5.939728    51.193768  0.040629974  0.046418447            3 
  106000    1.2171589   -5.9704076    51.548016  0.040525169  0.046384613            2 
  107000    1.2261044   -5.9501241    52.545929  0.040923621  0.046350784            2 
  108000    1.1907234   -5.9667051    53.041396  0.040927003  0.046316405            3 
  109000    1.2037952   -5.9672276    53.360503  0.040795491  0.046289161            4 
  110000    1.2082885   -5.9503195    53.947216  0.040869103  0.046268195            4 
  111000    1.2157729   -5.9272246    54.307735  0.040771573  0.046235309            2 
  112000    1.2269946   -5.9349255    54.745101  0.040732962  0.046198386            3 
  113000    1.1783544    -5.932777     55.28336   0.04076944  0.046164752            2 
  114000    1.2175673   -5.9628198    55.999209  0.040935094  0.046134734            2 
  115000    1.2169935   -5.9562093    56.583443  0.041002495  0.046109962            2 
  116000    1.1956523    -5.942797    57.031954  0.040971231  0.046085737            2 
  117000    1.2261988   -5.9192846    57.383801  0.040871653  0.046049626            2 
  118000    1.2004673   -5.9719265    57.794676  0.040815449  0.046008815            3 
  119000    1.2009762   -5.9312273    58.316122   0.04083762  0.045970059            2 
  120000    1.1864122   -5.9545414    58.997099  0.040970207  0.045923668            2 
  121000     1.202318    -5.947243    59.537928  0.041004082  0.045884762            2 
  122000    1.2100442   -5.9719427    60.063399  0.041026911   0.04585429            3 
  123000    1.1938697   -5.9495821    60.788698  0.041184755  0.045826754            2 
  124000    1.2010139   -5.9268775    61.291721  0.041190672   0.04580045            3 
  125000      1.19434   -5.9651924    61.865317  0.041243545  0.045775648            3 
  126000    1.2092443   -5.9961753    62.072152   0.04105301  0.045750811            7 
  127000    1.1914643   -5.9615583    62.636276  0.041099918  0.045720164            3 
  128000    1.2026161   -5.9753374    63.453113  0.041310621  0.045694797            4 
  129000    1.1934455   -5.9960353    63.721238   0.04116359  0.045673369            1 
  130000    1.1880026   -5.9881084    64.320315  0.041230971  0.045649298            1 
  131000    1.1927836   -6.0333066    64.084968  0.040766519  0.045616727            2 
  132000    1.1979357   -5.9820666    65.162362  0.041137855  0.045576781            1 
  133000     1.203732    -5.943915       65.462   0.04101629  0.045537034            2 
  134000    1.1745398   -5.9691516    65.926793  0.040999249  0.045496416            4 
  135000    1.1972936    -5.967368    65.912606  0.040686794  0.045449099            2 
  136000    1.1941538   -5.9380182    66.756704  0.040904843  0.045403171            2 
  137000    1.2049725   -5.9671854    67.136775  0.040837454  0.045354527            5 
  138000    1.2181304   -5.9674801     67.54786  0.040789771   0.04530636            3 
  139000    1.1954471   -5.9735999    68.025555  0.040782707  0.045263069            2 
  140000    1.1809199   -5.9465191    68.897053  0.041010151  0.045221767            5 
  141000    1.2227567   -5.9926409    68.954922    0.0407535  0.045180649            3 
  142000    1.2199034   -6.0039979    69.597138  0.040843391  0.045137684            3 
  143000    1.2008758   -5.9774494    70.396105  0.041023371  0.045095885            3 
  144000    1.2104738   -5.9797469    70.944941    0.0410561  0.045061329            4 
  145000    1.1892759   -5.9861995    71.310793  0.040983214  0.045028637            2 
  146000    1.2038681   -5.9674204     71.78425  0.040972745  0.044992962            1 
  147000    1.1939922   -5.9611737    71.917279  0.040769432  0.044958083            4 
  148000    1.2200885   -6.0188397    72.264407  0.040689418  0.044917102            3 
  149000    1.1957604   -5.9910322    72.736871  0.040680577  0.044868794            3 
  150000    1.2108527    -5.946641    73.534912  0.040852729  0.044823748            8 
  151000    1.1634738   -5.9605243    74.106967  0.040897885  0.044782923            2 
  152000    1.2058791    -5.976284    74.728888  0.040969785   0.04474794            3 
  153000    1.2017926   -5.9713295    75.278461   0.04100134  0.044710988            2 
  154000    1.1748289   -5.9741531    75.514143  0.040862632   0.04467652            3 
  155000    1.1685019   -5.9473763     76.37958   0.04106429   0.04464368            2 
  156000    1.1790666   -6.0577053    76.259205  0.040736755  0.044613512            5 
  157000    1.2004047   -5.9864865    77.109093  0.040928393  0.044578016            3 
  158000    1.2114704   -5.9726977    77.760213  0.041012771  0.044546539            6 
  159000    1.2187994    -5.993076    78.137153  0.040952386  0.044514331            2 
  160000     1.177224   -5.9424236    78.942403  0.041115835   0.04447965            3 
  161000    1.1798095   -6.0321358    78.659012  0.040713774  0.044440233            2 
  162000     1.203842   -6.0310729    79.374899  0.040830709  0.044403125            3 
  163000    1.1782478   -6.0289277    79.696517   0.04074464  0.044366037            5 
  164000    1.1823698   -5.9851883    80.249267  0.040777066  0.044332843            2 
  165000    1.1883183   -5.9832948    81.208456  0.041014372  0.044299336            3 
  166000    1.1671172   -6.0216217    81.217496  0.040771835  0.044266978            3 
  167000    1.1769718   -6.0038092    82.013762  0.040925031  0.044237979            2 
  168000    1.2129673   -6.0120608     82.19375  0.040770709  0.044206841            1 
  169000    1.1832005   -6.0288893    82.636089  0.040747578  0.044175621            6 
  170000    1.1759253   -6.0232976     83.18403  0.040776485  0.044145252            1 
  171000    1.1470051   -6.0222878    83.686135  0.040782717  0.044114371            2 
  172000    1.1671144   -6.0232324      84.2158  0.040802228  0.044083673            2 
  173000    1.1741462   -6.0195897    84.406268  0.040658125  0.044049677            2 
  174000     1.189125   -5.9981083    85.117944  0.040765299  0.044020111            2 
  175000    1.1696259   -5.9981992    86.067585  0.040984564  0.043989527            2 
  176000    1.1810841    -5.984303    86.223524  0.040825532  0.043962063            1 
  177000    1.1763631   -6.0508267    86.856148  0.040892725  0.043934069            4 
  178000    1.1875666   -6.0386645    87.295298  0.040868585  0.043907164            2 
  179000     1.161779   -6.0083338    88.237201  0.041078771  0.043881717            1 
  180000    1.1857111   -5.9807835    88.152924  0.040811539  0.043854486            4 
  181000    1.1984279   -6.0400794    88.789662  0.040879218  0.043824084            1 
  182000    1.1989524   -5.9935654    89.447377  0.040955758   0.04379672            2 
  183000    1.1876244   -6.0117669    89.685994  0.040840617  0.043770398            2 
  184000    1.1746738   -6.0564129    90.275702  0.040885734  0.043743115            1 
  185000    1.1861628    -6.027269    90.615553  0.040817817  0.043716078            2 
  186000    1.1760409   -5.9522619    91.409771  0.040954198  0.043688667            2 
  187000    1.1965882   -6.0161554    91.505961  0.040778057  0.043661938            4 
  188000    1.1823459   -6.0314672    92.022295  0.040790024  0.043634478            2 
  189000    1.1808298   -6.0594616    92.190589  0.040648408  0.043605823            4 
  190000     1.189261   -6.0435113    93.437186  0.040981222  0.043580316            3 
  191000    1.1783624   -6.0651957    93.460822  0.040776973  0.043557623            6 
  192000    1.1934281   -6.0192395    94.173119   0.04087375  0.043535234            2 
  193000    1.1758275   -6.0439021    94.452328  0.040782525  0.043511179            4 
  194000    1.1592437   -6.0409779    94.627294  0.040647463  0.043485313            3 
  195000    1.1821518   -6.0550168    95.241227  0.040701379  0.043459239            8 
  196000    1.1830118   -5.9800651    96.123195  0.040868705  0.043432367            2 
  197000    1.1658607    -6.047813    96.065118  0.040636683  0.043407487            3 
  198000    1.1849952   -6.0318939    96.750675  0.040719981  0.043378829            3 
  199000    1.1712425    -6.020219    96.330413  0.040339369  0.043349043            5 
  200000    1.1812081   -6.0792886    96.944094  0.040393373  0.043319202            4 
  201000    1.1820992   -6.0210096    98.352677    0.0407764  0.043290422            3 
  202000    1.1728355   -6.0175927    98.351339  0.040573985   0.04326337            3 
  203000    1.1695797   -6.0702776    98.685287  0.040511201  0.043236459            2 
  204000    1.1735825   -6.0276582    99.431156  0.040617302  0.043208268            3 
  205000    1.1741188   -6.0231807     100.2588  0.040755609  0.043181543            3 
  206000     1.182777   -6.0128752    100.53696  0.040670291  0.043154966            2 
  207000    1.1831225    -6.034466    100.88955  0.040615763  0.043130699            3 
  208000    1.2094473   -6.0311556    101.34199  0.040601758  0.043107165            4 
  209000    1.1460124   -6.0140968    102.10263  0.040710779  0.043083499            2 
  210000    1.1693151   -6.0394103    102.38905  0.040630574  0.043058121            3 
  211000    1.1725595   -6.0403765    102.63741  0.040536102  0.043035847            2 
  212000    1.1782801   -6.0108839    103.45468  0.040666147   0.04301087            2 
  213000    1.1517843   -6.0136977    104.27263   0.04079524  0.042989928            2 
  214000    1.1831933    -6.032796    104.52604  0.040703285  0.042967506            3 
  215000    1.1704143   -6.0492417     104.6956  0.040579688  0.042944759            3 
  216000    1.1459853   -6.0616148    105.26022  0.040609652  0.042924033            8 
  217000    1.1721956   -6.0728788    105.37537  0.040466731  0.042901712            3 
  218000    1.1573911   -5.9897198    106.24347  0.040612948  0.042876796            2 
  219000    1.1612865   -6.0556366    106.73112  0.040613058   0.04285268            3 
  220000    1.1629544   -6.0595904    106.80574  0.040456718  0.042829632            4 
  221000    1.1646732    -6.042427    107.42352  0.040506606   0.04280665            2 
  222000    1.1793371   -6.0655902    107.70115  0.040428358  0.042781625            2 
  223000      1.17079   -6.0497154    107.97527  0.040349504    0.0427573            3 
  224000    1.1606695   -6.0375068    109.33523   0.04067531  0.042733223            2 
  225000    1.1602187   -6.0238706    109.17908  0.040436697  0.042707582            3 
  226000    1.1403209   -6.0756293     109.4924  0.040373305  0.042683099            2 
  227000       1.1714   -6.0489325    110.18814  0.040450859  0.042659559            1 
  228000    1.1439773   -6.0450125    110.97639  0.040561547  0.042637494            3 
  229000    1.1869879   -6.0633064    111.27086  0.040491578  0.042615454            3 
  230000    1.1715817   -6.0686816    111.91013  0.040547147  0.042593007            2 
  231000    1.1723811   -6.0493275     112.2578  0.040497041  0.042574146            5 
  232000    1.1429377   -6.0867589    112.56582  0.040433127  0.042554386            5 
  233000    1.1614739   -6.0584771    112.91009   0.04038272  0.042533664            2 
  234000     1.169015   -6.0988997    113.30452  0.040350612  0.042510955            2 
  235000    1.1682661   -6.0325547    113.83103  0.040365615  0.042489727            2 
  236000    1.1461339   -6.0667578     114.3986  0.040394986  0.042468313            3 
  237000    1.1691077   -6.0583598    114.83801  0.040379047  0.042448158            4 
  238000    1.1359777   -6.0779363    115.63883  0.040489785   0.04242675            3 
  239000    1.1672663     -6.04243    116.35357  0.040569584  0.042407639            1 
  240000    1.1401826   -6.0525195    116.34425  0.040397309  0.042388445            4 
  241000    1.1674437   -5.9987185    117.17654  0.040517477  0.042368024            3 
  242000    1.1700133   -6.0911247    116.68003  0.040179075  0.042346383            2 
  243000    1.1470903   -6.0624043    117.33993  0.040240031  0.042322184            2 
  244000    1.1741581    -6.095324    117.49093  0.040126683  0.042298474            5 
  245000    1.1416927   -6.0545814    118.92011  0.040449017  0.042277211            4 
  246000    1.1596287   -6.1019891    118.60498   0.04017784  0.042255879            2 
  247000    1.1578107   -6.0877929    119.38196  0.040277315  0.042235434            2 
  248000    1.1684345   -6.1037335    119.13895  0.040033251  0.042212723            2 
  249000    1.1776272    -6.097089    119.75409  0.040078343  0.042190222            1 
  250000    1.1637414   -6.0584169    120.58717  0.040195723  0.042168112            1 
  251000    1.1789198   -6.0864988    120.99132  0.040169761  0.042143024            3 
  252000    1.1500138   -6.0527864    121.52736  0.040187619  0.042118968            2 
  253000    1.1878471    -6.054478    122.20633  0.040252415  0.042095075            5 
  254000    1.1686444   -6.1231132     122.0493  0.040042421   0.04207304            3 
  255000    1.1458232   -6.0481278    123.14786  0.040244397  0.042051795            3 
  256000    1.1509169   -6.1065748     123.3239  0.040144499  0.042030309            2 
  257000    1.1552473   -6.0968158     123.6522  0.040094747  0.042009395            4 
  258000    1.1434384    -6.113288    124.09017  0.040080806  0.041989163            2 
  259000    1.1541612   -6.0714833    124.92773  0.040195537  0.041968735            2 
  260000    1.1406996   -6.0978212    125.26887  0.040150279  0.041946886            7 
  261000    1.1940345   -6.0864741    125.52648  0.040078696   0.04192465            4 
  262000    1.1602311   -6.0493565     126.6262   0.04027551  0.041902809            3 
  263000    1.1540304   -6.1168326    125.96188  0.039911876  0.041883733            3 
  264000    1.1403641   -6.0935273    126.94866  0.040072179  0.041863102            2 
  265000     1.140316   -6.0817866    127.18293  0.039994631  0.041843418            2 
  266000    1.1624252   -6.0819709    128.15338  0.040148301  0.041820733            2 
  267000    1.1274855    -6.089673    128.08852   0.03997769  0.041800341            2 
  268000    1.1452758   -6.0694751    129.25223  0.040190371  0.041779057            2 
  269000    1.1454123   -6.1282931    129.23863  0.040036749  0.041758138            3 
  270000    1.1490724   -6.0578824    129.55196  0.039985174  0.041735262            2 
  271000    1.1695042   -6.0834687     129.3588   0.03977823  0.041712516            5 
  272000    1.1610587   -6.0540318    130.31795  0.039925842  0.041689147            2 
  273000    1.1231924   -6.0827612    130.36323  0.039793414  0.041665556            2 
  274000    1.1235618   -6.0899804    130.98943  0.039838633  0.041640774            6 
  275000     1.158767   -6.0888725    131.30797  0.039790295  0.041617103            3 
  276000    1.1469191   -6.1163767    131.23381  0.039623733  0.041591743            7 
  277000    1.1573334   -6.1005481    132.75873   0.03993945  0.041567797            4 
  278000    1.1382253   -6.0754333    132.67371  0.039770296  0.041544557            2 
  279000    1.1488228   -6.0624977    133.43446  0.039854977  0.041520979            1 
  280000    1.1542449   -6.0767278     133.3857  0.039698126  0.041497875            3 
  281000    1.1456032   -6.0967048    133.50321  0.039591699  0.041472321            4 
  282000    1.1107604   -6.1299981    133.92634  0.039576342  0.041445304            3 
  283000     1.136698    -6.080311    134.86225  0.039712087  0.041418299            4 
  284000     1.137774   -6.1445425    134.31038  0.039410324  0.041391544            3 
  285000    1.1324527   -6.0629299    135.73125  0.039687501  0.041363741            3 
  286000    1.1516375   -6.1430755    134.87863  0.039300301  0.041335033            2 
  287000    1.1452539   -6.1154262    135.66708    0.0393923  0.041306586            4 
  288000    1.1282606   -6.1033347    136.16723   0.03940024  0.041280209            1 
  289000    1.1477928   -6.1014272    136.72285  0.039424121  0.041253524            4 
  290000    1.1214813   -6.1382569    136.26668  0.039157091  0.041224817            5 
  291000    1.1379283   -6.0918878      137.747  0.039446449  0.041197983            2 
  292000    1.1670866   -6.1134804    137.87003  0.039346469  0.041172566            3 
  293000    1.1580315    -6.106749    138.50329   0.03939229  0.041148589            3 
  294000    1.1295418   -6.1097792    138.74485  0.039326772  0.041122771            1 
  295000    1.1226804   -6.1512928    139.28533  0.039346139  0.041097942            3 
  296000    1.1262196    -6.127828    139.73273   0.03933917  0.041072239            3 
  297000    1.1500123   -6.1030532    140.49558  0.039420756   0.04104852            2 
  298000    1.1119424   -6.1446674    140.43145  0.039270539  0.041024223            1 
  299000    1.1381005   -6.1645483    140.28309  0.039097852  0.040998784            2 
  300000    1.1249553     -6.11412    141.92042  0.039422339  0.040972395            3 
  301000    1.1068147    -6.156354     141.2318  0.039100719  0.040947287            2 
  302000    1.1298708   -6.1367552    142.25899  0.039254689  0.040921007            3 
  303000     1.112167   -6.1467453    142.48277  0.039186681  0.040894536            3 
  304000    1.1262628   -6.1334233    142.66354  0.039107329  0.040867662            4 
  305000     1.143931    -6.111658    143.77654  0.039283209  0.040842541            3 
  306000    1.1166445   -6.1148238    143.84669  0.039173936  0.040818174            2 
  307000    1.1323625   -6.1410428    144.21162   0.03914539  0.040792911            3 
  308000    1.1323159   -6.0953625    144.88735  0.039201123  0.040767756            3 
  309000    1.1345191   -6.0957268    145.04111  0.039115727  0.040742944            7 
  310000     1.151658   -6.1227002    145.85934    0.0392095  0.040718117            3 
  311000    1.1052719   -6.1333018    145.85668  0.039082711   0.04069354            2 
  312000    1.1635354   -6.1592861    146.11834  0.039027336   0.04066666            2 
  313000    1.1546678   -6.1608251    145.96375  0.038861487  0.040640811            3 
  314000    1.1444076    -6.148354    146.86776  0.038977643  0.040614227            2 
  315000    1.1243524   -6.1124168    147.25928  0.038957482  0.040589516            3 
  316000     1.118072   -6.1452483    147.28508  0.038841001  0.040563409            2 
  317000     1.101301   -6.1062675    148.20082  0.038959207  0.040537089            1 
  318000     1.127598   -6.1395031    148.48113  0.038910149  0.040509453            2 
  319000    1.1402323    -6.121712    148.15901  0.038704027  0.040480207            2 
  320000    1.1175307   -6.1459733    148.48848  0.038668876  0.040449662            2 
  321000    1.1155919   -6.1303345    149.03329  0.038689848  0.040419748            3 
  322000    1.1267559   -6.1400343     149.3951  0.038663327  0.040389682            2 
  323000    1.1155563   -6.1515707    149.85994  0.038663556   0.04036007            2 
  324000    1.1121827   -6.1511517    150.10264  0.038606647  0.040329969            4 
  325000     1.129175   -6.1471848    150.66148   0.03863115  0.040301777            3 
  326000    1.1142134   -6.1283039    151.08453   0.03862079  0.040273678            2 
  327000     1.129892   -6.1425573    151.43599   0.03859225  0.040243664            2 
  328000    1.1304791   -6.1210775    151.93921  0.038602442  0.040214738            4 
  329000    1.0991985   -6.1634093    151.63792  0.038408794  0.040185241            5 
  330000    1.1217138     -6.16221    152.21142  0.038437226  0.040156035            3 
  331000    1.1519808   -6.1957101    152.00366  0.038268796  0.040125323            2 
  332000    1.1334219   -6.1754219    152.53719  0.038287446   0.04009485            3 
  333000    1.1100251   -6.1878764    152.77878  0.038232928  0.040064639            4 
  334000    1.0879887   -6.1170685    153.92372  0.038404121  0.040034482            3 
  335000     1.119343   -6.2005759    153.87372  0.038277046  0.040004355            4 
  336000     1.120068   -6.2021651    154.15522  0.038232942  0.039974105            3 
  337000     1.138507   -6.1967728    154.47016   0.03819737  0.039944037            5 
  338000    1.1290254   -6.1359823    155.25523  0.038277917  0.039913639            2 
  339000    1.0987115   -6.1673691    155.96723  0.038340027  0.039884003            5 
  340000    1.1315386   -6.1325974    156.51708  0.038362029  0.039856114            3 
  341000     1.108621    -6.147063    156.69073  0.038291967  0.039827649            6 
  342000    1.1276299   -6.1801865    157.24991  0.038316256  0.039800438            3 
  343000    1.1337067   -6.1757017    157.75829  0.038328059  0.039774067            2 
  344000     1.131724   -6.1074939    157.84988  0.038238827  0.039748318            2 
  345000    1.1071938   -6.1518243    157.72899  0.038098789  0.039720509            4 
  346000    1.1061888   -6.1596611    158.08472  0.038074354  0.039691458            3 
  347000    1.1536265   -6.2018142    157.87606  0.037914519  0.039662132            3 
  348000    1.1300405   -6.1811461    158.86712  0.038042893  0.039631448            2 
  349000    1.1345854   -6.2160483    158.37066  0.037815345  0.039600399            3 
  350000    1.1279014   -6.1661742    159.91539  0.038075094  0.039570526            3 
  351000    1.1113992   -6.1760143    160.14517   0.03802117  0.039542049            5 
  352000    1.1295155   -6.2057412    159.69278  0.037806056  0.039513054            4 
  353000    1.1096565   -6.1430075    160.89828  0.037983541  0.039483681            4 
  354000    1.1261679   -6.1857623    161.11014  0.037926116   0.03945506            3 
  355000    1.1145482   -6.2285894    161.01165  0.037796162  0.039426589            3 
  356000    1.1069834   -6.2180889    161.02758  0.037693721   0.03939741            3 
  357000    1.1157994    -6.155594    161.91399  0.037795048  0.039366736            2 
  358000    1.1123235   -6.1590161    162.54122  0.037835479  0.039338229            4 
  359000    1.1092332   -6.1533177    163.07328  0.037853592  0.039310271            2 
  360000    1.1055005   -6.2058253    162.36415  0.037584294  0.039280874            1 
  361000    1.0959882   -6.1576336    162.85608   0.03759374  0.039249569            1 
  362000    1.1319077    -6.187395    163.73682  0.037692638  0.039218714            3 
  363000    1.1042484   -6.1727847    163.46362  0.037526084  0.039187989            2 
  364000    1.1069976   -6.1460097    164.24276  0.037601365  0.039156822            2 
  365000    1.1247744   -6.2207039    164.01874  0.037447201  0.039125578            4 
  366000    1.1273637    -6.191737    164.36557  0.037423854   0.03909447            5 
  367000    1.1100006   -6.2227695    164.73192  0.037405069  0.039063427            2 
  368000    1.1125978    -6.196744    165.55029  0.037488743  0.039033379            3 
  369000    1.1024583   -6.1890372    165.70719  0.037422581  0.039004144            6 
  370000    1.1057898   -6.1673049    166.38014  0.037473005  0.038974216            6 
  371000    1.0979063   -6.1719092    166.41256  0.037379281  0.038943788            4 
  372000    1.1163052   -6.1988925    166.78427  0.037362068  0.038913513            2 
  373000    1.0871242    -6.153605    167.13136  0.037339446  0.038883595            2 
  374000    1.1074432   -6.1973251    167.46474   0.03731389  0.038853667            2 
  375000    1.1102207   -6.1779138     167.7019   0.03726709   0.03882483            2 
  376000      1.10672   -6.1990965     168.7406  0.037398182  0.038795459            3 
  377000    1.0761395   -6.2120246    169.01971  0.037360679  0.038766656            1 
  378000    1.1163583   -6.1674889    169.61596  0.037393288  0.038737954            5 
  379000    1.0979428   -6.1956975     169.8468  0.037345382  0.038710038            3 
  380000    1.0647859   -6.1734237    170.37729  0.037363441  0.038682571            2 
  381000    1.1318018   -6.1983922    170.80636   0.03735922  0.038655038            2 
  382000    1.0940603    -6.190301    171.45121  0.037402096  0.038628031            3 
  383000    1.1052649   -6.2160267    171.70391  0.037359423  0.038600567            1 
  384000    1.0913729   -6.2241952    171.89669  0.037303968  0.038573383            2 
  385000    1.1210025   -6.1849525    172.57468  0.037353827  0.038546053            3 
  386000    1.1148266   -6.1966679    172.17516  0.037170803  0.038518495            8 
  387000    1.1225404   -6.2289512       172.63  0.037172695  0.038490929            5 
  388000    1.1095406   -6.2328447    173.20112  0.037199553  0.038462917            4 
  389000      1.10349   -6.2038536    173.51664  0.037171517   0.03843524            2 
  390000    1.1040297    -6.214832    173.92752  0.037163999  0.038407921            4 
  391000     1.102368   -6.2340008    174.13616  0.037113419  0.038381313            3 
  392000    1.0764382   -6.2048337    174.04372  0.036999091  0.038353879            4 
  393000    1.0902584   -6.1844911    174.79719  0.037064713  0.038326413            4 
  394000    1.1028532   -6.2097363    175.80656  0.037184128  0.038299424            2 
  395000    1.1054501   -6.1931017    175.90939  0.037111686  0.038271591            3 
  396000    1.0881231   -6.2324881    174.80147  0.036784821  0.038243034            2 
  397000    1.0933506   -6.2286268    175.39212  0.036816145  0.038214426            2 
  398000    1.1099279   -6.1970413    176.41198  0.036937181  0.038186236            2 
  399000    1.1093935   -6.2344308     176.4251  0.036847347  0.038157703            2 
  400000    1.0824754   -6.2113045    176.77339  0.036827789  0.038128929            2 
  401000    1.0963316   -6.2286018    176.78709  0.036738798  0.038100369            2 
  402000    1.0896783   -6.2597006    177.61206  0.036818421  0.038071968            3 
  403000     1.102067   -6.2265031    178.17541  0.036843551  0.038042818            3 
  404000     1.078489   -6.2559311    177.39383  0.036591136   0.03801391            7 
  405000     1.111266   -6.2288723    178.09891  0.036645866  0.037985536            3 
  406000    1.1029613   -6.1984631    179.00852  0.036742306  0.037956311            3 
  407000    1.0689458   -6.2206911    179.05778  0.036662117  0.037928221            3 
  408000    1.0854354   -6.2647352    178.53777  0.036466049  0.037898974            3 
  409000    1.0747157    -6.213736    179.44678  0.036562099  0.037869522            3 
  410000    1.0550903    -6.193755    180.38169  0.036662945  0.037840346            4 
  411000    1.0736624   -6.2597807    179.29143  0.036352682  0.037811994            2 
  412000    1.0940322   -6.2100039    180.28365   0.03646514  0.037782431            6 
  413000    1.0692797   -6.2420272    181.32468  0.036586901   0.03775438            2 
  414000    1.0612967   -6.2178122    182.08751  0.036652076  0.037727714            4 
  415000    1.1008457   -6.2509441    182.42013  0.036630548  0.037701949            4 
  416000    1.0783979   -6.2203131    182.65325  0.036589193  0.037676065            5 
  417000    1.1038078   -6.1969032    183.44137  0.036658947  0.037649892            2 
  418000    1.1014666   -6.2299197    183.38566  0.036560139  0.037625001            4 
  419000    1.0624791   -6.2334121    184.23637  0.036642078  0.037600551            4 
  420000    1.0977721   -6.2621236    184.97747   0.03670188    0.0375768            2 
  421000    1.1032781   -6.2612956    184.27889  0.036476423  0.037551279            4 
  422000    1.0903008   -6.2049529    185.46025  0.036623272  0.037526313            3 
  423000    1.0779201   -6.2452258    185.95725  0.036634605  0.037502121            5 
  424000      1.08702   -6.2184767    186.43498  0.036642095   0.03747813            3 
  425000    1.1040379   -6.2317435     186.5619  0.036580764   0.03745554            3 
  426000    1.0697814   -6.2684574    186.56232  0.036494976  0.037431501            4 
  427000    1.0430829   -6.2024623    187.62172   0.03661626  0.037407376            3 
  428000    1.0947003   -6.2495271    187.49379  0.036505801  0.037383594            1 
  429000    1.0938593   -6.2827235    186.85142  0.036295924  0.037358797            4 
  430000    1.0899559   -6.2395319    186.79732   0.03620103  0.037333662            3 
  431000    1.0676702   -6.2481738    188.07098  0.036363299  0.037308157            2 
  432000    1.0971118   -6.2200466    188.99248  0.036456883  0.037283245            4 
  433000    1.0832364   -6.2485417     188.5322  0.036284103  0.037258601            4 
  434000    1.0615406   -6.3153802    189.17956  0.036324801  0.037234499            4 
  435000    1.0668544    -6.243083    189.56614  0.036315353  0.037210563            2 
  436000      1.08048   -6.2597651    189.83818  0.036284055  0.037187016            3 
  437000    1.0872444   -6.2658101    190.02409  0.036236477  0.037162909            4 
  438000    1.0746531   -6.2520268     190.7373   0.03628944  0.037139689            6 
  439000    1.0587217    -6.290791    190.56299  0.036173688  0.037114862            8 
  440000     1.084291   -6.2733301    190.48561   0.03607682  0.037090522            3 
  441000    1.0768302   -6.2336256    191.96342  0.036274267  0.037066481            4 
  442000    1.0769168    -6.253603     191.3647  0.036079317  0.037043141            3 
  443000    1.0677731   -6.2537808    192.81205  0.036270137  0.037019997            3 
  444000    1.0586604   -6.2946646    192.47943  0.036126019  0.036997251            6 
  445000    1.0779886   -6.2334238    194.09113  0.036346654   0.03697479            6 
  446000    1.0767319   -6.2586175    194.03543  0.036254752  0.036952807            3 
  447000    1.0917695   -6.2437693    194.67209  0.036292337  0.036931417            4 
  448000    1.0987018   -6.2677474     194.8496  0.036244345  0.036909952            3 
  449000     1.078537   -6.2538483    195.18109  0.036225146  0.036888848            4 
  450000    1.0558792   -6.2902907    195.54353  0.036211765  0.036867392            2 
  451000    1.0768774   -6.2603513    196.64273  0.036334577  0.036846546            4 
  452000    1.0587121     -6.27047    196.19729  0.036172067  0.036825728            3 
  453000    1.0564856   -6.2406711    196.54373  0.036155947  0.036804502            4 
  454000    1.0589481   -6.2815938    196.58479  0.036083845  0.036783095            3 
  455000      1.07182   -6.2591263    196.92835  0.036067463  0.036760929            9 
  456000    1.0746318   -6.3111554    196.57741  0.035924235  0.036737894            3 
  457000    1.0595729   -6.2547586    197.70664  0.036051538  0.036715744            2 
  458000    1.0634887   -6.3188798    197.44914  0.035925971  0.036693461            1 
  459000     1.078131   -6.2987378    197.77913  0.035907613  0.036670848            3 
  460000    1.0531551   -6.2596845    198.69579  0.035995614  0.036649484            5 
  461000    1.0608347   -6.2770431    199.58376  0.036078048  0.036628081            3 
  462000    1.0725356   -6.2973655    199.23262   0.03593662  0.036606332            5 
  463000    1.0897421   -6.2942678    199.28999  0.035869329  0.036584155            6 
  464000    1.0419213   -6.2660055    200.18945  0.035953565   0.03656169            3 
  465000    1.0674575   -6.2743985    199.71643  0.035791475  0.036539973           12 
  466000    1.0648852   -6.3035816    200.70765  0.035891927  0.036518206            3 
  467000    1.0738853   -6.2747435    200.49056  0.035776331   0.03649593            5 
  468000    1.0791361   -6.2873909    200.74422  0.035745054  0.036473107            2 
  469000    1.0581221   -6.2917189    200.73873  0.035667863  0.036451059            3 
  470000    1.0474155   -6.2967107    200.57168  0.035562355  0.036428086            3 
  471000    1.0479071   -6.3451868    200.63216   0.03549755  0.036404056            4 
  472000    1.0647075   -6.3079201    201.11548  0.035507676  0.036379527            2 
  473000    1.0638018   -6.2584993    202.13541    0.0356123  0.036355794            3 
  474000    1.0557169    -6.278806    200.61723  0.035270259  0.036331463            3 
  475000    1.0653535   -6.2563843    201.44245  0.035340781  0.036306681            4 
  476000    1.0616006   -6.2959238    202.37753  0.035430241  0.036281875            1 
  477000    1.0462829   -6.3203873    202.33984  0.035349378  0.036256525            3 
  478000    1.0635353   -6.2616718    203.04525  0.035398405  0.036230849            5 
  479000    1.0708555   -6.2702506    203.85279  0.035464994  0.036205345            3 
  480000    1.0513708   -6.2895913    203.85827   0.03539206  0.036180262            7 
  481000    1.0560568   -6.3493231    203.06471  0.035180997  0.036155616            4 
  482000    1.0786576     -6.31842    203.97143   0.03526477  0.036130641            9 
  483000    1.0777255    -6.349585    204.01474   0.03519923  0.036105877            3 
  484000    1.0393014   -6.3346484    204.61634  0.035230085  0.036080835            6 
  485000    1.0580126   -6.3221064    204.90867  0.035207675  0.036055217            3 
  486000    1.0542959   -6.2797987    205.26101  0.035195646  0.036030138            3 
  487000    1.0523512   -6.2710443    206.42123  0.035321908  0.036005958            3 
  488000    1.0569268   -6.3665932    205.37691  0.035071193  0.035981833            2 
  489000    1.0566663   -6.3146561    206.02825  0.035110472  0.035957886            3 
  490000    1.0289466   -6.2965248    206.77905  0.035166505  0.035933457            4 
  491000    1.0516215    -6.302816    206.56925  0.035059275  0.035909032            4 
  492000    1.0533829    -6.285905     206.2755  0.034938262  0.035884295            6 
  493000    1.0701028   -6.2893086    206.93305  0.034978541  0.035859035            2 
  494000    1.0671425   -6.3181476    207.36366  0.034980374  0.035834261            2 
  495000    1.0516932   -6.3371635    207.75084  0.034974889  0.035809446            3 
  496000    1.0463089    -6.311706    208.29889  0.034996453  0.035784955            4 
  497000    1.0390871   -6.2644564    209.18223   0.03507415  0.035761339            3 
  498000    1.0637583   -6.3315753    208.83536  0.034945676  0.035736728           16 
  499000    1.0548915   -6.3015363    209.30593  0.034954229  0.035712063            2 
  500000    1.0510215   -6.3529131    208.99333  0.034832221  0.035687078            4 
  501000    1.0634045   -6.2990174    209.79758  0.034896471  0.035662153            5 
  502000    1.0801618   -6.3095326    209.65536  0.034803346  0.035637853            3 
  503000    1.0416896   -6.3219817    210.10213  0.034808173  0.035613592            2 
  504000     1.032778   -6.3572558    210.15856  0.034748439  0.035589243            2 
  505000    1.0655296   -6.3406194    210.79709  0.034784998  0.035565104            2 
  506000    1.0167373   -6.3151279    211.25365  0.034791444  0.035540841            3 
  507000    1.0449163   -6.3300182    211.14648  0.034705207  0.035517365            3 
  508000    1.0331093   -6.3429618    212.04763  0.034784716   0.03549425            5 
  509000    1.0455921   -6.3341509    212.56418  0.034800947  0.035470961            4 
  510000    1.0760568   -6.3321011    212.52048  0.034725569  0.035447593            3 
  511000    1.0361302   -6.3091093     213.7533  0.034858659  0.035424906            3 
  512000    1.0450688   -6.2886885    213.31642  0.034719469   0.03540168            5 
  513000    1.0469964   -6.3105284    213.76416  0.034724523  0.035378214            4 
  514000    1.0208007   -6.3237886    213.93177  0.034684139  0.035354682            7 
  515000    1.0495015   -6.3184759    214.31868  0.034679397  0.035330881            1 
  516000    1.0576207    -6.340326    214.92541  0.034710176   0.03530811            3 
  517000    1.0431442   -6.3335686     214.7089   0.03460814  0.035285805            8 
  518000    1.0616602   -6.3427571    215.26399  0.034630628  0.035262954            2 
  519000    1.0551257   -6.3659508    214.62379   0.03446111  0.035239349            4 
  520000    1.0781527   -6.3356027    215.72532  0.034571365  0.035215897            5 
  521000    1.0619789   -6.3471785    216.30574  0.034597847   0.03519398            3 
  522000    1.0430601   -6.3102525    217.21644  0.034676954   0.03517147            4 
  523000    1.0462414    -6.331584    216.58791  0.034510502  0.035149209            3 
  524000    1.0433933   -6.3396292    216.54447  0.034437734  0.035126268            3 
  525000    1.0419752   -6.3525031    217.58979  0.034538061   0.03510293            3 
  526000    1.0540513   -6.3790336    217.51797  0.034461022  0.035079873            9 
  527000     1.057477    -6.293811    218.47804  0.034547445  0.035057283            2 
  528000     1.034627   -6.3546088    217.85704  0.034384002  0.035034326            4 
  529000    1.0534008   -6.3568916    218.09167  0.034355965    0.0350111            5 
  530000    1.0598019   -6.3197897    218.49628  0.034354761  0.034987784            2 
  531000    1.0247471   -6.3512447    218.46853  0.034285708  0.034964201            4 
  532000     1.059721   -6.3639145    218.29144  0.034193521  0.034940664            5 
  533000    1.0466795   -6.3567072    219.12652  0.034259931   0.03491725            3 
  534000    1.0338515   -6.3531899    219.79226  0.034299665  0.034894257            3 
  535000    1.0269656   -6.3378427    220.31569  0.034317085   0.03487096            3 
  536000    1.0686759   -6.3936498    219.15248  0.034072213  0.034847236            6 
  537000    1.0402346   -6.3856926    219.89234  0.034123578  0.034823534            6 
  538000    1.0453042   -6.3865032    220.11663  0.034094893  0.034799937            3 
  539000    1.0272096   -6.3630047    220.43088  0.034080222   0.03477588            4 
  540000     1.040674   -6.3491621    220.86675  0.034084375  0.034752541            4 
  541000    1.0426448   -6.3631066     221.8002  0.034165157  0.034728615            4 
  542000    1.0268594   -6.3938516    222.25289  0.034171723  0.034705398           13 
  543000    1.0169284   -6.3870338    221.41944  0.033980884   0.03468152            5 
  544000    1.0301611   -6.3864075    221.87674  0.033988472  0.034657772            5 
  545000    1.0329325   -6.3815862    222.44994  0.034013753  0.034634027            4 
  546000    1.0344724   -6.3534671     222.3877  0.033941957  0.034610309            2 
  547000    1.0412246   -6.3690091    222.78501  0.033940434   0.03458706            3 
  548000     1.028359   -6.3578997    223.73337  0.034022714  0.034564103            8 
  549000    1.0401355    -6.411702    223.66458  0.033950301  0.034541209            3 
  550000    1.0401068    -6.319766    225.10009  0.034106074  0.034518466            4 
  551000    1.0310965   -6.3612692     224.1574  0.033901603  0.034495961            2 
  552000    1.0290723   -6.3839471    223.97179  0.033812166  0.034473288            3 
  553000    1.0087127   -6.3446057    225.20819  0.033937341  0.034450103            2 
  554000    1.0232969   -6.3712503    224.71215  0.033801467  0.034426861            5 
  555000    1.0303761   -6.3759874    225.39878   0.03384366  0.034403447            4 
  556000    1.0437701   -6.4007198    225.05268  0.033730917  0.034380038            4 
  557000    1.0224144   -6.3474892    225.98866  0.033810391  0.034357183            2 
  558000    1.0299201   -6.3538067    226.10879   0.03376774  0.034333732            3 
  559000    1.0477284   -6.3869416    226.20185  0.033721206  0.034310379            3 
  560000    1.0243566    -6.355956    226.13078  0.033650414  0.034286716            5 
  561000    1.0141651   -6.3943022    226.09392  0.033584955  0.034262613            2 
  562000    1.0340262   -6.3423467    226.86671  0.033639785   0.03423839            6 
  563000    1.0282404   -6.3591193     226.6547  0.033548653  0.034214392            3 
  564000    1.0362789   -6.3812174    227.49765  0.033613718   0.03419064            3 
  565000    1.0061064   -6.4003411    227.41709  0.033542344  0.034165912            8 
  566000    1.0403728   -6.4168946    226.99208  0.033420506  0.034142224            3 
  567000    1.0380811   -6.3849237    228.35387  0.033561709   0.03411815            4 
  568000    1.0142477   -6.4034724    228.26636  0.033489784  0.034094791            4 
  569000    1.0317634   -6.4246873    228.57759  0.033476508  0.034071253            6 
  570000    1.0482548   -6.4015691    228.35718  0.033385553  0.034048138            2 
  571000     1.045114   -6.4355865    228.72349  0.033380544   0.03402513            4 
  572000    1.0297489   -6.3904731    230.22236  0.033540553  0.034002052            7 
  573000    1.0384391   -6.4298321    229.94919  0.033442291  0.033979608            2 
  574000    1.0234255   -6.3752697    230.54437  0.033470436   0.03395634            2 
  575000    1.0417016   -6.3419521    231.67651  0.033576306  0.033934451            2 
  576000    1.0373032   -6.4201726    231.05948  0.033428744   0.03391221            4 
  577000    1.0102414    -6.391201     232.0482  0.033513605  0.033890532            5 
  578000    1.0058192   -6.4236292    231.36001  0.033356403  0.033868889            5 
  579000    1.0166997   -6.3723868    232.24286  0.033425858  0.033846978            2 
  580000    1.0175996   -6.4184341    232.55962  0.033413739  0.033825365            3 
  581000    1.0105531   -6.4235619    232.94022  0.033410818  0.033803177            6 
  582000    1.0489196   -6.3736318    233.58436  0.033445641  0.033781659            2 
  583000     1.021878   -6.3801236    233.72052  0.033407735  0.033760617            4 
  584000    1.0145895   -6.4165744    234.25006  0.033426094  0.033739998            8 
  585000    1.0341291   -6.4604361    233.62558  0.033279997  0.033718448            4 
  586000    1.0363284   -6.4063385    234.76901   0.03338581  0.033696929            2 
  587000    1.0418666   -6.3469054    235.85392  0.033482953  0.033676451            9 
  588000    1.0192918   -6.3716132    235.75004  0.033411287   0.03365589            6 
  589000    1.0013276   -6.3836669    235.45405  0.033312684  0.033635497            3 
  590000    1.0163728   -6.4058081    235.05187  0.033199416  0.033614689            4 
  591000    1.0231739   -6.4179898    235.76725  0.033244113  0.033593426            2 
  592000    1.0252194   -6.4018186    236.48572  0.033289094  0.033571764            4 
  593000    1.0039506   -6.4397008    235.99616  0.033164159  0.033550285            5 
  594000     1.046095   -6.4282963    236.31742  0.033153398  0.033528814            5 
  595000    1.0132043   -6.4208891    236.11754  0.033069683  0.033507428            3 
  596000    1.0041446   -6.4300402    236.38128  0.033051074   0.03348591            3 
  597000   0.98835439   -6.3839086    237.19558  0.033109378  0.033464714            3 
  598000    1.0146396    -6.426866    237.47162  0.033092478  0.033443149            4 
  599000    1.0148325   -6.4066738    237.57881  0.033052144  0.033421687            4 
  600000    1.0057886   -6.4237389    237.35292  0.032965684  0.033399561            4 
  601000    1.0069047   -6.4133957     238.6284  0.033087687  0.033378505            4 
  602000   0.99560368   -6.4083541    239.17008  0.033107708  0.033357647            3 
  603000    1.0292262   -6.4390776     238.9157  0.033017648  0.033336948            2 
  604000   0.99023937   -6.3975211     239.7841  0.033082796  0.033316188            6 
  605000   0.98987119   -6.4308529    239.78763  0.033028599  0.033295656            5 
  606000    1.0141673   -6.4160623    239.77873  0.032972873  0.033274804            2 
  607000    1.0112733   -6.4544586    239.65415  0.032901448  0.033254143            2 
  608000    1.0088326   -6.3682266    241.31286  0.033074679  0.033233625            4 
  609000    1.0069449   -6.3904331    240.66535  0.032931767  0.033213231            5 
  610000      1.02433   -6.4298608    241.17925  0.032947984  0.033192991            9 
  611000    1.0018061   -6.4324857    241.47923  0.032934974   0.03317299            3 
  612000    1.0020114   -6.3823982    243.23848  0.033120708  0.033152988            5 
  613000    1.0112678    -6.449708    241.81096  0.032872615  0.033133142            4 
  614000   0.99687438    -6.433641    241.84993  0.032824366  0.033113178            6 
  615000    0.9994276   -6.4347573    242.74934  0.032892865  0.033093606            8 
  616000   0.98734653   -6.4297391    243.94111  0.033000691   0.03307426            5 
  617000    1.0029265   -6.4204178    243.58532  0.032899152  0.033055242            5 
  618000    1.0237574   -6.4598808    244.43183  0.032960063  0.033036382            4 
  619000    1.0054317   -6.4286846    243.63213  0.032799155  0.033017428            4 
  620000   0.99398193   -6.4340608    244.48177  0.032860453  0.032998233            4 
  621000    1.0061281   -6.4643759     244.7225  0.032839842  0.032979577            9 
  622000    1.0288714   -6.4634309    245.49146  0.032890067  0.032960805           11 
  623000    1.0048293   -6.4549157    246.10814  0.032919762  0.032942371            4 
  624000    1.0177916   -6.4296317    246.05117  0.032859398   0.03292343            2 
  625000    1.0278765   -6.4177002    247.37058  0.032982744  0.032905234            3 
  626000   0.99401828   -6.4463286    247.32518  0.032924013  0.032887518            4 
  627000    1.0041759    -6.439726     247.8279  0.032938318   0.03286967            5 
  628000    1.0084084   -6.4746818    246.98771  0.032774378  0.032851422            4 
  629000   0.98477257   -6.4195176    247.64249  0.032809021  0.032832962            8 
  630000   0.99949441   -6.4702243    248.64727  0.032889851  0.032814646            2 
  631000    1.0164313   -6.4235227    247.71234  0.032714255  0.032796042            3 
  632000    1.0046905   -6.4413711    248.41476  0.032755111  0.032777984            2 
  633000    1.0214362   -6.4628826    248.06317  0.032657079  0.032759648            3 
  634000     1.002827   -6.4631731     248.1894  0.032622161  0.032740821            5 
  635000    1.0046984   -6.4701223    248.25117  0.032578894  0.032721912            4 
  636000   0.98872185   -6.4884193    249.04047  0.032631089  0.032703111            3 
  637000   0.99977579   -6.4481213    249.51392  0.032641801  0.032684587            2 
  638000    1.0041853   -6.4862623     248.8217  0.032500222  0.032666168            6 
  639000      1.01523   -6.4983031    250.23526  0.032633707  0.032647365            8 
  640000    1.0162952   -6.4881626    249.29884  0.032460786  0.032628556            3 
  641000   0.98918155   -6.5021543    249.28939  0.032408917  0.032609371            3 
  642000    1.0098635   -6.4788458    249.60834  0.032399836  0.032590457            6 
  643000     1.009469   -6.4628259    249.77686  0.032371288  0.032571273            2 
  644000   0.99726958   -6.4794193    250.55401  0.032421584   0.03255169            7 
  645000   0.99349753   -6.4377836    251.10003  0.032441864  0.032532397            3 
  646000   0.98973774   -6.4930028    250.42579  0.032304668  0.032513568            6 
  647000   0.97316325   -6.4643162    251.62457  0.032409141  0.032494129            5 
  648000    1.0005692   -6.4487183    252.42203  0.032461681  0.032475372            5 
  649000     1.019509   -6.4409157    251.65217  0.032312811  0.032456225            4 
  650000   0.99065197   -6.4280565    252.43593   0.03236358  0.032437064            3 
  651000    1.0097076   -6.4577825    252.77575  0.032357367  0.032417594            3 
  652000   0.98394914   -6.4734523    252.35315  0.032253726  0.032398381            4 
  653000    1.0022258    -6.488308    252.47061  0.032219323  0.032378787            4 
  654000    1.0265906   -6.4734893    252.66411  0.032194713  0.032358951            5 
  655000   0.97517526   -6.4760182    253.59902  0.032264507  0.032339565            5 
  656000    1.0192919   -6.5044535    253.01266  0.032140836  0.032320354            2 
  657000   0.98895035   -6.4818988    253.36904  0.032137118   0.03230076            5 
  658000   0.99871428   -6.4623064    253.60838  0.032118589  0.032281124            4 
  659000    1.0068541   -6.4639955    253.94656  0.032112614  0.032261965            4 
  660000    1.0034612   -6.4625411    255.06946  0.032205741  0.032243073            3 
  661000    0.9770007   -6.4973857    255.07543  0.032157769  0.032224118            6 
  662000    1.0018845    -6.463353    255.51352  0.032164341  0.032205236            7 
  663000   0.96795871   -6.5163538    254.71644  0.032015641   0.03218638            5 
  664000   0.99353023   -6.4842684    255.10539  0.032016239  0.032166981            5 
  665000   0.98614483   -6.4965359    255.66357  0.032038041  0.032147826            6 
  666000   0.99974642   -6.5079852    255.80057  0.032007078  0.032128164           11 
  667000   0.96223972   -6.4910356    255.67816  0.031943798  0.032109292            3 
  668000   0.99014788   -6.4816108    256.90532  0.032049067  0.032090279            7 
  669000   0.99698592   -6.5077997    256.54406  0.031956161   0.03207122            2 
  670000    0.9934519   -6.5018397    256.44991  0.031896755  0.032052293            8 
  671000   0.95566507   -6.4956111    257.51939   0.03198204  0.032033433            3 
  672000   0.98357104   -6.5271117    257.09781  0.031882169  0.032014843            4 
  673000   0.98889215   -6.5225294    256.97271  0.031819306   0.03199579            4 
  674000   0.99003678   -6.4958398    257.23906  0.031805027  0.031976761            3 
  675000   0.97584013   -6.4708517    259.31842  0.032014619  0.031958274           10 
  676000    0.9672757   -6.4738846     258.9385  0.031920426  0.031939692            5 
  677000   0.96997199   -6.5010716    257.73818  0.031725527  0.031921116            6 
  678000   0.98778012   -6.5075281     258.3167   0.03174984  0.031901944            5 
  679000   0.99629705    -6.540007    258.33668  0.031705533  0.031882456            3 
  680000   0.99320965   -6.4991643    259.00186  0.031740424  0.031862793            2 
  681000   0.97450999   -6.5145062    259.47863  0.031752158  0.031843283            3 
  682000   0.97972388   -6.5030528    259.49531  0.031707638  0.031823759            5 
  683000   0.96963018    -6.490375    260.21324  0.031748809  0.031804325            3 
  684000    0.9813972   -6.5215816    259.80904  0.031653149  0.031784836            4 
  685000   0.97006043    -6.507286    260.48537  0.031689218  0.031764982            3 
  686000   0.99792925   -6.5062426    260.63019  0.031660616  0.031745485            4 
  687000   0.97800903   -6.4787907    260.98227  0.031657238  0.031726096            3 
  688000   0.99887058   -6.5268672    260.61949  0.031567283   0.03170678            4 
  689000   0.99233133   -6.5379363    261.18034  0.031589301  0.031687206            2 
  690000   0.98526225   -6.5123983    262.07763  0.031651888  0.031667661            3 
  691000   0.96325269   -6.5526249    260.69368   0.03143918  0.031647741            8 
  692000   0.97779457   -6.5046033    261.20814    0.0314557  0.031627904            6 
  693000   0.98547756   -6.5454725    261.73162  0.031473258  0.031608214            5 
  694000   0.98065169   -6.4969459     262.6928  0.031543324  0.031588876            4 
  695000   0.98442213   -6.5252897    261.76102  0.031386214   0.03156942            3 
  696000   0.97455521   -6.5105182    262.36748  0.031413731  0.031549649            4 
  697000   0.97316677   -6.5321338    261.60012  0.031276915  0.031529528            8 
  698000   0.98442863   -6.5103688    261.92404  0.031270778  0.031509409            7 
  699000   0.97022747    -6.533178    261.83511  0.031215439  0.031488932            5 
  700000   0.99662206   -6.5278949    263.80249  0.031405058  0.031468661            4 
  701000   0.98687497   -6.4888309    263.46313  0.031319916    0.0314489            5 
  702000   0.95885921   -6.5239819    262.96789  0.031216511  0.031428908            4 
  703000   0.95563793   -6.4806293    263.03028  0.031179502  0.031408958            5 
  704000   0.95841196   -6.5394562    264.10085  0.031261938  0.031388898            3 
  705000   0.98247985   -6.5206667    264.01601  0.031207566  0.031368829            4 
  706000   0.96570272    -6.551636     264.2726   0.03119365  0.031349013            3 
  707000   0.97439823   -6.5404526    264.09353  0.031128422  0.031329333            4 
  708000   0.98875419   -6.5624852    263.49622   0.03101415  0.031308962            6 
  709000    0.9908072   -6.5350105    264.71887  0.031114112  0.031288744            3 
  710000   0.96293104    -6.526411    264.46792  0.031040836  0.031268338            8 
  711000   0.97279841   -6.5282966    265.47732  0.031115486   0.03124764            4 
  712000   0.97090644    -6.594035    263.95499  0.030893609  0.031226721            2 
  713000   0.98016624   -6.5228481    265.21396  0.030997424  0.031205848            6 
  714000   0.98177986   -6.5465319    265.29005  0.030962891  0.031185176            5 
  715000   0.96670131   -6.5872155    265.10511  0.030898031  0.031164298            4 
  716000   0.95375511   -6.5295793    265.20074  0.030866008  0.031143687            4 
  717000   0.95516628    -6.498878    266.82705  0.031011977  0.031123224            6 
  718000   0.96924073   -6.5183989    266.22856  0.030899322  0.031102699            5 
  719000   0.94174295   -6.5421998    266.83349  0.030926459  0.031082393            3 
  720000   0.96631982   -6.5267687    267.28014  0.030935201  0.031061977            3 
  721000    0.9560658   -6.5228563    267.21043  0.030884238  0.031042015            4 
  722000   0.94855187   -6.5800253    266.49261  0.030758612   0.03102204            6 
  723000   0.98091859   -6.5532244    267.44596  0.030825952  0.031001879            4 
  724000   0.97274606   -6.5392143    267.61654  0.030803009  0.030981637            4 
  725000   0.95097345   -6.5580122    268.10034  0.030816131  0.030961454            3 
  726000   0.96163429   -6.5552221    267.20695  0.030671137  0.030941038            6 
  727000   0.93968181   -6.5351268    267.46648  0.030658698  0.030920513            3 
  728000    0.9519813   -6.5547684    268.73615  0.030761922  0.030900114            3 
  729000    0.9732769   -6.5401177    267.84203  0.030617516  0.030879897            5 
  730000   0.95899226   -6.5525547    268.49464  0.030650073  0.030859585            6 
  731000   0.95437322   -6.5146277     269.3556  0.030706292  0.030839434            4 
  732000   0.98564471   -6.5575412    268.61782  0.030580352  0.030819201            5 
  733000   0.96506708   -6.5448546    269.04244  0.030586908  0.030799033            8 
  734000   0.96452637   -6.5443813    269.55965  0.030603956  0.030778817            4 
  735000   0.94708788   -6.5369634    269.77141  0.030586327  0.030758396           12 
  736000   0.97513568     -6.54542    269.41061  0.030503918  0.030738156            7 
  737000   0.93997256   -6.5516258    270.26746  0.030559415  0.030717863            3 
  738000   0.95575825   -6.5789685    270.12729  0.030502178  0.030697639            6 
  739000    0.9592641   -6.5280396    271.13391  0.030574415  0.030677447            7 
  740000   0.95568749   -6.6232775    269.22461  0.030318087  0.030656986            4 
  741000    0.9579624   -6.5716044    270.55396  0.030426671  0.030636547            6 
  742000   0.95157585   -6.5572077    270.59156  0.030389887  0.030616448            7 
  743000   0.97995907    -6.551975    271.16268  0.030413042  0.030595984            5 
  744000   0.95279694   -6.5122489    271.16239  0.030372131  0.030575526            5 
  745000     0.966887    -6.553638    271.19464  0.030334971  0.030555162            8 
  746000   0.94893667   -6.5238523    272.43539  0.030432907  0.030535035            5 
  747000   0.95380934   -6.5712406     272.1485  0.030360162  0.030514821            3 
  748000   0.95240632   -6.5924534    272.13519  0.030318092  0.030494574           11 
  749000   0.96027022   -6.5947046    271.88207  0.030249452  0.030474447            9 
  750000   0.95281752   -6.5321956    272.60958  0.030289953  0.030454222            5 
  751000   0.98851607   -6.5577948    272.15829  0.030199544  0.030433936            4 
  752000   0.94328511   -6.5515156    272.37308  0.030183187  0.030413168            6 
  753000   0.96058504   -6.5465621    271.52042  0.030048741  0.030391954            4 
  754000   0.94974438   -6.5449312    272.93289  0.030164997  0.030370642            7 
  755000   0.94123615   -6.5826445    272.86382  0.030117419   0.03034964            4 
  756000   0.94734521   -6.5916173    271.85646  0.029966541  0.030328596           11 
  757000   0.95480422   -6.5994427    272.17049  0.029961525  0.030307513            6 
  758000   0.96211153   -6.6022304    272.53907  0.029962519  0.030286161            8 
  759000   0.95661156   -6.5928108    272.64322  0.029934477   0.03026515            5 
  760000   0.93869027   -6.5959172    273.31048  0.029968254  0.030244106            6 
  761000   0.94407258   -6.6019654    273.29278  0.029926936  0.030223064            3 
  762000   0.96566076   -6.5897918    274.15666  0.029982137  0.030202041            7 
  763000   0.95652266   -6.5687105     274.7651  0.030009294  0.030181713            4 
  764000   0.94874395   -6.5903781    273.75272   0.02985959  0.030161488            7 
  765000   0.94363236   -6.5913669    275.20427  0.029978679  0.030140906            4 
  766000   0.94195316   -6.5978949    274.71972  0.029886827  0.030120442            4 
  767000   0.96185371   -6.5673769     275.6868  0.029952933  0.030099562            4 
  768000   0.96471024    -6.612956    274.64701  0.029801108  0.030078994            9 
  769000   0.94060911   -6.5833836     274.6628  0.029764066  0.030057943            8 
  770000   0.95890436   -6.6347279    274.80647  0.029740959  0.030036773            3 
  771000   0.93399453   -6.5964889    275.81312  0.029811188  0.030016134            3 
  772000   0.96207438   -6.6023084    275.74554  0.029765279   0.02999551            6 
  773000   0.94950159   -6.6158935    275.12079  0.029659421  0.029974811            5 
  774000   0.92805786   -6.5831489    275.78963  0.029693112  0.029954024            8 
  775000   0.96496995   -6.5832008    275.73147  0.029648545  0.029933109            2 
  776000    0.9264996   -6.6258701    275.35342  0.029569741  0.029911728            2 
  777000   0.94222204   -6.6121034    275.85985  0.029585999  0.029890415            5 
  778000   0.96143138   -6.6017495    276.22667  0.029587261   0.02986934            9 
  779000   0.93688232   -6.6083147    275.80967  0.029504672  0.029848214            5 
  780000   0.93760456   -6.6225531    275.44279  0.029427649  0.029826839            6 
  781000   0.95074371    -6.621331    276.03969  0.029453658  0.029805391            3 
  782000   0.90608214   -6.5776936    277.54381   0.02957628  0.029783918            6 
  783000   0.94065804   -6.6302313    276.79855   0.02945919  0.029762447            4 
  784000    0.9416311     -6.66021    276.67711  0.029408706  0.029740733            4 
  785000   0.92256922   -6.6494172    276.44729  0.029346846  0.029719417            6 
  786000   0.92632001   -6.6341247    276.67904   0.02933408  0.029698098            6 
  787000   0.94492204   -6.6141942    277.63328  0.029397849  0.029676773            3 
  788000   0.94377181   -6.6376567    277.03198  0.029296953  0.029655397            4 
  789000   0.92699282   -6.6208969    277.37945   0.02929652  0.029633948            5 
  790000   0.94625084   -6.5925226     278.0287  0.029327922  0.029612527            6 
  791000   0.96511848   -6.5970878    278.38821   0.02932872  0.029591534            8 
  792000   0.93184201   -6.5931407    278.96187  0.029352049  0.029570716            6 
  793000   0.93145638   -6.5820415    279.06858  0.029326248  0.029549594            5 
  794000   0.92105198   -6.6426771    278.82108  0.029263337  0.029528471            5 
  795000   0.92185476   -6.6314271    278.97496  0.029242658  0.029507277            6 
  796000   0.93795708   -6.6178446    279.16537  0.029225856  0.029485995            4 
  797000   0.92261186   -6.6381817    279.35493  0.029209005  0.029464984           10 
  798000   0.92229758   -6.6412919    280.15094  0.029255529  0.029444075            6 
  799000   0.92798467   -6.6254913     280.6894  0.029275073  0.029423166            7 
  800000    0.9513547    -6.598089    280.58466  0.029227569  0.029402507            2 
  801000   0.93395654   -6.6403848    280.08352  0.029138943  0.029381748            4 
  802000   0.92434375   -6.6329948    280.16404  0.029110977  0.029360927           10 
  803000      0.93785   -6.6315596    279.88559  0.029045827  0.029340391            3 
  804000   0.92156978   -6.6480998    280.92247  0.029117172  0.029319445            6 
  805000   0.92573515   -6.6559546    280.49985  0.029037252  0.029298284           10 
  806000   0.90900099   -6.6089949    282.05516  0.029162031  0.029277264            3 
  807000   0.93329358   -6.6161799    281.53973  0.029072669  0.029256866            5 
  808000   0.94910393   -6.6336405     282.5819  0.029144173  0.029236362            5 
[...]
 1800000   0.53256471   -7.7467791    318.79245   0.01475891  0.013197559          207 
 1801000   0.52699503   -7.7248457    318.68875  0.014745916  0.013186194          320 
 1802000   0.53010672   -7.7236757    319.18855  0.014760847  0.013174853          168 
 1803000     0.533842   -7.7283318    318.93837  0.014741097  0.013163521          393 
 1804000   0.53137256       -7.732    318.93838  0.014732926  0.013152197          341 
 1805000   0.52722422   -7.7526163     319.1743  0.014735656   0.01314088          241 
 1806000   0.52834136   -7.7334749    318.85359  0.014712698  0.013129575          278 
 1807000   0.53745403   -7.7353904    319.49202  0.014733998  0.013118293          271 
 1808000   0.53569203   -7.7260326    319.19038  0.014711946  0.013107019          424 
 1809000   0.54058938   -7.7432533    319.17693  0.014703194  0.013095768          356 
 1810000    0.5266974   -7.7300038    319.01654  0.014687686  0.013084542          299 
 1811000    0.5409495   -7.7366342    319.18568  0.014687359  0.013073314          133 
 1812000   0.54270875   -7.7192575    319.24627  0.014682039  0.013062093          194 
 1813000   0.53926511   -7.7353478    319.90494  0.014704217  0.013050888          204 
 1814000   0.52525742   -7.7254611    318.97319  0.014653307  0.013039697          470 
 1815000    0.5425397   -7.7267735    319.09567  0.014650857  0.013028523          380 
 1816000   0.51686626   -7.7425368    319.08633  0.014642361  0.013017328          157 
 1817000   0.51050569   -7.7363303    319.28708   0.01464351  0.013006147          251 
 1818000    0.5287363   -7.7329327    319.14862  0.014629108  0.012995002          206 
 1819000   0.52672854   -7.7225492    319.43169  0.014634034  0.012983872          336 
 1820000    0.5258651   -7.7224758    319.56951  0.014632303  0.012972746          224 
 1821000   0.53615501   -7.7393221    318.60872    0.0145803  0.012961633          195 
 1822000   0.52185326   -7.7439029    319.54449  0.014615098  0.012950526          425 
 1823000   0.52775833   -7.7447904    318.97329   0.01458097  0.012939424          412 
 1824000   0.52135994    -7.741191      318.406  0.014547058  0.012928341          404 
 1825000   0.53394918   -7.7368975    319.29372  0.014579622  0.012917265          367 
 1826000   0.53798898   -7.7514767    318.86015   0.01455185   0.01290621          259 
 1827000   0.52713598   -7.7491993    319.38094   0.01456764  0.012895162          460 
 1828000   0.52997113     -7.73617    319.11484   0.01454754  0.012884117          125 
 1829000   0.53280216   -7.7557104    318.40836  0.014507397  0.012873065          230 
 1830000   0.51978631    -7.744411    319.16568  0.014533956  0.012862028          156 
 1831000    0.5209477   -7.7355883    318.77708  0.014508332  0.012851011          251 
 1832000   0.52485736   -7.7486942    319.37804  0.014527749  0.012840006          266 
 1833000   0.52962733   -7.7470412    318.96833  0.014501197  0.012829006          419 
 1834000   0.51880713   -7.7535784    319.11659  0.014500027  0.012818018          330 
 1835000   0.53162882   -7.7597977    318.47001  0.014462762  0.012807044          338 
 1836000   0.52187298   -7.7466849    319.07673  0.014482423  0.012796089          366 
 1837000   0.50819681   -7.7422126    318.59409  0.014452644  0.012785137          220 
 1838000   0.51627207   -7.7273749    319.10993  0.014468169  0.012774184          372 
 1839000   0.50891774   -7.7512096    318.65338  0.014439613  0.012763243          227 
 1840000   0.51087957   -7.7451263    318.38305  0.014419522  0.012752329          313 
 1841000   0.52213583   -7.7488127    319.09369  0.014443857  0.012741416          210 
 1842000   0.50954277   -7.7520422    318.56733  0.014412203  0.012730527          194 
 1843000   0.49970182   -7.7553171    319.02139  0.014424914  0.012719641          195 
 1844000   0.51175569   -7.7543045    318.92269  0.014412631  0.012708767          283 
 1845000   0.51943517    -7.745327    319.31659   0.01442261  0.012697907          329 
 1846000   0.52073321   -7.7630023    318.53381   0.01437946  0.012687058          481 
 1847000   0.51071223   -7.7552678    319.12588  0.014398388  0.012676204          104 
 1848000   0.51002102   -7.7570661    318.35779  0.014355961   0.01266538          319 
 1849000   0.51757521   -7.7368987    318.52038  0.014355525  0.012654572          493 
 1850000   0.51348916   -7.7521057    318.24658  0.014335431  0.012643758          212 
 1851000   0.51266069   -7.7516586    318.84133  0.014354463  0.012632978          185 
 1852000   0.50665834    -7.753563    318.85861  0.014347489  0.012622191          484 
 1853000   0.50751081   -7.7712305    318.23272  0.014311599  0.012611425          176 
 1854000   0.51323394   -7.7709228    318.55512  0.014318371  0.012600667          403 
 1855000   0.51939803   -7.7708939     317.7593  0.014274901   0.01258991          186 
 1856000   0.50692525    -7.768175    318.19381  0.014286719  0.012579168          411 
 1857000   0.51279225     -7.78181    318.53196    0.0142942  0.012568445          496 
 1858000   0.51616559   -7.7549657    318.71303  0.014294628  0.012557727          519 
 1859000   0.50666919   -7.7666987    318.62862  0.014283155  0.012547008          453 
 1860000   0.51393733   -7.7568096    318.74567   0.01428072  0.012536309          172 
 1861000   0.51162316   -7.7657302    318.49152  0.014261666  0.012525624          264 
 1862000   0.52075415   -7.7615643    318.68346  0.014262597  0.012514955          423 
 1863000   0.51511836   -7.7615849    319.06631  0.014272066  0.012504307          431 
 1864000   0.50871937   -7.7459612     318.5859  0.014242932  0.012493678          133 
 1865000   0.51168872   -7.7747281    318.20922  0.014218464  0.012483052          274 
 1866000   0.50676753   -7.7628123    318.72706   0.01423397  0.012472421          420 
 1867000    0.4960448   -7.7565288    318.30009  0.014207288  0.012461799          244 
 1868000   0.51664859   -7.7628194    318.37435  0.014202996  0.012451191          439 
 1869000   0.51307694   -7.7742023     318.3744  0.014195399   0.01244061          433 
 1870000   0.51373871   -7.7787118    318.33314  0.014185969   0.01243003          595 
 1871000   0.51216692   -7.7817287    318.25847  0.014175061  0.012419469          147 
 1872000   0.50837296    -7.757181    318.30556  0.014169585  0.012408912          452 
 1873000   0.51508406   -7.7738289    318.72037  0.014180476  0.012398364          317 
 1874000   0.51305669   -7.7705649    318.62752   0.01416878  0.012387827          437 
 1875000   0.50975342   -7.7911851      318.409  0.014151511  0.012377301          173 
 1876000   0.50525577   -7.7616154    318.51925  0.014148865  0.012366783          204 
 1877000   0.49977579   -7.7563803    318.70059  0.014149378   0.01235629          262 
 1878000   0.51656852   -7.7631008    318.35471  0.014126496  0.012345795          244 
 1879000   0.50683789    -7.766009    318.17294  0.014110916  0.012335315          271 
 1880000   0.49508244   -7.7900516    318.58396  0.014121629  0.012324841          506 
 1881000    0.5139931   -7.7555801    318.24214  0.014098978  0.012314395          283 
 1882000   0.51036098   -7.7731091    318.35544  0.014096504  0.012303952          435 
 1883000   0.51403381   -7.7784626    318.52919  0.014096707  0.012293512          500 
 1884000   0.50530053   -7.7590414    318.10724  0.014070561  0.012283078          463 
 1885000   0.50466422     -7.79683    318.39008    0.0140756  0.012272658          425 
 1886000    0.5050175   -7.7698852    318.21984  0.014060615  0.012262253          498 
 1887000   0.49737116   -7.8006897     318.2433    0.0140542  0.012251846          393 
 1888000   0.50162291   -7.7855081    317.46861  0.014012562  0.012241452          371 
 1889000   0.49754999   -7.7626809    318.03586  0.014030169  0.012231073          208 
 1890000   0.49988028   -7.7804285    318.40943  0.014039217    0.0122207          521 
 1891000   0.49166686   -7.8038868    318.44364    0.0140333  0.012210333          504 
 1892000   0.50366579   -7.7979755      318.201  0.014015195  0.012199982          409 
 1893000   0.50258351   -7.7915026    318.39583  0.014016369  0.012189638          579 
 1894000    0.4925957   -7.7834275    318.37639  0.014008113  0.012179303          533 
 1895000   0.50673424   -7.7862923      317.973  0.013982981  0.012168985          229 
 1896000   0.50060442   -7.7661525    318.66347  0.014005954  0.012158692          229 
 1897000   0.49384087   -7.7718833    317.67943  0.013955343  0.012148394          471 
 1898000   0.49036634   -7.8051701     318.0392  0.013963786  0.012138107          423 
 1899000   0.48248982   -7.7766098    318.59029  0.013980616   0.01212784          605 
 1900000   0.49710815   -7.7980489    318.48022  0.013968431  0.012117582          597 
 1901000   0.49098023   -7.7858673    318.18161  0.013947993  0.012107335          572 
 1902000    0.4949814   -7.8049557    318.00414  0.013932884  0.012097088          538 
 1903000   0.48813046   -7.7838475    317.85063   0.01391884  0.012086851          612 
 1904000   0.48239039   -7.7844347    318.25119  0.013929061  0.012076632          450 
 1905000   0.49253409   -7.8012673    318.05892  0.013913338  0.012066425          572 
 1906000   0.50616629   -7.7836714    317.91497  0.013899745  0.012056227          472 
 1907000   0.49876358   -7.8002509    317.89255  0.013891476  0.012046037          550 
 1908000   0.49539822    -7.811332      317.691  0.013875393  0.012035854          526 
 1909000   0.49477047   -7.8096019    317.87274  0.013876058  0.012025685          590 
 1910000   0.49120955   -7.7891284    318.26779  0.013886029  0.012015526          547 
 1911000   0.49804547   -7.7937821     318.2712  0.013878912  0.012005373          551 
 1912000   0.50228794   -7.8100848    318.00029  0.013859845  0.011995229          588 
 1913000   0.49785843   -7.7911759    318.01239  0.013853127    0.0119851          539 
 1914000   0.48776364   -7.7917996    317.83612  0.013838215  0.011974982          541 
 1915000   0.47906524   -7.8154592    318.01501  0.013838773  0.011964862          605 
 1916000   0.48673324   -7.8023486    318.01826  0.013831692  0.011954756          552 
 1917000   0.48150757   -7.7970559    317.54572  0.013803935  0.011944663          515 
 1918000   0.49388244   -7.8195072    317.57287  0.013797917  0.011934588          506 
 1919000   0.49362021   -7.8095552    317.96633  0.013807814  0.011924506          531 
 1920000   0.48413323   -7.8001786    317.56166  0.013783058  0.011914444          408 
 1921000   0.48737213   -7.8304977    317.50165   0.01377328  0.011904393          569 
 1922000   0.48038727   -7.7913861    318.08572  0.013791438  0.011894348          263 
 1923000   0.48545719   -7.8129349    317.30273  0.013750335  0.011884319          589 
 1924000   0.49446846   -7.8117304    317.61803  0.013756845  0.011874298          513 
 1925000   0.48691241   -7.8018774    317.73049  0.013754567   0.01186429          559 
 1926000   0.49035099   -7.8375249    317.46589  0.013735976  0.011854289          546 
 1927000   0.48394421   -7.8052194     317.7806  0.013742458    0.0118443          456 
 1928000   0.49064294   -7.8112108    318.11582  0.013749819  0.011834317          329 
 1929000   0.47482379   -7.8117301    317.25443  0.013705479  0.011824338          177 
 1930000   0.48732569   -7.8005801    317.90311  0.013726386  0.011814385          406 
 1931000   0.46822517   -7.8223142     317.1219  0.013685564  0.011804427          516 
 1932000   0.47993652   -7.8064789    317.91591  0.013712729  0.011794476          573 
 1933000   0.47636539    -7.795389    317.31121  0.013679566  0.011784536          591 
 1934000   0.47186978   -7.8122853    317.89209  0.013697522  0.011774618          582 
 1935000   0.49107296   -7.8240416    317.83553  0.013688007  0.011764705          239 
 1936000    0.4774726   -7.8069281    317.62114  0.013671709  0.011754798          597 
 1937000   0.48095617   -7.8178828     317.4027  0.013655253   0.01174489          588 
 1938000   0.48124263   -7.8260128    317.13108  0.013636527  0.011735002          620 
 1939000   0.47993514   -7.8225603    317.78379  0.013657546  0.011725136          564 
 1940000   0.47701132   -7.7997881    317.64526  0.013644556  0.011715277          520 
 1941000   0.48439415   -7.8240681    317.75885  0.013642403   0.01170542          636 
 1942000   0.48400991   -7.8201295    318.03228  0.013647111  0.011695579          448 
 1943000   0.46012319   -7.8157525    317.72791  0.013627034  0.011685748          471 
 1944000   0.46859054   -7.8153463    317.25469  0.013599738  0.011675929          572 
 1945000    0.4800806   -7.8191732    317.05584  0.013584226  0.011666111          549 
 1946000   0.47229236   -7.8186892    317.55281  0.013598527  0.011656306          550 
 1947000   0.48098382   -7.8259364    317.34627  0.013582703   0.01164651          476 
 1948000   0.48052873   -7.8398311    317.30131  0.013573807  0.011636735          502 
 1949000   0.46807325   -7.8198424    317.85391   0.01359047  0.011626962          510 
 1950000   0.47360638   -7.8245162    317.10242  0.013551385  0.011617185          513 
 1951000   0.47575742   -7.8355299    317.32501  0.013553947  0.011607449          498 
 1952000   0.46976746   -7.8280077    317.24754  0.013543696  0.011597707          640 
 1953000   0.47360939   -7.8423649     318.1935  0.013577125  0.011587978          508 
 1954000     0.469556   -7.8361777    317.31718  0.013532804  0.011578252          548 
 1955000   0.46851795    -7.843655    317.21983  0.013521732  0.011568549          612 
 1956000   0.46988194   -7.8278743    317.26843   0.01351689  0.011558852          517 
 1957000   0.47350498   -7.8366045    317.09198  0.013502469  0.011549166          611 
 1958000   0.46657752   -7.8267582    318.14521  0.013540399  0.011539491          531 
 1959000   0.47613158   -7.8425492     317.1495  0.013491131  0.011529825          427 
 1960000   0.47242754   -7.8278844    318.02379  0.013521419  0.011520168          555 
 1961000   0.47200832   -7.8310381    317.19449  0.013479283  0.011510526          522 
 1962000    0.4738936   -7.8357585    317.41545  0.013481798  0.011500888          621 
 1963000   0.46064037   -7.8342527    317.37279  0.013473119  0.011491258          516 
 1964000    0.4744069   -7.8349049    317.21277  0.013459469  0.011481642          554 
 1965000   0.45691715   -7.8403475    317.37627  0.013459554  0.011472033          458 
 1966000   0.46245494   -7.8376058    316.74556  0.013425973  0.011462439          631 
 1967000   0.47392614   -7.8435875    317.42053  0.013447743  0.011452843          556 
 1968000   0.44955874   -7.8248873     317.3643  0.013438529  0.011443272          586 
 1969000   0.47377844   -7.8224859    316.86892  0.013410738  0.011433701          542 
 1970000    0.4673326   -7.8399648    317.75498  0.013441412  0.011424141          548 
 1971000   0.46356584   -7.8351208    316.93544  0.013399943  0.011414586          589 
 1972000   0.45736216   -7.8523847     316.9831  0.013395161  0.011405039          629 
 1973000   0.47794159   -7.8479252    317.00593  0.013389337  0.011395502          421 
 1974000   0.46724651   -7.8610669    316.53896   0.01336284  0.011385969          333 
 1975000   0.46526939    -7.831741    317.12288  0.013380712  0.011376458          582 
 1976000   0.45526395   -7.8452614     316.5218  0.013348591  0.011366959          429 
 1977000   0.46115205   -7.8522859    317.50454  0.013383263  0.011357466          551 
 1978000   0.47916382   -7.8305264    316.50347  0.013334322  0.011347984          384 
 1979000   0.45892939    -7.849689    317.37116  0.013364122  0.011338514          218 
 1980000   0.46169208    -7.844501    317.12585  0.013347048   0.01132904          526 
 1981000   0.46596748   -7.8636012    316.93623  0.013332333  0.011319586          521 
 1982000   0.46356031   -7.8288495    317.36593  0.013343674  0.011310152          529 
 1983000   0.45468425   -7.8316357    317.26488  0.013332698  0.011300723          524 
 1984000   0.45828018    -7.844656    317.19917  0.013323218   0.01129131          540 
 1985000   0.45430958   -7.8502091    316.88035  0.013303121    0.0112819          579 
 1986000    0.4488626   -7.8531978    316.62201  0.013285583   0.01127249          585 
 1987000   0.46433303   -7.8601533    317.16296  0.013301584    0.0112631          503 
 1988000   0.45979646   -7.8541868    317.44776  0.013306831  0.011253713          544 
 1989000   0.47231495   -7.8501398    317.12163  0.013286477  0.011244331          481 
 1990000   0.46312557   -7.8542467    316.92297  0.013271481  0.011234966          541 
 1991000   0.45695508   -7.8438343    316.55945    0.0132496  0.011225602          567 
 1992000   0.46895114   -7.8532939    316.91031  0.013257627  0.011216259          624 
 1993000   0.45238776   -7.8302641    316.43373  0.013231047  0.011206917          491 
 1994000   0.47166917   -7.8662511    316.97946  0.013247219  0.011197586          459 
 1995000   0.45039056   -7.8505208    317.32603  0.013255055  0.011188263          608 
 1996000   0.45714696   -7.8570383     316.7332  0.013223664  0.011178951          599 
 1997000    0.4542801   -7.8635727    317.06775  0.013231003  0.011169659          586 
 1998000   0.44670999    -7.849155    317.61957  0.013247396  0.011160374          487 
 1999000   0.45785039   -7.8674442    316.93191  0.013212102  0.011151089          643 
 2000000   0.47222466   -7.8609349    317.15188  0.013214662  0.011141822          540 
 2001000   0.45736574   -7.8357081    316.45031   0.01317884  0.011132562          588 
 2002000   0.46636749   -7.8704159    316.75681  0.013185015  0.011123311          510 
 2003000   0.45494506   -7.8517523    316.80332  0.013180368  0.011114064          489 
 2004000   0.44506768   -7.8615693    316.80999  0.013174068  0.011104831          528 
 2005000   0.45551552   -7.8581435    316.80647  0.013167351  0.011095619          589 
 2006000    0.4528257   -7.8631955    317.20398  0.013177301   0.01108641          578 
 2007000   0.44590973   -7.8652328    317.18095  0.013169778  0.011077206          579 
 2008000   0.46192083   -7.8704318    316.54963   0.01313702  0.011068013          545 
 2009000   0.44239475   -7.8607165    316.46275  0.013126877  0.011058835          558 
 2010000   0.45491857   -7.8551237    316.93695  0.013140006  0.011049663          506 
 2011000   0.45369389   -7.8663996    316.84584  0.013129697  0.011040512          610 
 2012000   0.45607629   -7.8776905    316.39588  0.013104534  0.011031358          592 
Loop time of 5295.98 on 48 procs for 2000000 steps with 4000 atoms

Performance: 65257.016 tau/day, 377.645 timesteps/s
99.4% CPU use with 48 MPI tasks x no OpenMP threads

MPI task timing breakdown:
Section |  min time  |  avg time  |  max time  |%varavg| %total
---------------------------------------------------------------
Pair    | 362.34     | 401.15     | 427.53     |  71.0 |  7.57
Neigh   | 36.61      | 38.127     | 39.429     |  11.2 |  0.72
Comm    | 331.28     | 363.31     | 401.38     |  76.0 |  6.86
Output  | 5.6545     | 5.6567     | 5.7177     |   0.4 |  0.11
Modify  | 4408.4     | 4434.8     | 4454.8     |  21.3 | 83.74
Other   |            | 52.94      |            |       |  1.00

Nlocal:        83.3333 ave          92 max          77 min
Histogram: 5 1 8 5 11 7 7 2 0 2
Nghost:        2424.42 ave        2452 max        2406 min
Histogram: 2 4 9 8 8 12 4 0 0 1
Neighs:        16843.1 ave       20473 max       14059 min
Histogram: 2 6 8 6 6 7 9 2 1 1
FullNghs:      33686.5 ave       37145 max       30979 min
Histogram: 5 1 6 9 9 7 6 3 0 2

Total # of neighbors = 1616954
Ave neighs/atom = 404.23850
Neighbor list builds = 106729
Dangerous builds = 0

#clear
#
#next RN
#
#jump SELF
Total wall time: 1:28:19
