
units lj                  # Use reduced LJ style units
atom_style atomic         # Uncharged point particles
atom_modify map hash      # Needed for indexing of clusters etc
                          # Used to be able to find where atoms are in relation to each other.

lattice fcc 1.0 spacing 1 1 1
Lattice spacing in x,y,z = 1.5874011 1.5874011 1.5874011
region box block 0 10 0 10 0 10 units lattice
create_box 2 box
Created orthogonal box = (0.0000000 0.0000000 0.0000000) to (15.874011 15.874011 15.874011)
  3 by 4 by 4 MPI processor grid
create_atoms 1 box
Created 4000 atoms
  using lattice units in orthogonal box = (0.0000000 0.0000000 0.0000000) to (15.874011 15.874011 15.874011)
  create_atoms CPU = 0.015 seconds
set type 1 type/fraction 2 0.71 78393
Setting atom values ...
  2865 settings made for type/fraction
mass 1 1.0
mass 2 1.0
pair_style lj/cut  3.5
pair_modify tail  yes
pair_coeff 1  1  1.0  1.0   # Intearaction between 1 and 1 set with epsilon = 1 and sigma = 1
pair_coeff 1  2  1.5  0.8
pair_coeff 2  2  0.5  0.88

write_data data.0
System init for write_data ...
Neighbor list info ...
  update every 1 steps, delay 10 steps, check yes
  max neighbors/atom: 2000, page size: 100000
  master list distance cutoff = 3.8
  ghost atom cutoff = 3.8
  binsize = 1.9, bins = 9 9 9
  1 neighbor lists, perpetual/occasional/extra = 1 0 0
  (1) pair lj/cut, perpetual
      attributes: half, newton on
      pair build: half/bin/atomonly/newton
      stencil: half/bin/3d
      bin: standard
WARNING: Not all mixed pair coeffs generated from mixing. Use write_data with 'pair ij' option to store all pair coeffs. (../write_data.cpp:312)


#############################
#   M E L T   S Y S T E M   #
#############################

velocity all create 2.4 6583654 mom yes dist gaussian # Assign velocities
                                                    # Temperature 2.4, random number seed, zero linear momentum
                                                                                # Gaussian distribution

timestep 0.002   # simulation timestep
thermo 1000       # output thermodynamic data every 1000 steps bf 100

# Define a fix  in this case with index 1 applied to all
# particles in the simulation. This fix is for simulations
# in the anisotropic NPT ensemble. Note that we use the MTK
# correction.
fix 1 all npt temp 2.4 2.4 0.1 iso 5.68 5.68 0.5 mtk yes tchain 5 pchain 5 # Use NPT ensemble
                                                                         # Set temperature and pressure and damping
                                                                         # Numbers of thermostats in chain and in barostat
run 10000          # run for 10000 steps
Per MPI rank memory allocation (min/avg/max) = 3.642 | 3.644 | 3.648 Mbytes
Step Temp E_pair E_mol TotEng Press Volume 
       0          2.4   -4.1166387            0   -0.5175387   -3.7043072         4000 
    1000    2.3962412   -3.7219504            0  -0.12848715    5.7345437    3657.9873 
    2000    2.3643134    -3.713887            0  -0.16830351    5.6898243    3669.2398 
    3000    2.4038701   -3.6809283            0  -0.07602466    6.0610567    3656.3012 
    4000    2.3633104   -3.6959709            0  -0.15189159    5.7210761    3675.5993 
    5000     2.383684   -3.6578517            0 -0.083219535    5.2276763    3736.3974 
    6000     2.452904   -3.7343814            0 -0.055945189    5.4348109    3689.7216 
    7000    2.4052501   -3.7330444            0  -0.12607125    5.6606271    3669.1525 
    8000    2.3595955   -3.6662043            0  -0.12769583    5.4275035    3719.1024 
    9000    2.3777226   -3.6880305            0   -0.1223382    5.7785987    3666.3549 
   10000     2.392306   -3.6806949            0 -0.093133035    5.9241454    3653.3925 
Loop time of 2.93994 on 48 procs for 10000 steps with 4000 atoms

Performance: 587767.414 tau/day, 3401.432 timesteps/s
99.4% CPU use with 48 MPI tasks x no OpenMP threads

MPI task timing breakdown:
Section |  min time  |  avg time  |  max time  |%varavg| %total
---------------------------------------------------------------
Pair    | 1.1881     | 1.2479     | 1.4746     |   3.6 | 42.45
Neigh   | 0.21645    | 0.22229    | 0.25378    |   1.2 |  7.56
Comm    | 0.76184    | 0.93701    | 1.0601     |   7.8 | 31.87
Output  | 0.00024872 | 0.00025458 | 0.0003245  |   0.0 |  0.01
Modify  | 0.41374    | 0.51665    | 0.6207     |   9.0 | 17.57
Other   |            | 0.01588    |            |       |  0.54

Nlocal:        83.3333 ave          91 max          76 min
Histogram: 3 1 4 7 13 4 6 1 7 2
Nghost:        1747.15 ave        1784 max        1720 min
Histogram: 7 4 8 4 5 7 6 4 1 2
Neighs:        10464.6 ave       11896 max        9299 min
Histogram: 2 6 6 9 8 6 4 3 0 4

Total # of neighbors = 502301
Ave neighs/atom = 125.57525
Neighbor list builds = 905
Dangerous builds = 214

# Equilibrate just above the melting temperature to avoid step fn in T

fix 1 all npt temp 1.25 1.25 0.1 iso 5.68 5.68 0.5 mtk yes tchain 5 pchain 5
run 2000
Per MPI rank memory allocation (min/avg/max) = 3.644 | 3.646 | 3.649 Mbytes
Step Temp E_pair E_mol TotEng Press Volume 
   10000     2.392306   -3.6806949            0 -0.093133035    5.9241454    3653.3925 
   11000    1.2404448   -5.4800913            0   -3.6198893    5.5761494    2803.1614 
   12000    1.2677942   -5.5162424            0   -3.6150265    5.6009027    2794.0895 
Loop time of 0.667916 on 48 procs for 2000 steps with 4000 atoms

Performance: 517430.353 tau/day, 2994.389 timesteps/s
99.6% CPU use with 48 MPI tasks x no OpenMP threads

MPI task timing breakdown:
Section |  min time  |  avg time  |  max time  |%varavg| %total
---------------------------------------------------------------
Pair    | 0.28859    | 0.31875    | 0.3836     |   3.1 | 47.72
Neigh   | 0.040577   | 0.043404   | 0.051076   |   0.9 |  6.50
Comm    | 0.18591    | 0.25818    | 0.29399    |   3.8 | 38.65
Output  | 4.9755e-05 | 5.1906e-05 | 6.56e-05   |   0.0 |  0.01
Modify  | 0.038614   | 0.042724   | 0.047672   |   1.2 |  6.40
Other   |            | 0.004809   |            |       |  0.72

Nlocal:        83.3333 ave          92 max          77 min
Histogram: 2 5 9 6 7 5 9 3 1 1
Nghost:        2094.96 ave        2111 max        2076 min
Histogram: 3 1 4 4 9 5 7 7 6 2
Neighs:        13670.0 ave       15543 max       12046 min
Histogram: 4 2 7 6 6 7 11 2 2 1

Total # of neighbors = 656161
Ave neighs/atom = 164.04025
Neighbor list builds = 143
Dangerous builds = 13

#############################
# L I N E A R  Q U E N C H  #
#############################

# Define solid atoms. This closely follows ten Wolde  Ruiz-Montero and Frenkel  Faraday Discuss  1996  104  93-110
# Compute components of the per-atom q6 vector
compute q6 all orientorder/atom degrees 1 6 components 6 nnn NULL cutoff 1.3 # compute the Q6 parameter.
                                                                             # Use all neighbours within 1.3 unit cell.

# get number of connections
compute coord_number all coord/atom orientorder q6 0.5

# An atom is solid if it has 8 or more connections (of a possible 14)
variable is_solid atom c_coord_number>=8
group solid dynamic all var is_solid    # Must be dynamic to update
dynamic group solid defined

# do clustering
compute cluster solid cluster/atom 1.3 # Create a cluster where all atoms within are solid and max 1.3 units from another member

# define chunks one chunk per cluster
compute clus_chunks solid chunk/atom c_cluster nchunk every compress yes  # Says which atoms are in which chunk

# count the size of each chunk
compute size_chunks solid property/chunk clus_chunks count


# Find the maximum entry in the vector of chunk sizes
variable max_n equal max(c_size_chunks)


# Thermo style which includes this variable
# thermo_style custom step temp pe vol v_max_n

thermo ${N}  # Print the thermo information every 100 steps
thermo 1000  

# Reset the npt fix at a lower temperature (below freezing)
fix 1  all npt temp  ${temp} ${temp}  0.1  iso  5.68  5.68  0.5  mtk yes tchain  5  pchain  5
fix 1  all npt temp  0.45 ${temp}  0.1  iso  5.68  5.68  0.5  mtk yes tchain  5  pchain  5
fix 1  all npt temp  0.45 0.45  0.1  iso  5.68  5.68  0.5  mtk yes tchain  5  pchain  5

dump dmp2 all dcd ${N} traj.dcd
dump dmp2 all dcd 1000 traj.dcd


compute msd all msd com yes
variable twopoint equal c_msd[4]/6/(step*dt+1.0e-6)
fix 9 all vector 10 c_msd[4]
variable fit equal slope(f_9)/6/(10*dt)
thermo_style custom step temp pe c_msd[4] v_twopoint v_fit v_max_n

fix 1 all npt temp 1.25 ${temp} 0.1 iso 5.68 5.68 0.5 mtk yes tchain 5 pchain 5
fix 1 all npt temp 1.25 0.45 0.1 iso 5.68 5.68 0.5 mtk yes tchain 5 pchain 5
run 2000000 # 5000000  # Run for this many steps
Neighbor list info ...
  update every 1 steps, delay 10 steps, check yes
  max neighbors/atom: 2000, page size: 100000
  master list distance cutoff = 3.8
  ghost atom cutoff = 3.8
  binsize = 1.9, bins = 8 8 8
  4 neighbor lists, perpetual/occasional/extra = 1 3 0
  (1) pair lj/cut, perpetual
      attributes: half, newton on
      pair build: half/bin/atomonly/newton
      stencil: half/bin/3d
      bin: standard
  (2) compute orientorder/atom, occasional
      attributes: full, newton on
      pair build: full/bin/atomonly
      stencil: full/bin/3d
      bin: standard
  (3) compute coord/atom, occasional
      attributes: full, newton on
      pair build: full/bin/atomonly
      stencil: full/bin/3d
      bin: standard
  (4) compute cluster/atom, occasional
      attributes: full, newton on
      pair build: full/bin/atomonly
      stencil: full/bin/3d
      bin: standard
Per MPI rank memory allocation (min/avg/max) = 9.843 | 9.849 | 9.853 Mbytes
Step Temp PotEng c_msd[4] v_twopoint v_fit v_max_n 
   12000    1.2677942   -5.5162424 3.1542603e-30 2.1904585e-32 8.3333333e+20            6 
   13000    1.2646548   -5.4597476   0.64563379  0.004138678  0.053389981            2 
   14000    1.2610366    -5.511353    1.2867738 0.0076593678  0.053463869            2 
   15000    1.2425658   -5.4812614    1.9390502  0.010772501  0.054029017            4 
   16000    1.2465555   -5.4860446    2.6227624   0.01366022  0.054340729            4 
   17000    1.2741308   -5.4987493    3.1944944  0.015659286  0.054151075            2 
   18000    1.2616351   -5.5069476    3.7872185  0.017533418  0.053195793            1 
   19000    1.2520979      -5.5356    4.4255619  0.019410359  0.052700569            3 
   20000    1.2165695   -5.5366346     5.044087  0.021017028  0.052523348            2 
   21000    1.2221335    -5.499052    5.7581194   0.02284968  0.052521411            1 
   22000    1.2430881   -5.5293025    6.3365074  0.024001921  0.052604247            2 
   23000    1.2288712   -5.5228675    7.0610135  0.025583382  0.052749847            1 
   24000    1.2314187   -5.5045567     7.761619  0.026950066  0.053183811            1 
   25000    1.2532116   -5.5378027    8.4023454  0.028007817  0.053534527            2 
   26000    1.2608453   -5.4985235    9.0092419  0.028875775  0.053685743            1 
   27000    1.2318262   -5.5186652    9.5484948  0.029470662  0.053604189            2 
   28000    1.2438172   -5.5607295    10.251648  0.030510856  0.053492519            1 
   29000    1.2350546   -5.5116869    10.955093  0.031480152   0.05357683            4 
   30000    1.2715612   -5.5230371    11.655325  0.032375903  0.053650236            7 
   31000    1.2471053   -5.5242146    12.154058  0.032672198  0.053696653            1 
   32000     1.235611   -5.5532339    12.783716  0.033290926  0.053601415            1 
   33000    1.2465071   -5.5260594    13.343319  0.033695248  0.053445752            3 
   34000    1.2546541   -5.5364554      13.9468  0.034183333  0.053328547            3 
   35000    1.2452344   -5.5129491    14.638302    0.0348531  0.053243995            2 
   36000    1.2289668   -5.5164692    15.202504  0.035190982    0.0531657            2 
   37000    1.2413582   -5.5361585    15.797354  0.035579627   0.05304928            2 
   38000    1.2246509   -5.4896082    16.404352  0.035974456  0.052949674            2 
   39000     1.219088    -5.506878    17.027524  0.036383599  0.052828465            6 
   40000    1.2246426   -5.5044617    17.512794  0.036484987  0.052681406            4 
   41000    1.2376091   -5.5165592    18.175446  0.036941963  0.052548366            3 
   42000     1.203427   -5.5749047    18.816163  0.037333657  0.052437418            5 
   43000    1.2333005   -5.5240342    19.469164  0.037730938  0.052377181            1 
   44000    1.2186138   -5.5042889    20.194476  0.038247113  0.052338797            3 
   45000    1.2573952   -5.5107247    20.677325  0.038291342  0.052293344            3 
   46000    1.2459956   -5.5323349    21.256107  0.038507439   0.05222821            2 
   47000    1.2598204   -5.5193007    21.844193  0.038730839  0.052177935            2 
   48000    1.2645917   -5.5651525    22.244989  0.038619773  0.052033602            3 
   49000    1.2447103   -5.5667022    22.732866  0.038661336  0.051897714            2 
   50000    1.2127047    -5.585538    23.221336  0.038702227  0.051723434            2 
   51000    1.2339134   -5.5186943    23.977774  0.039179369  0.051574246            1 
   52000    1.2342248   -5.5125491    24.626135  0.039464959  0.051439509            1 
   53000    1.2363815   -5.5428469    25.317437  0.039807291  0.051358998            1 
   54000    1.2098325   -5.5824919    25.875104  0.039930716  0.051299567            4 
   55000    1.2158032   -5.5931594    26.459284  0.040089825  0.051256443            2 
   56000    1.2272458   -5.6056631    27.174373  0.040438054  0.051222882            2 
   57000    1.2157699   -5.5380663    27.703967  0.040502875  0.051187788            3 
   58000    1.2241603   -5.5473884    28.278768  0.040630413  0.051139764            4 
   59000    1.2148758   -5.5281419     28.83941  0.040733629  0.051063305            5 
   60000    1.2181116    -5.544426    29.297614  0.040691131  0.050986112            2 
   61000    1.2431891   -5.5624927    29.832815  0.040755212  0.050903293            3 
   62000    1.2119851   -5.5605526     30.35263  0.040796546  0.050813833            2 
   63000    1.2249443   -5.5449651    31.094085  0.041129741  0.050733231            2 
   64000    1.2301628   -5.5907669    31.613092   0.04116288  0.050671191            2 
   65000    1.2455402   -5.5562964    32.328128  0.041446317  0.050622598            4 
   66000     1.216892   -5.5254325    32.888634  0.041526052  0.050567315            3 
   67000    1.2260337   -5.5416885    33.577358  0.041762883  0.050520221            4 
   68000    1.2060838   -5.6196223    34.076579  0.041760513  0.050490001            3 
   69000     1.188736   -5.5617286    34.807315   0.04203782  0.050459062            1 
   70000    1.2434246   -5.5188274    35.356848  0.042091486   0.05042438            2 
   71000    1.2110501   -5.5944176    35.909088  0.042146817  0.050388188            3 
   72000    1.2238374   -5.6022472    36.337324  0.042057088   0.05035712            1 
   73000    1.2135231   -5.5649213    36.833218  0.042047052  0.050306191            3 
   74000    1.2300618   -5.5856937    37.534812  0.042268932  0.050258728            4 
   75000    1.2171322   -5.5793592    38.108428  0.042342697  0.050217074            1 
   76000    1.2432478   -5.5545431    38.836589  0.042583979  0.050183289            3 
   77000    1.2203753   -5.5688866     39.57373  0.042828712  0.050166326            4 
   78000    1.2140699   -5.5596582    40.144677  0.042889612  0.050157237            4 
   79000    1.2079213   -5.5676572    40.444352  0.042662818  0.050137477            2 
   80000    1.2178832   -5.5719507    40.996327  0.042704507  0.050095908            2 
   81000    1.2447635   -5.5966483    41.722096  0.042923967  0.050062159            1 
   82000    1.2350032    -5.590431    42.105128  0.042789764   0.05001979            3 
   83000    1.2333271   -5.5549962    42.643622  0.042814882  0.049971073            1 
   84000    1.2207968   -5.5796218    43.006752  0.042665429   0.04991564            3 
   85000     1.221344   -5.5191133    43.674206  0.042817848  0.049856993            2 
   86000    1.2072963   -5.5640725    44.048268   0.04268243  0.049798427            2 
   87000    1.2385596   -5.5583964    44.750936  0.042864881   0.04973688            3 
   88000    1.2010221   -5.5787056    45.334148  0.042930065  0.049681992            2 
   89000    1.2383316   -5.6016586    45.738302  0.042826126  0.049625604            1 
   90000     1.212399   -5.5991418    46.472105  0.043029726  0.049572413            2 
   91000    1.2167126   -5.5572976    47.141864  0.043170205  0.049531107            1 
   92000    1.2530163   -5.5910658    47.882548  0.043371873  0.049502196            2 
   93000     1.200943   -5.5956905    48.634469  0.043579273  0.049477781            4 
   94000    1.2311173   -5.5760941    48.808569  0.043270008  0.049443956            2 
   95000    1.2228935   -5.5647651    49.643885  0.043547267  0.049412953            4 
   96000    1.2129123    -5.598501    50.117629  0.043504886  0.049384333            4 
   97000    1.2188865   -5.5540903    50.309839  0.043221511  0.049339263            4 
   98000    1.1921484   -5.5916583    50.708973  0.043119875  0.049278961            2 
   99000    1.1966493   -5.5766517     51.32922  0.043206414  0.049225033            3 
  100000    1.2141655   -5.5589467    51.613361  0.043011134  0.049166099            3 
  101000    1.1890419   -5.5434423    52.447477  0.043273496  0.049110523            1 
  102000     1.183071   -5.5706688    53.050267  0.043341721  0.049061621            1 
  103000    1.2351615   -5.5464201    53.552159  0.043326989  0.049006036            2 
  104000    1.2230748   -5.5935434     53.74829   0.04306754  0.048948403            2 
  105000    1.2194729   -5.5757191    54.395722  0.043171208  0.048885138            1 
  106000    1.2193787   -5.5914115    54.886198  0.043149526  0.048821603            4 
  107000    1.1983173   -5.5640822    55.492971  0.043218825  0.048761492            4 
  108000    1.2085478   -5.5462256    56.083538  0.043274334  0.048703303            2 
  109000    1.2204781   -5.5652719    56.689367  0.043340495  0.048653243            3 
  110000    1.2150211   -5.5565202    57.189069  0.043325052  0.048606822            3 
  111000    1.2276948   -5.5870286    57.876653  0.043450941  0.048562121            1 
  112000    1.2127194   -5.5845596    58.619135  0.043615428   0.04852645            2 
  113000     1.213065   -5.5831868    59.006795  0.043515336  0.048493634            6 
  114000    1.1925902   -5.6259897    59.858585  0.043756275  0.048464095            3 
  115000    1.1954965   -5.5967086    60.312304  0.043704568   0.04843479            1 
  116000    1.2074387   -5.5932891    60.762688  0.043651356  0.048400018            3 
  117000    1.2342832   -5.6305323    61.287243  0.043651882  0.048363609            2 
  118000    1.2024885    -5.627038    61.932326  0.043737518  0.048336075            1 
  119000    1.2040204   -5.6180101    62.904366  0.044050677  0.048310236            3 
  120000    1.2057209    -5.548094    63.679875  0.044222135  0.048297184            3 
  121000    1.2034329    -5.612418    64.099095  0.044145382  0.048287949            4 
  122000    1.1900645   -5.5982547    64.948612  0.044363806  0.048289756            2 
  123000    1.2140095   -5.6274098    65.409621  0.044315462  0.048284939            1 
  124000    1.2104359   -5.5882286    65.982246  0.044342907  0.048284764            3 
  125000    1.1992614   -5.6456972    66.754394  0.044502929  0.048287695            2 
  126000    1.2242265   -5.5554638    67.539912  0.044669254  0.048290554            2 
  127000    1.2032902   -5.6267859    68.038775  0.044644865  0.048301135            6 
  128000    1.2029518   -5.5710881      69.1457  0.045016732   0.04831593            2 
  129000    1.2248144   -5.5919627    69.421233  0.044845758  0.048334326            1 
  130000    1.1836062   -5.5972796    69.873466  0.044790683  0.048347372            1 
  131000    1.2054818    -5.595339    70.651119   0.04494346  0.048364566            7 
  132000    1.2175042    -5.602007    71.411093  0.045082761  0.048376198            1 
  133000    1.1790219   -5.6023351    71.387849  0.044729229  0.048386605            1 
  134000    1.1858857   -5.6490946    71.885006  0.044704606  0.048391732            2 
  135000     1.184268   -5.6013916    72.615652  0.044824476  0.048390515            3 
  136000    1.1715442   -5.6000386    73.006362   0.04473429  0.048391961            4 
  137000    1.2071921   -5.6297784    73.538048  0.044731173  0.048388973            2 
  138000    1.1859513   -5.6377948    73.784607  0.044555922  0.048379541            3 
  139000    1.1941761   -5.6285752    74.595001  0.044721224  0.048374257            3 
  140000    1.1963915   -5.6078091    75.416252  0.044890626  0.048374947            3 
  141000     1.192592   -5.6202446    75.786971  0.044791354  0.048370389            5 
  142000    1.2271265   -5.6181042    76.899251  0.045128668  0.048367691            2 
  143000    1.2011064   -5.6291007    77.316711  0.045056358  0.048368308            3 
  144000    1.2149006   -5.6093812    77.996513  0.045136871  0.048370274            4 
  145000    1.1925246   -5.6218519    78.235435  0.044962894  0.048368162            2 
  146000    1.2243441   -5.5910146    78.990652  0.045085988  0.048370912            3 
  147000    1.1542547   -5.6160721    79.167753  0.044879678  0.048368696            4 
  148000    1.2101342   -5.6463327    79.931309  0.045006368  0.048361919            1 
  149000    1.1660285    -5.678827     80.15862  0.044831443  0.048357108            3 
  150000    1.2042292   -5.6129028    81.404958  0.045224977  0.048354128            4 
  151000    1.2157043   -5.6168699    82.168626  0.045346923  0.048364337            3 
  152000    1.1991259   -5.6459007    82.526343  0.045244706  0.048374094            4 
  153000    1.1539806   -5.6463408    82.865594  0.045133766  0.048377607            2 
  154000    1.2271415   -5.6373533    83.932526  0.045418033   0.04837846            2 
  155000    1.2112039   -5.6338346    84.392047  0.045372068  0.048383023            2 
  156000    1.1837709    -5.629727     84.98131  0.045395999  0.048390148            2 
  157000    1.1846026   -5.6261362    85.487395  0.045375475  0.048395306            5 
  158000    1.1798473    -5.582657    86.385264  0.045561848  0.048399095            3 
  159000    1.1973935   -5.6490589    86.672207  0.045425685  0.048403742            2 
  160000     1.189662      -5.6342    86.703878  0.045158269  0.048395555            2 
  161000    1.1835949   -5.6349958    87.355561  0.045215094  0.048388211            2 
  162000    1.1887519   -5.5733079    88.294396  0.045418928  0.048384537            4 
  163000    1.1750946    -5.641053    88.584195  0.045288443  0.048379152            2 
  164000    1.1861002   -5.6445836     88.98231  0.045214588  0.048377206            3 
  165000    1.1807823   -5.6227035    89.744092  0.045325299  0.048372235            3 
  166000    1.1891383     -5.61685    90.433327  0.045398256  0.048366852            3 
  167000    1.1872455   -5.6969917    90.857669  0.045338158  0.048364352            3 
  168000    1.1885377   -5.6113715    91.747357  0.045509602  0.048363505            1 
  169000    1.1818511   -5.6543001    92.346822  0.045535908  0.048364987            2 
  170000    1.2024925   -5.6639068    92.799822  0.045490109  0.048364125            2 
  171000    1.2344578   -5.6423119    92.789105  0.045218862  0.048363613            3 
  172000    1.1876967   -5.6161865    93.452816  0.045277527    0.0483599            2 
  173000    1.2026352   -5.6579465    93.996538  0.045277716  0.048351383            7 
  174000    1.1809207   -5.6538853    94.402482  0.045211917  0.048343501            3 
  175000    1.1689261    -5.665382    94.937616  0.045208389  0.048332359            2 
  176000    1.1786737   -5.6439905    95.650327   0.04528898  0.048321285            3 
  177000    1.1982905   -5.6117927    96.653765  0.045505539  0.048314893            1 
  178000    1.1700035   -5.6445601    97.101478  0.045459493   0.04831213            3 
  179000    1.1467163   -5.6299087    97.334368  0.045313952  0.048304601            1 
  180000    1.1929914   -5.6951478    97.593108  0.045181994  0.048295436            3 
  181000     1.168227   -5.6562421    98.070359  0.045152099  0.048280262            3 
  182000    1.1749546   -5.6692204    98.753847  0.045216963  0.048261982            5 
  183000    1.1910288   -5.6953119    98.701869  0.044946206   0.04824276            2 
  184000     1.177794   -5.6347782    99.719034  0.045162606  0.048220835            2 
  185000    1.1878239   -5.6064475    100.61825  0.045323538  0.048206918            2 
  186000     1.184099    -5.672859    100.80307  0.045162667  0.048189926            2 
  187000    1.1936184   -5.6382236    101.71468  0.045327396  0.048176442            2 
  188000    1.1859511   -5.6421791    101.81033  0.045128692  0.048162888            4 
  189000    1.1805196   -5.6627089    102.16396  0.045045839  0.048146541            2 
  190000    1.1903995   -5.6238143    103.46789  0.045380656  0.048132493            6 
  191000    1.1928378     -5.67512    103.39637  0.045111853  0.048115502            4 
  192000    1.1962746   -5.6530953    104.22179  0.045235153  0.048099409            1 
  193000    1.1900159   -5.6729445    104.12078  0.044957161  0.048085847            3 
  194000    1.1755757   -5.6458109    105.03727  0.045119101  0.048071381            2 
  195000    1.1791639   -5.6741113    105.69007  0.045166696  0.048049029            2 
  196000    1.1898216   -5.6856314      105.619  0.044906036  0.048027856            4 
  197000    1.1856542   -5.7000327    106.18995  0.044919607  0.048005128            2 
  198000    1.1740986   -5.6555905    107.21037   0.04512221  0.047981961            3 
  199000    1.1646054   -5.6594849    107.67525  0.045090138  0.047960306            1 
  200000    1.1643012   -5.7064192     108.0342  0.045014248  0.047941183            3 
  201000    1.1802932   -5.6301848    108.72666  0.045077387  0.047919673            3 
  202000    1.1806962   -5.6831105     108.8873  0.044920502  0.047897315            2 
  203000    1.1914372   -5.7098893    109.27361  0.044857805  0.047874807            3 
  204000    1.1821981   -5.6686389    110.00258  0.044935696  0.047849159            2 
  205000    1.1884582   -5.6707149    110.43067  0.044890515  0.047823131            1 
  206000    1.1805773   -5.6609476     110.8664  0.044848868  0.047798222            2 
  207000    1.1816607   -5.6742806     111.3181   0.04481405   0.04777176            4 
  208000    1.1510245   -5.7127871    111.46775  0.044658553  0.047742844            2 
  209000    1.1644434   -5.6847048    111.95137  0.044637709  0.047714498            4 
  210000     1.188432   -5.6116574    113.25434    0.0449422  0.047685781            1 
  211000    1.1699667   -5.6741847    113.10386  0.044669772  0.047658058            4 
  212000    1.1610012   -5.6708895    114.16025  0.044874312  0.047628728            3 
  213000    1.1869151   -5.6585112    114.50445  0.044798297  0.047603755            3 
  214000    1.1538411   -5.6749141    115.00449  0.044783682  0.047579511            4 
  215000    1.1702813   -5.6472567    115.58065  0.044798702  0.047552496            2 
  216000    1.1909089   -5.7056021     115.7118  0.044641898  0.047528451            4 
  217000    1.1533823   -5.7185332    116.63898  0.044792236  0.047504741            3 
  218000    1.1651141   -5.6825832    117.29941  0.044839224  0.047482973            3 
  219000    1.1557177   -5.6849402    117.76967  0.044813421   0.04745817            2 
  220000     1.155157   -5.6709306     118.6761  0.044953069  0.047436096            3 
  221000    1.1710143   -5.6513887    119.35688  0.045006366  0.047413936            1 
  222000    1.1460503   -5.6795319    119.43007  0.044831108  0.047393283            2 
  223000    1.1907392   -5.6788966    119.62382  0.044702473  0.047373293            2 
  224000    1.1927766   -5.6716291    120.90063  0.044977913  0.047352954            2 
  225000    1.1642759   -5.6741572    120.98595  0.044809612  0.047336342            4 
  226000    1.1670713   -5.6968859    121.59371  0.044835438  0.047317904            5 
  227000    1.1372174   -5.7023213    122.02041   0.04479457  0.047296538            5 
  228000    1.1897612   -5.7240133    122.07859  0.044619366  0.047274169            5 
  229000    1.1492382   -5.6736615    122.95527  0.044743549  0.047252412            4 
  230000    1.1441615   -5.6870228    123.32308  0.044682276  0.047232156            2 
  231000    1.1605092     -5.68502    124.47221  0.044903394  0.047213127            2 
  232000    1.1763473   -5.6811606    124.53376  0.044731953   0.04719295            2 
  233000    1.1823871   -5.6840875    124.91183   0.04467519  0.047172214            2 
  234000    1.1678364   -5.6854697    124.86165  0.044466401  0.047149271            2 
  235000    1.1821028    -5.696499    125.35492  0.044452099  0.047122162            5 
  236000    1.1595743   -5.7019584    126.10579  0.044528881  0.047095773            1 
  237000    1.1438865    -5.719924    126.39787  0.044443696  0.047069304            2 
  238000    1.1451195   -5.7333651    126.99144   0.04446479  0.047040345            3 
  239000    1.1788448   -5.7247517    126.87113  0.044236796  0.047010911            3 
  240000    1.1505147    -5.692218    127.31092  0.044205181  0.046980667            2 
  241000    1.1695702   -5.6717907    128.38141  0.044391913  0.046952349            2 
  242000    1.1185675   -5.6948055    128.82854  0.044362446   0.04692313            4 
  243000    1.1666245   -5.6181982     130.1262  0.044624898  0.046896266            2 
  244000     1.146419   -5.7578466    130.01635  0.044404491  0.046867588            1 
  245000    1.1548661   -5.6955079    130.13688  0.044264245  0.046836134            3 
  246000    1.1488273   -5.7311702    130.31776  0.044145583  0.046806234            3 
  247000     1.160043   -5.6855715    131.23867  0.044277554   0.04677953            3 
  248000    1.1569585   -5.6857073    131.85661  0.044306656  0.046752285            2 
  249000    1.1579692   -5.6487255    132.57285  0.044368425  0.046725346            3 
  250000    1.1581212   -5.6767547    133.22586   0.04440862  0.046701869            2 
  251000    1.1194388   -5.6759536    133.63132  0.044366306  0.046677342            2 
  252000    1.1690891   -5.6630556    134.37553  0.044436352  0.046650441            3 
  253000    1.1451742   -5.6948474    134.77655  0.044392804  0.046629056            1 
  254000    1.1880056   -5.7188806    135.32756  0.044398805   0.04660683            4 
  255000     1.178239   -5.7151553    135.42882  0.044257784  0.046584305            2 
  256000    1.1638797   -5.7116178    136.25382  0.044353458  0.046563659            1 
  257000    1.1758669   -5.7003263    136.94289  0.044404309  0.046542733            5 
  258000    1.1469315   -5.7566591    137.12165  0.044289938  0.046520176            2 
  259000    1.1717034   -5.7528667    137.31611  0.044181503   0.04649678            2 
  260000    1.1750618   -5.7267567    138.77007  0.044477587  0.046475252            4 
  261000    1.1400448   -5.7097326    139.14829  0.044427935  0.046454085            3 
  262000    1.1241605   -5.7336561    139.23841  0.044287027  0.046434033            4 
  263000    1.1365295   -5.7069022      139.763  0.044284854  0.046415206            6 
  264000    1.1722233   -5.7220646    140.66754  0.044402634  0.046394977            4 
  265000    1.1545931    -5.730552    140.68556  0.044240742  0.046376126            3 
  266000    1.1667663   -5.6919099    142.13509  0.044528538  0.046357925            4 
  267000     1.145624   -5.7388623    141.77728  0.044250088  0.046337864            4 
  268000    1.1642391    -5.692655    141.95984   0.04414174   0.04631466            2 
  269000    1.1492196   -5.7169118    143.35401  0.044409546  0.046291959            1 
  270000     1.139016   -5.7335941    142.75045  0.044058781  0.046270214            2 
  271000    1.1545462   -5.7255775    143.45012  0.044111353  0.046247812            3 
  272000    1.1405774   -5.7117572    144.30346  0.044210619  0.046224973            5 
  273000    1.1559363   -5.7066448    145.01094  0.044264633  0.046202493            3 
  274000    1.1528594   -5.7633933    144.69012  0.044005511  0.046181534            3 
  275000    1.1567427   -5.7422819    145.71678  0.044156601  0.046163761            2 
  276000    1.1519584   -5.7050686    146.32782  0.044181105  0.046145947            2 
  277000    1.1603174   -5.7135748    147.20599  0.044285796  0.046127775            3 
  278000    1.1526747   -5.7631533    146.90299  0.044035667  0.046108642            5 
  279000    1.1180967   -5.7893964    148.07385  0.044227554  0.046087475            5 
  280000    1.1213731   -5.6989633    148.99288  0.044343119  0.046071006            3 
  281000    1.1415591   -5.7311104    149.29878  0.044276032  0.046053629            4 
  282000    1.1533302   -5.7469939    149.47775  0.044171912  0.046035754            2 
  283000    1.1386364    -5.738578    150.22092  0.044234665  0.046016214            4 
  284000    1.1368472   -5.7148432    150.17704  0.044066033  0.045995282            2 
  285000    1.1180935   -5.7695632    150.62632  0.044042782  0.045974163            4 
  286000    1.1458341   -5.7343788    151.62409  0.044179514   0.04595365            4 
  287000    1.1390131   -5.7069855    151.97373  0.044127099  0.045935186            2 
  288000    1.1434257   -5.7362786    153.11089   0.04430292  0.045915264            3 
  289000    1.1468499   -5.7006443    153.92576  0.044384591  0.045898713            3 
  290000    1.1410707   -5.7500746    153.62301  0.044144543  0.045882671            1 
  291000    1.1340694   -5.7614364     153.9268  0.044079841     0.045865            4 
  292000    1.1325898   -5.7623978    154.61726   0.04412593  0.045846525            3 
  293000     1.107638    -5.780798    154.57444   0.04396315  0.045826731            2 
  294000    1.1259069   -5.7262496    155.67618  0.044125902  0.045806636            3 
  295000    1.1330232   -5.7298329     156.7229  0.044272006  0.045788541            4 
  296000    1.1359913   -5.7440032    156.35239  0.044018127  0.045770817            1 
  297000    1.1124203   -5.7549011    157.11744  0.044084579  0.045754432            2 
  298000    1.1512943   -5.7341212    157.66936  0.044090984  0.045737235            3 
  299000    1.1377295   -5.8164008    157.35204  0.043855084  0.045719416            2 
  300000    1.1167326   -5.7395418    157.99444  0.043887343  0.045700903            1 
  301000     1.132804   -5.7099607     159.2327  0.044084357  0.045683128            4 
  302000    1.1514806   -5.7601183    159.43401  0.043993933  0.045667435            3 
  303000    1.1356718   -5.7239651    160.15073  0.044045855  0.045648609            5 
  304000    1.1290172     -5.74623    160.65648  0.044039604  0.045632829            3 
  305000    1.1457556   -5.7500782    161.50259  0.044126391  0.045614606            3 
  306000    1.1419117    -5.712605    161.60417  0.044009849  0.045597224            2 
  307000    1.1332418   -5.7348533    161.47423  0.043831223  0.045578027            4 
  308000    1.1372489   -5.7754963    161.66282   0.04373994  0.045558537            1 
  309000    1.1261515   -5.7541322    162.52387  0.043830602   0.04553966            5 
  310000     1.123068   -5.8003538    162.51439  0.043686664  0.045519437            5 
  311000    1.1173354    -5.779644    163.26906  0.043748408  0.045497685            2 
  312000    1.1610541   -5.7845304    163.31806  0.043621277  0.045475996            2 
  313000    1.1027784   -5.7603596    163.95573  0.043651685  0.045454624            2 
  314000    1.1095413   -5.7525879    164.48206  0.043652352   0.04543334            4 
  315000    1.1446168   -5.7428112    165.25498  0.043718247  0.045413318            2 
  316000    1.1272206   -5.7881068    165.32582   0.04359858  0.045391603            3 
  317000    1.0978915   -5.7540408    165.77889   0.04358015  0.045369676            2 
  318000    1.1447099   -5.8329484    165.67942  0.043417039  0.045347992            2 
  319000    1.1377494   -5.7526038    167.37717  0.043724444  0.045327647            2 
  320000    1.0975727   -5.7247253     167.9356   0.04373323  0.045307425            3 
  321000    1.1256589   -5.7286287    168.22352  0.043671734  0.045286952            4 
  322000    1.1486218   -5.8059989    168.24665  0.043542094  0.045266475            2 
  323000    1.1232258   -5.7804276     168.9658  0.043592828  0.045245316            2 
  324000    1.1036372   -5.7889551    169.43557  0.043579108  0.045225169            6 
  325000    1.1138272   -5.7902746    170.48863  0.043715034  0.045205194            4 
  326000    1.1169822   -5.7583165    170.34263  0.043543618  0.045186263            3 
  327000     1.119364   -5.7573909    171.12144   0.04360893  0.045168312            6 
  328000    1.0978077   -5.7877013    171.26673  0.043512888  0.045149627            2 
  329000    1.1225348   -5.7708717    172.13315  0.043600087  0.045129823            4 
  330000    1.1269735   -5.7581203     172.3188  0.043514849  0.045108446            5 
  331000    1.1382452   -5.7790614    172.42804  0.043410885  0.045088324            3 
  332000    1.1087842    -5.756777     173.3273  0.043505849  0.045067308            4 
  333000    1.1214091   -5.7671282    174.58446  0.043689805  0.045049489            7 
  334000    1.1309853     -5.79713    174.53576  0.043546845  0.045032795            2 
  335000    1.0989944    -5.800315    175.29477  0.043605664  0.045015148            2 
  336000    1.1486322   -5.7671107    176.43731  0.043759253  0.044997789            4 
  337000     1.108062   -5.7877859    176.30089   0.04359567  0.044980861            3 
  338000    1.1193118   -5.7691548    176.42584  0.043497495  0.044962231            4 
  339000    1.1051975   -5.7937355      177.228  0.043566372  0.044943147            2 
  340000    1.1280143   -5.7935609    177.72063  0.043558977  0.044927519            4 
  341000    1.1050089   -5.7982064    178.42504  0.043603383  0.044911503            2 
  342000    1.1193342   -5.8138759    178.92865  0.043598599  0.044896106            2 
  343000    1.1365413   -5.8003205    179.15839  0.043527307  0.044880038            3 
  344000    1.1067759   -5.8139834    180.01584  0.043608488   0.04486454            4 
  345000     1.114328   -5.7763208    180.59046  0.043620884  0.044849301            3 
  346000    1.1166891   -5.7805326    180.48204  0.043468699  0.044833481            7 
  347000    1.1500552   -5.8379824    180.65018  0.043383808  0.044818237            3 
  348000    1.1316989   -5.7934415    181.52309  0.043468174  0.044802421            3 
  349000    1.1362771   -5.8388759    181.67782  0.043380569  0.044785631            4 
  350000    1.0948507   -5.8338812     181.9883  0.043330548   0.04476803            3 
  351000    1.0935953   -5.7801925    183.04792  0.043458671  0.044750969            3 
  352000    1.1060942   -5.8021372    183.56745  0.043458203  0.044734219            3 
  353000    1.0949214   -5.8265431    183.21252  0.043251304  0.044717247            4 
  354000    1.1251527   -5.8363975    184.50483  0.043433341  0.044699645            2 
  355000    1.0710042   -5.8106084    184.80505  0.043381467  0.044681789            4 
  356000    1.1457883   -5.8215244     184.6354  0.043219896  0.044663463            3 
  357000    1.1134528   -5.8450267    185.21336  0.043233745  0.044646204            2 
  358000     1.124038   -5.7986571    186.23478   0.04335074  0.044628546            4 
  359000     1.093979   -5.8526376    186.22266  0.043227172  0.044611336            4 
  360000    1.1116176   -5.8028463    186.71341  0.043220696  0.044594498            2 
  361000    1.1009692   -5.8081957     187.2114  0.043215928  0.044576701            2 
  362000    1.1010619   -5.7782593    187.70927  0.043211159  0.044559495            2 
  363000    1.1108551   -5.8379066      187.663  0.043081497  0.044540966            7 
  364000     1.121734   -5.8359359    188.22846  0.043092597  0.044520258            4 
  365000    1.1211773   -5.7745034    189.11809  0.043177646   0.04450134            4 
  366000    1.1196373    -5.813124    189.01175  0.043035462  0.044481478            4 
  367000    1.0959849   -5.8002442    189.55438  0.043041412  0.044460996            3 
  368000    1.1374372   -5.8191736    190.25988  0.043084212  0.044442224            2 
  369000    1.1141344   -5.8335827    190.34908  0.042987597  0.044423658            3 
  370000    1.0830695   -5.8362836    190.14323  0.042825051  0.044404121            1 
  371000    1.0976541   -5.8343475    191.85405  0.043093901  0.044385464            2 
  372000    1.1015865   -5.8380733    192.41375  0.043103437  0.044365433            3 
  373000      1.10165   -5.8039936    192.45624  0.042997373  0.044344661            1 
  374000    1.1031537   -5.8439557    192.46206  0.042883704  0.044324105            1 
  375000    1.0973966   -5.8327191    191.96466  0.042658813  0.044302347            3 
  376000    1.1150234   -5.8069089    193.54215  0.042894981  0.044281287            4 
  377000    1.1281461   -5.7849518    194.23633  0.042934643  0.044260887            2 
  378000    1.0985509   -5.7797178    194.71252  0.042926041  0.044241346            4 
  379000    1.0865068   -5.8435011    194.60288  0.042788672  0.044220857            6 
  380000    1.1059671   -5.8258491    195.45639  0.042863243   0.04420076           12 
  381000    1.1106641   -5.8376812    195.63519   0.04278985  0.044180507            6 
  382000    1.1123472   -5.8250378     195.7219  0.042696749  0.044159504            3 
  383000    1.1013225   -5.8494642    195.67705  0.042575511  0.044138686            4 
  384000    1.0932633   -5.8441968    195.82256  0.042496215  0.044116484            3 
  385000    1.1124085   -5.8081716    198.08758    0.0428761   0.04409528            4 
  386000    1.0855058   -5.8267562    197.77567  0.042697683  0.044074225            2 
  387000    1.1132498   -5.8538885    197.39126  0.042504577  0.044053145            3 
  388000     1.088187   -5.8229161    198.22067  0.042573167  0.044031987            4 
  389000    1.0845376   -5.8450434    198.34598  0.042490569  0.044010335            5 
  390000    1.0781191    -5.868055    198.73671  0.042465109  0.043987075            3 
  391000    1.1027865   -5.8420752    199.43403  0.042505121  0.043963899            4 
  392000    1.1192463    -5.786585    199.79472  0.042473368  0.043941519            2 
  393000    1.0913289    -5.836916    199.51804  0.042306624   0.04391821            5 
  394000    1.0836547   -5.8203296    201.08851   0.04253141  0.043895528            4 
  395000    1.1211943   -5.8751025    200.58528  0.042317569  0.043873157            5 
  396000    1.0984114   -5.8856701    201.84478  0.042475753  0.043852122            9 
  397000    1.0942627   -5.8590017    201.24271  0.042242382  0.043830163            3 
  398000    1.1105604   -5.8273753    202.74483  0.042450761  0.043807122            3 
  399000    1.1122817   -5.8316501    202.68323  0.042331503   0.04378397            4 
  400000    1.0743827   -5.8217647    203.54317  0.042404827  0.043762194            3 
  401000    1.1146744   -5.8242809    204.07588  0.042409784  0.043741338            4 
  402000     1.094646   -5.8566733    204.44248  0.042380282  0.043720149            2 
  403000    1.0824998      -5.8412    204.60699  0.042309137  0.043698167            2 
  404000    1.0973056   -5.8444077    205.22638  0.042332173  0.043676955            5 
  405000    1.1078415   -5.8717173     204.8524  0.042150699  0.043653171            6 
  406000    1.0861104   -5.8569302    205.96303  0.042274841  0.043630614            4 
  407000    1.0960443   -5.7912468    206.31237    0.0422425  0.043608498            3 
  408000    1.1019412    -5.842166    206.23241  0.042122633  0.043586017            2 
  409000    1.0977217   -5.8944541    205.53828  0.041878215   0.04356369            3 
  410000    1.0907932     -5.88353    206.74693  0.042021733  0.043539634           11 
  411000     1.106184   -5.8267557    208.43696  0.042262157  0.043516263            2 
  412000    1.0928396    -5.817835    208.27145  0.042126101  0.043493465            3 
  413000    1.1004512   -5.8804863    207.81635  0.041932273  0.043469674            2 
  414000    1.1117567    -5.833289    208.25289  0.041918859  0.043446101            2 
  415000    1.0845474   -5.8318752    209.05488  0.041978891  0.043422553            4 
  416000    1.0762058   -5.8459644    209.07547  0.041882106  0.043397733            5 
  417000    1.1089306   -5.8445423    209.07669  0.041781912   0.04337203            2 
  418000    1.0942121   -5.8220812    210.00243  0.041866513  0.043346426            2 
  419000    1.0897378    -5.879968    209.73931  0.041714262  0.043319714            9 
  420000    1.0910534   -5.8853262    209.95779  0.041658292  0.043293948            3 
  421000    1.0667741   -5.8806907    210.58949   0.04168438  0.043267693            4 
  422000     1.104186   -5.8798725    210.54855  0.041577518  0.043240961            2 
  423000    1.0844149   -5.8286097    211.71953  0.041709915  0.043215765            2 
  424000    1.0810527   -5.8759547    212.19701  0.041705388  0.043191544            3 
  425000    1.0923298   -5.8648577    212.58459  0.041683254  0.043167758            2 
  426000      1.10251   -5.8908097    213.09937  0.041686106  0.043143943            3 
  427000    1.0739129   -5.9046436     214.4501  0.041852088  0.043120836            4 
  428000    1.0654582   -5.8701023    215.11045  0.041882876  0.043099141            1 
  429000    1.0780778   -5.8526191    215.62229  0.041884671  0.043076948            3 
  430000    1.0664361   -5.8949855    214.76559  0.041621238  0.043054064            4 
  431000    1.0795055   -5.8326094    216.17227  0.041796649  0.043032019            7 
  432000    1.0762187   -5.8950327    216.50817  0.041764694  0.043011002            4 
  433000    1.0964572   -5.8940621    216.79936  0.041724281    0.0429892            2 
  434000    1.0860352   -5.8399082    216.98919  0.041664591  0.042967313            2 
  435000    1.0758523   -5.8778175    217.91083  0.041745369  0.042945963            3 
  436000    1.0759569   -5.8707031    218.21269  0.041707318  0.042924499            5 
  437000    1.0907659   -5.8599393    218.12975  0.041596062  0.042901575            3 
  438000    1.0303458   -5.8760831    218.66231  0.041602417  0.042878959            4 
  439000    1.0844559   -5.8858065    219.26884  0.041622787  0.042856748            5 
  440000      1.09295   -5.8969455     218.8527  0.041449375  0.042834503            5 
  441000    1.1080937   -5.8299117    219.60169  0.041496919  0.042811462            2 
  442000    1.0651941   -5.8349041    221.39156   0.04174049  0.042788707            2 
  443000    1.0811308   -5.8802078    220.58604  0.041494741  0.042766009            3 
  444000    1.0475682   -5.9091916    220.96854  0.041473074  0.042744124            3 
  445000    1.0585618   -5.8840937    221.58034  0.041494445  0.042721162            3 
  446000    1.0775676   -5.9121501    222.13335  0.041504737  0.042699163            3 
  447000    1.0767463   -5.8818176    221.79775  0.041349319  0.042676093            2 
  448000    1.0851968   -5.8889821    222.42589  0.041373863  0.042653654            2 
  449000    1.0994592   -5.8854599     222.4319  0.041282833  0.042630574            2 
  450000    1.1011716    -5.863785     223.2061  0.041334463  0.042607105            5 
  451000     1.074745   -5.8784141     223.5478   0.04130595   0.04258387            2 
  452000    1.0749515   -5.9040316    223.37786  0.041183234  0.042560215            3 
  453000    1.0893947   -5.9083487    223.82982  0.041175463  0.042536598            4 
  454000     1.093378   -5.8751602    224.85029  0.041272079   0.04251396            2 
  455000    1.0716788   -5.9326281    224.76183  0.041165169  0.042491185            1 
  456000    1.0564407   -5.9097451    225.24286  0.041162803  0.042468826            1 
  457000    1.0764871   -5.9061113    226.43921  0.041290884  0.042446593            3 
  458000    1.0658851   -5.8802926    226.92387  0.041288914  0.042425004            4 
  459000    1.0623101   -5.8924791    227.45555  0.041295489  0.042403695            2 
  460000    1.0823189   -5.9098096    227.72958  0.041255358  0.042381873            4 
  461000    1.0776581   -5.8324012     228.4463  0.041295427  0.042360773            4 
  462000    1.0748598   -5.8950166     228.1131  0.041145942  0.042339235            6 
  463000    1.0849562   -5.9422352    228.21997  0.041076309  0.042316085            2 
  464000    1.0625324   -5.9142552    228.27842  0.040998279   0.04229405            4 
  465000    1.0754611    -5.950169    229.00399  0.041040141  0.042272046            4 
  466000    1.0705636   -5.8956456    229.65229  0.041068005  0.042250003            4 
  467000    1.0750423    -5.879744    229.71565  0.040991372  0.042226414            4 
  468000    1.0446467   -5.8927444    230.09181  0.040970764  0.042203129            2 
  469000    1.0571113   -5.8814617     231.2115  0.041082357  0.042181154            2 
  470000    1.0615466   -5.9570634    230.75734  0.040914423  0.042159173           10 
  471000    1.0652474   -5.8926391    231.91479  0.041032342  0.042136614            6 
  472000    1.0773692   -5.9046841    232.42278  0.041035095  0.042114094            4 
  473000    1.0735157   -5.9238593    231.65183  0.040812514  0.042090044            6 
  474000    1.0949229   -5.9279498    232.28748  0.040838164  0.042067284            2 
  475000    1.0660891   -5.9262183    232.70318  0.040825119  0.042043866            4 
  476000    1.0643699   -5.9363826    233.75114  0.040922819  0.042021077           10 
  477000    1.0556311    -5.923272    233.46094  0.040786327  0.041997859            2 
  478000    1.0627758   -5.8953449    234.68929  0.040915148  0.041975356            3 
  479000    1.0844282   -5.9119481    234.95895  0.040876644  0.041952562           11 
  480000     1.042644   -5.9034096    234.61838  0.040732357  0.041929497            4 
  481000    1.0749381   -5.9468099    234.45052  0.040618593  0.041906042            9 
  482000    1.0535644   -5.8991118    235.30085  0.040681337  0.041882378            2 
  483000    1.0693484   -5.9248702     234.6656  0.040487508  0.041858335            5 
  484000    1.0227038   -5.8811951    236.28103  0.040681996  0.041834343            3 
  485000    1.0472431   -5.9195751    235.93468  0.040538605  0.041811002            3 
  486000    1.0433742   -5.9491119     235.7607  0.040425361  0.041786649            8 
  487000    1.0494752    -5.898721    237.47693  0.040636026  0.041762784            4 
  488000    1.0444247   -5.9517249    236.40633  0.040369933  0.041738975            2 
  489000    1.0497698   -5.9485328    237.06647  0.040399876  0.041714167            2 
  490000    1.0649589   -5.9481368    237.39847   0.04037389  0.041690077            3 
  491000    1.0611325   -5.8934257    238.85031   0.04053807  0.041666278            3 
  492000    1.0591207   -5.9745556    237.02756  0.040146944  0.041641528            4 
  493000    1.0391276   -5.9420623    238.01684  0.040232732  0.041615765            4 
  494000    1.0432874   -5.9110084    239.07349  0.040329535  0.041590128            3 
  495000     1.045383   -5.9801157    238.54482   0.04015906  0.041564649            4 
  496000    1.0556499   -5.8978875    240.43915  0.040396363  0.041539273            1 
  497000     1.046562   -5.9122439     240.2281  0.040279695  0.041514767            4 
  498000    1.0542687   -5.9488679    240.11536  0.040179947  0.041489482            3 
  499000    1.0524673   -5.9451619    240.42209  0.040150649  0.041464991            5 
  500000    1.0602907   -5.9624589    240.98267  0.040163779  0.041440456            2 
  501000    1.0547617   -5.9558884    241.76974  0.040214528  0.041416236            2 
  502000    1.0324794   -5.9612619    240.87579  0.039986021   0.04139145            3 
  503000    1.0572063   -5.8985555    242.61397  0.040194494  0.041366632            3 
  504000    1.0598022   -5.9493125    241.57223  0.039942499    0.0413419            4 
  505000    1.0882241    -5.925805     243.5892  0.040196237  0.041317542            3 
  506000    1.0509039   -5.8926189    244.29293  0.040232697  0.041292524            4 
  507000    1.0579601   -5.9292431    244.30115  0.040154692  0.041267931            6 
  508000     1.063588    -5.944371     243.9146  0.040012238  0.041242975            3 
  509000    1.0484342   -5.9593451    244.22706  0.039984784  0.041217538            2 
  510000    1.0232317   -5.9687376    243.83642  0.039842553  0.041192715            2 
  511000    1.0541647   -5.9689193    245.24237  0.039993863  0.041167114            2 
  512000    1.0522492   -5.9352888    245.29015  0.039923527  0.041141536            3 
  513000    1.0745019   -5.9371439    245.60241  0.039896427  0.041116639            2 
  514000    1.0198333    -5.973936    246.49552  0.039963606  0.041091861            4 
  515000    1.0574163   -5.9438448    245.88267  0.039786839  0.041066624            5 
  516000    1.0431595   -5.9354824    246.84998  0.039865952  0.041041218            2 
  517000    1.0677454   -5.9637943    246.40127  0.039716516  0.041015851            4 
  518000     1.036761   -5.9691338    247.03522  0.039741831  0.040990003            3 
  519000    1.0474856   -5.9287854    247.98854  0.039818326  0.040965038            5 
  520000    1.0538972   -5.9584872    247.74991   0.03970351  0.040940021            3 
  521000    1.0260786   -5.9478756    248.17786  0.039695755  0.040915723            4 
  522000     1.070146   -5.9411648    248.25387  0.039631843  0.040890261            3 
  523000    1.0306474   -5.9596245    249.07405  0.039686751  0.040865092            2 
  524000    1.0471504   -5.9729966    249.02323  0.039602931  0.040840026            3 
  525000    1.0378213   -5.9790408    248.52485  0.039448388   0.04081528            3 
  526000    1.0335243   -5.9364166    250.09757  0.039622555  0.040790663            4 
  527000    1.0384081   -5.9631397    250.41394  0.039597397  0.040766362            3 
  528000    1.0498795   -5.9566267     250.9788  0.039611553  0.040741578            3 
  529000    1.0218408   -5.9334045    251.33448  0.039592704  0.040717101            5 
  530000    1.0453698    -5.951358     252.0394  0.039628837  0.040692673            2 
  531000    1.0271356   -5.9675749    252.37065  0.039606191  0.040667881            4 
  532000    1.0324925   -5.9124213    252.39724  0.039535909  0.040643409            6 
  533000    1.0577802   -5.9895478    251.93165  0.039388938  0.040618347            3 
  534000    1.0260266   -5.9373827    252.61362  0.039421601  0.040592785            2 
  535000     1.008905   -5.9780522    252.02007  0.039255463  0.040566853            4 
  536000    1.0444383   -5.9761802    251.79907  0.039147865   0.04054031            2 
  537000    1.0454876   -5.9985234    252.63685  0.039204973  0.040513851            3 
  538000    1.0393187   -5.9788589    253.01425  0.039190558  0.040487618            2 
  539000    1.0532016    -5.975248    253.16915  0.039141798  0.040461429            7 
  540000    1.0545497   -6.0044543    252.22357  0.038923391  0.040433541            3 
  541000    1.0299728   -5.9290658    253.84606  0.039101365  0.040405785            3 
  542000    1.0559308   -5.9432362    253.59537  0.038990678  0.040378375            3 
  543000     1.025992   -5.9903778    254.74524   0.03909534  0.040350513            4 
  544000    1.0487336    -5.984374    254.68087  0.039013614  0.040322928            2 
  545000    1.0251565   -5.9959371    254.17578  0.038864798  0.040294972            3 
  546000     1.021716   -5.9848894    256.01368  0.039074127   0.04026716            2 
  547000    1.0438067    -5.994235    255.22684  0.038882821   0.04024006            2 
  548000    1.0202875   -5.9883445    256.24841  0.038967216  0.040212731            4 
  549000    1.0195118   -5.9958944    255.31406  0.038754411  0.040185005            2 
  550000    1.0196973   -5.9558832    256.69704  0.038893491  0.040158037            4 
  551000    1.0364057   -5.9843966    255.61719  0.038659586  0.040130454            4 
  552000    1.0178817   -6.0018462     256.8392  0.038774033  0.040103026            4 
  553000    1.0237524   -5.9731116    257.16881  0.038753588  0.040075434            3 
  554000    1.0556798   -5.9727696    257.63007  0.038753018  0.040048075            2 
  555000    1.0539781   -5.9994902    257.16467  0.038613314   0.04002013            7 
  556000    1.0218348   -5.9787005    257.93174  0.038658833  0.039992207            4 
  557000    1.0298582   -6.0109957    258.33974  0.038650469  0.039963934            3 
  558000    1.0220848   -5.9964201    258.81992  0.038652915  0.039936331            3 
  559000    1.0476512    -5.977287    259.54601   0.03869201  0.039909326            4 
  560000    1.0452557   -5.9717691    258.94317  0.038533209  0.039882067            4 
  561000    1.0208329   -6.0149441    259.22867  0.038506933  0.039854266            5 
  562000    1.0181574   -6.0199025    259.04298  0.038410881  0.039826687            2 
  563000    1.0267059   -5.9845127    260.22848  0.038518129  0.039799469            4 
  564000    1.0256712   -5.9936448    260.55073  0.038497448  0.039772016            4 
  565000    1.0334295   -6.0013254    261.65758  0.038592563  0.039744986            3 
  566000    1.0523936   -5.9674708    262.00064  0.038574888  0.039718479            5 
  567000    1.0463271    -5.976662    262.04642  0.038513583  0.039691914            3 
  568000    1.0330193    -5.993309    261.97512  0.038435317  0.039665004            5 
  569000    1.0255323   -5.9770122    262.81524  0.038490809  0.039638068            3 
  570000    1.0115796   -5.9864882    262.33602   0.03835322  0.039611193            3 
  571000    1.0380627   -6.0027729    262.29525    0.0382801   0.03958399            3 
  572000    1.0147982    -6.040639    262.49386  0.038242113  0.039556026            2 
  573000    1.0178478   -5.9992775    263.00621  0.038249885  0.039528556            7 
  574000     1.020452   -5.9729332    263.82245   0.03830175   0.03950142            5 
  575000    1.0397809   -6.0529996    262.99454  0.038115151  0.039474332            4 
  576000    1.0234682   -6.0105188    264.77328  0.038306319  0.039446947            7 
  577000    1.0023517   -6.0118721    264.05281  0.038135876   0.03941948            4 
  578000    1.0082177   -6.0199397    264.62948  0.038153039  0.039392797            2 
  579000    1.0215528   -6.0022533    265.09118  0.038153595  0.039365729            4 
  580000    1.0403948   -5.9823975    265.81544  0.038191874  0.039338549            4 
  581000    1.0277241   -5.9848236    265.46843  0.038076366   0.03931089            3 
  582000   0.99532547   -5.9938726    266.02713  0.038090941  0.039283568            4 
  583000    1.0182273   -6.0046622    265.33246  0.037926309  0.039255219            4 
  584000     1.046552   -6.0400627    264.85131   0.03779271  0.039226671            8 
  585000    1.0063971     -6.04491    266.07842  0.037902909  0.039198876            2 
  586000    1.0193822   -6.0317735    266.54992  0.037905278  0.039170527            5 
  587000    1.0206033   -5.9859543    267.18375  0.037930686  0.039142774            4 
  588000    1.0061856   -6.0404616    266.30475  0.037741602  0.039114825            3 
  589000    1.0359662   -6.0257457    267.23123  0.037808607  0.039087042            5 
  590000    1.0180211   -6.0004837    268.02397  0.037856493  0.039059581            4 
  591000    1.0115881   -6.0306224    268.37559  0.037842018  0.039032696            3 
  592000    1.0515238    -6.026637    268.98132  0.037863362  0.039005731            7 
  593000    1.0034951   -6.0238501    269.18975  0.037828801  0.038978389            4 
  594000    1.0387335   -6.0514508    269.88575   0.03786276  0.038951647            2 
  595000     1.006166   -6.0209202    269.14574  0.037695482  0.038924561            6 
  596000    1.0218829   -5.9952776    270.75754  0.037857597  0.038897889            3 
  597000    1.0065507   -6.0262559     270.6946  0.037785399   0.03887116            3 
  598000    1.0220177    -5.991254    271.14963  0.037785623  0.038844839            2 
  599000    1.0153502   -6.0490722    271.45234  0.037764655  0.038818594            3 
  600000    1.0142438   -6.0456997    271.29316  0.037679606  0.038792222            5 
  601000    1.0254421   -6.0081574    272.00175  0.037715162  0.038765981            3 
  602000    1.0102373   -6.0488647    271.73061  0.037614979   0.03873969            5 
  603000    1.0044716   -6.0390804    272.32424  0.037634638  0.038713667            4 
  604000    1.0145244    -5.970037    273.66154  0.037756834  0.038688293            5 
  605000    1.0253427    -6.025325    273.86964  0.037723091  0.038663131            5 
  606000    1.0216635   -6.0134192     274.2491  0.037713022  0.038637725            3 
  607000    0.9994828   -6.0322912    273.92797  0.037606805   0.03861245            2 
  608000   0.98962524   -6.0305551    274.39399  0.037608825  0.038587298           10 
  609000    1.0052041   -6.0233161    274.69104  0.037587717  0.038561887            5 
  610000    1.0166098   -6.0553012    274.29968  0.037472633  0.038536031            3 
  611000    1.0070546   -6.0367126     275.1394  0.037525832  0.038510272            3 
  612000    1.0138217   -6.0214442    274.99629  0.037445028  0.038484383            3 
  613000    1.0087515   -5.9906088    275.96032  0.037514997   0.03845901            5 
  614000    1.0120905   -6.0321538     275.8688  0.037441476  0.038432788            3 
  615000   0.99044534   -6.0409364    275.98606  0.037396484  0.038406839            4 
  616000    1.0043722   -6.0422815    276.32948  0.037382235   0.03838053            3 
  617000    1.0152669   -6.0184349    276.63283  0.037362619   0.03835479            7 
  618000    1.0034613   -6.0854152     275.3634  0.037130987  0.038328873            2 
  619000   0.99303323   -6.0681876    277.59179     0.037371  0.038302859            3 
  620000    1.0076637   -6.0695432    277.50826  0.037299497   0.03827748            3 
  621000      1.00351   -6.0820991    277.65711  0.037259409  0.038252646            2 
  622000   0.99848982   -6.0258607    279.36552  0.037428393  0.038227633            2 
  623000   0.98797632   -6.0257817    278.71742  0.037281624  0.038202313            5 
  624000    0.9654436    -6.058135    279.64884  0.037346266  0.038176733            2 
  625000   0.99493614   -6.0276698    279.55198  0.037273598  0.038151147            3 
  626000   0.98133642   -6.0431407    279.30946  0.037181771  0.038125666            2 
  627000   0.97367985   -6.0567871    280.11773  0.037229895  0.038100515            4 
  628000   0.98065947   -6.0265212    281.14055  0.037306336  0.038075426            4 
  629000    1.0043649   -6.0858667    280.23361   0.03712687  0.038050299            4 
  630000   0.99780015   -6.0399716    281.86834  0.037284172  0.038024981            3 
  631000    1.0191614   -6.0728847    281.30169  0.037150249  0.038000326            3 
  632000   0.99498637   -6.0574463    282.36525  0.037231705  0.037975503            6 
  633000    1.0056012   -6.0705951    281.35906  0.037040424  0.037950572            5 
  634000   0.99899726   -6.0898493    280.68281  0.036893114  0.037924735            9 
  635000    1.0065193   -6.0439544    282.37367  0.037056913  0.037899528            3 
  636000   0.97264337   -6.0806927    281.53684  0.036888999  0.037874365            8 
  637000   0.99383914   -6.0738799    282.43013   0.03694795  0.037849126            4 
  638000   0.99268343   -6.0530193    282.61861  0.036914657  0.037823429            2 
  639000   0.98901804   -6.0575707    282.91449  0.036895473  0.037797689            2 
  640000    1.0003104   -6.0827612     282.8305  0.036826889   0.03777182            5 
  641000     1.009954    -6.047571    282.00824  0.036662537  0.037745867            6 
  642000   0.99372198   -6.0621393    283.39387  0.036785289  0.037720311            5 
  643000    1.0280152   -6.0401037    283.35415  0.036722933  0.037694474            2 
  644000   0.98267667   -6.1076414    283.84014  0.036728796  0.037668674            3 
  645000    1.0042859   -6.0959244    283.39774  0.036614695  0.037642256            8 
  646000   0.98670026   -6.0278519    284.61801   0.03671543  0.037616354            4 
  647000   0.98991765   -6.0651388    284.65285   0.03666317  0.037590944            7 
  648000    1.0081098    -6.087474    285.04551  0.036657088  0.037565092            6 
  649000   0.97789527    -6.096867    284.03246  0.036470527  0.037539286            6 
  650000   0.98607294   -6.0492293    285.13851   0.03655622  0.037513034            5 
  651000    1.0055095   -6.0720768     286.2525  0.036642665  0.037487003            4 
  652000    1.0111486   -6.0533788    286.40255  0.036605643  0.037461179            4 
  653000   0.96838165   -6.0764043    286.01221  0.036499771  0.037435375            5 
  654000   0.97766886   -6.0590825    286.15224  0.036461804  0.037409739            3 
  655000   0.99285088   -6.0642489    286.39551  0.036437088  0.037384215            3 
  656000    1.0017063   -6.0360984    287.23489  0.036488173  0.037358628            3 
  657000    1.0108813   -6.1106744    286.97918  0.036400201  0.037332615            7 
  658000   0.99656743   -6.1053708    286.40256  0.036271854  0.037307172            5 
  659000     0.983955   -6.0994618      287.644  0.036373799  0.037281321            3 
  660000   0.99265125   -6.0938846    287.42674  0.036291256  0.037255892            5 
  661000    1.0042408   -6.0984141    288.69529   0.03639628  0.037230609            7 
  662000   0.95751608    -6.081397    288.03311  0.036257945  0.037205645            4 
  663000   0.96343879   -6.0923557    289.26498  0.036358092  0.037180685            2 
  664000   0.98016774   -6.1015738    289.89938  0.036382955  0.037155941            2 
  665000   0.99370733   -6.0961425    290.46434   0.03639904  0.037131467            3 
  666000   0.97031391   -6.0881077    290.27965  0.036321278  0.037107298            2 
  667000   0.98336158    -6.070473    290.77224  0.036328366  0.037082777            3 
  668000   0.96131049   -6.1106453    290.22109  0.036205226  0.037058147            6 
  669000   0.98663033   -6.0736285    291.71496   0.03633719  0.037033592            4 
  670000   0.98110308   -6.0953423    291.24052  0.036223946  0.037008881            6 
  671000   0.97292919   -6.1029011    291.20936   0.03616609  0.036984075            5 
  672000   0.97037425   -6.1052678    293.03477  0.036338637  0.036959863            7 
  673000   0.99186408   -6.0900259    291.21989  0.036059917  0.036934857            3 
  674000   0.97325295   -6.0863448    293.34409  0.036269051  0.036910184            4 
  675000   0.99483033   -6.0872785    293.07722  0.036182373  0.036885601            2 
  676000   0.98617081    -6.113667    292.41167  0.036046804  0.036861095            3 
  677000    1.0071599   -6.0603568    293.50915   0.03612865  0.036836857            9 
  678000   0.97262943   -6.1145378    292.67121  0.035972371  0.036811819            3 
  679000   0.98162746   -6.1251448    292.78774  0.035933694  0.036786892            4 
  680000   0.98824808   -6.0969113     293.8472  0.036010687  0.036761702            4 
  681000   0.97299876   -6.0911666    293.91366   0.03596594   0.03673668            2 
  682000   0.97893198   -6.0819591    294.10027  0.035936005  0.036712607            7 
  683000   0.99539184   -6.1216689    293.58206  0.035820163  0.036688058            5 
  684000    1.0010562   -6.1382541    294.08505  0.035829076  0.036663286           15 
  685000   0.98435667   -6.1102549    295.99529  0.036009159  0.036638492            5 
  686000   0.98962947    -6.115324    295.09908  0.035847799   0.03661383            2 
  687000    1.0005869   -6.1143487     294.7099   0.03574841  0.036588995            4 
  688000    0.9732274   -6.1446575    294.69473  0.035694613  0.036563994            4 
  689000     0.977625   -6.0983407    296.59591  0.035872752  0.036539076            5 
  690000   0.94977023   -6.0969186    296.27821  0.035782393  0.036514429            5 
  691000   0.96110059   -6.1422926    296.32797   0.03573661    0.0364898            4 
  692000   0.96495766   -6.0495528    297.65001  0.035844173  0.036465287            6 
  693000   0.98678015   -6.1299182    296.63104  0.035669918   0.03644088            7 
  694000    0.9681831   -6.1175877    297.44172  0.035715864  0.036416883            3 
  695000   0.96502922   -6.1035856    297.78728  0.035705909  0.036392507            2 
  696000   0.98244038   -6.1030831    298.22379  0.035706871  0.036368436           11 
  697000   0.95964866   -6.1013612    298.16102  0.035648137  0.036344162            5 
  698000   0.98477542   -6.1237793    297.81586  0.035555857  0.036319927            3 
  699000   0.97771101   -6.1120126    298.61988  0.035600844   0.03629591            8 
  700000   0.96989024    -6.122485     299.9173  0.035704441  0.036272129            4 
  701000   0.96621921    -6.129854    299.74725  0.035633292  0.036247679            6 
  702000    1.0168118   -6.1262224    299.83658  0.035593137  0.036223504            5 
  703000   0.98496971   -6.1358757    298.59506  0.035395336  0.036199135           11 
  704000   0.96877759   -6.1460817    299.86952  0.035495918  0.036174648            4 
  705000   0.96164652   -6.1557931    299.76168  0.035432823  0.036149788           10 
  706000   0.97051881    -6.139576    299.91598  0.035400848  0.036125271            5 
  707000   0.95902959   -6.1804242    299.67766  0.035322685  0.036100528           11 
  708000   0.98624068   -6.0990025     300.9212  0.035419162  0.036075789            3 
  709000   0.96533399   -6.1381148    300.30261  0.035296498  0.036051223            3 
  710000   0.95404661    -6.147029    299.89141  0.035198522  0.036026587            4 
  711000   0.97065715   -6.1329948    300.88347  0.035265292  0.036001777            3 
  712000   0.96916535    -6.128774    301.63073  0.035303222  0.035977564            4 
  713000   0.97107708   -6.1260418    302.08833  0.035307192  0.035953229            6 
  714000   0.97147789   -6.1381815     301.8804  0.035233474  0.035928898            2 
  715000   0.94702866   -6.1261086    302.59897  0.035267946  0.035904687            2 
  716000   0.97470501   -6.1540252    301.99632  0.035148547  0.035880045            5 
  717000   0.96772581   -6.1392588    302.41715  0.035148437  0.035855907            6 
  718000   0.97655968   -6.1467857    302.57566  0.035117881  0.035831797            4 
  719000   0.98202933   -6.1178499    303.16708  0.035137585  0.035807526            2 
  720000   0.98593724   -6.1295561    303.46715  0.035123513  0.035783223           10 
  721000   0.97200363   -6.1644012    302.83881  0.035002174  0.035758594            7 
  722000   0.95895153   -6.1302096    304.07092  0.035095905  0.035734355            4 
  723000    0.9668611   -6.1387655    303.13129  0.034939061  0.035709968            2 
  724000   0.97359567   -6.1331267    303.74723  0.034961698  0.035685725           11 
  725000   0.97912343   -6.1462767    303.89565  0.034930534  0.035661072            8 
  726000   0.93370468   -6.1419134    304.62579   0.03496623  0.035636333            6 
  727000    0.9716173   -6.1467742    304.62068  0.034917547  0.035611368            2 
  728000   0.94571071   -6.1260148    305.27215  0.034944156   0.03558654            2 
  729000   0.95766158    -6.140199    305.06047  0.034872024  0.035561531            7 
  730000   0.96402466   -6.0990535    305.39726  0.034862701  0.035536702            3 
  731000   0.97446618   -6.1658076    303.29357   0.03457519   0.03551138           10 
  732000   0.94115696   -6.1398944    305.06116  0.034729185  0.035486403            3 
  733000   0.93892765   -6.2008082    303.62139  0.034518121  0.035461169            5 
  734000   0.96982863   -6.1805789    304.65434  0.034588367   0.03543582            6 
  735000   0.95427125   -6.1561645    305.57092  0.034645229  0.035410334            6 
  736000   0.97288902   -6.1842367    305.49167  0.034589184  0.035385112            3 
  737000   0.94362177   -6.1313124     307.0739  0.034721155  0.035360225            4 
  738000   0.94893656   -6.1495798    306.37965  0.034595714  0.035335122            2 
  739000   0.97525071   -6.1814084    307.09175  0.034629201  0.035309842            3 
  740000   0.95916056   -6.1720741    306.76123  0.034545183  0.035284899            3 
  741000   0.97761479   -6.1516655    306.93581  0.034518197   0.03525958            4 
  742000   0.94221159    -6.132785    308.97055  0.034700196  0.035235021            3 
  743000   0.97623113    -6.143304    307.57794  0.034497301  0.035210422            5 
  744000     0.964764   -6.1528548    308.67968  0.034574336  0.035185807            7 
  745000   0.96364982   -6.1848145    307.74158  0.034422995   0.03516114            4 
  746000   0.96215845   -6.1708957    309.03808   0.03452168  0.035136421            5 
  747000   0.93836223   -6.1323708    309.24895   0.03449899  0.035111903           11 
  748000   0.96322815   -6.1990161    309.05427   0.03443118   0.03508742            7 
  749000   0.96087527    -6.155584    309.41615  0.034425472  0.035062954            5 
  750000   0.96387357   -6.1501323    309.68238  0.034409153  0.035038554            4 
  751000   0.95573697   -6.1674943    309.65768  0.034360595  0.035014719            5 
  752000   0.93828425   -6.1439586    309.94027  0.034346218  0.034990254            3 
  753000   0.96702609    -6.200474    310.52322  0.034365119  0.034965894            2 
  754000   0.95007697   -6.1730355    311.55411  0.034433478  0.034941743            4 
  755000   0.93666279   -6.1821339    311.12423  0.034340423  0.034917641           12 
  756000   0.93432029   -6.1727649    311.90701  0.034381284  0.034893302            6 
  757000   0.95113281   -6.1889693    311.02935  0.034239251  0.034869303            7 
  758000   0.94423937   -6.1845691    312.00555  0.034301401  0.034844795            2 
  759000   0.94135302   -6.1855247    311.26768  0.034175196  0.034820337            6 
  760000   0.95406471   -6.1845205    311.86497   0.03419572  0.034795927            3 
  761000   0.94697531   -6.1679026    312.58148  0.034229247  0.034771878            3 
  762000   0.94271291   -6.1979571    312.56169  0.034182162  0.034747947            5 
  763000   0.95135372    -6.205004    312.33059  0.034112122  0.034723618            4 
  764000   0.94559927    -6.212281    312.62741  0.034099848  0.034699128            4 
  765000   0.94464363   -6.1911064    313.08473  0.034105091  0.034674905            8 
  766000   0.96615413   -6.1722719    313.32861  0.034087098  0.034650708            4 
  767000   0.95840465   -6.1913039    313.53921  0.034065538  0.034626768            3 
  768000   0.96089613    -6.208417    312.56257   0.03391521  0.034602763            4 
  769000   0.94257172   -6.2035773    313.53504  0.033976489  0.034578577            6 
  770000   0.93452546   -6.1739387    314.35241  0.034020823   0.03455465            4 
  771000   0.95306582   -6.1730165    314.20526  0.033960794  0.034530504            2 
  772000   0.95594224   -6.1753645    315.39061  0.034044755  0.034506732            8 
  773000   0.93542483   -6.2051973    315.37025  0.033998518  0.034482695            4 
  774000   0.93373162   -6.2084373    314.48808  0.033859613  0.034458539            8 
  775000   0.97153578   -6.1507882    314.71547  0.033840373  0.034434206            2 
  776000   0.94229944   -6.2165136    314.81777  0.033807751  0.034409796            5 
  777000   0.94655029   -6.2475684    314.83153  0.033765716  0.034385311            4 
  778000   0.96372169   -6.2225575     314.4445  0.033680859   0.03436052            6 
  779000   0.92890703   -6.1875077    315.75499  0.033777813  0.034336049            7 
  780000    0.9469011   -6.1941622    316.20672  0.033782769  0.034311918            5 
  781000   0.93233127   -6.1773127    317.72483  0.033901497  0.034288084            6 
  782000   0.92834396   -6.2251734    316.08775   0.03368369  0.034264225            8 
  783000   0.93649153   -6.2069349    316.26765  0.033659818  0.034240125            5 
  784000   0.94634599   -6.2064306    316.97565  0.033692139  0.034216094           10 
  785000   0.92315908   -6.1975219    316.97623  0.033649282  0.034192379            3 
  786000   0.93648105   -6.1809421    318.17799  0.033733884  0.034168486            5 
  787000   0.94589656   -6.1757286    318.61854  0.033737669  0.034144832           13 
  788000   0.94304609   -6.2281426    316.84758   0.03350757  0.034121152            4 
  789000   0.94868112   -6.2213396    317.17602  0.033499791  0.034097756            4 
  790000    0.9437825   -6.2221343    317.65496  0.033507908  0.034073933            2 
  791000   0.92986013   -6.2075563    318.04977   0.03350714  0.034050398            6 
  792000   0.93579547   -6.1952657    318.95393  0.033559968  0.034026909            5 
  793000   0.95587607   -6.2309596    318.53348  0.033473464  0.034003456            2 
  794000   0.91716654   -6.1989915    319.55649  0.033538675  0.033979799            4 
  795000   0.94683912   -6.1797412    319.93539  0.033536204  0.033956044            7 
  796000   0.93405154   -6.1954079    319.15642  0.033412523  0.033932478            5 
  797000   0.93356152   -6.2253342     319.1729  0.033372323  0.033908759            5 
  798000   0.94043657   -6.2481987    319.98638  0.033415454   0.03388499            6 
  799000   0.92926401   -6.2004304    318.79128  0.033248987  0.033861078            4 
  800000   0.95172652   -6.2404274    319.96966  0.033330172  0.033837227           10 
  801000   0.94473513   -6.2250523    319.90813  0.033282161   0.03381348            9 
  802000   0.93105025   -6.2371052    319.10562  0.033157276  0.033789375            4 
  803000   0.94180135   -6.2219751    320.59412  0.033270457  0.033765402            3 
  804000   0.91193896   -6.2006539    320.75677  0.033245933  0.033741505            5 
  805000   0.93082444   -6.2221599    321.26981  0.033257745  0.033717503            3 
  806000   0.93730393   -6.2172987    320.66143   0.03315358  0.033693294            8 
  807000   0.93270983   -6.2262589    321.85895  0.033236158  0.033669051            5 
  808000   0.93377213   -6.2019435    321.74895  0.033183679  0.033645394            3 
[...]
 1800000   0.53693511    -7.296438    373.07037  0.017271776  0.015740157          275 
 1801000   0.53018639   -7.2852175    373.10159  0.017263631  0.015726985          364 
 1802000   0.53731394   -7.2883022    373.21626  0.017259354  0.015713846          396 
 1803000   0.54018629   -7.2686512    373.02111  0.017240761  0.015700697          402 
 1804000   0.53605024   -7.2892664    373.27994  0.017243161  0.015687573          470 
 1805000   0.54279071   -7.2756232    373.35866  0.017237242  0.015674451          421 
 1806000    0.5261248   -7.2763279    373.29789  0.017224894  0.015661347          339 
 1807000   0.54658189   -7.2817627     373.1895  0.017210363  0.015648246          134 
 1808000   0.53228653   -7.3125668    372.97062  0.017190755  0.015635173          479 
 1809000   0.53264509   -7.2909669    373.71406  0.017215499  0.015622112          319 
 1810000   0.52774574    -7.291859     373.2504  0.017184641   0.01560906          391 
 1811000   0.53212471   -7.2777321    373.21426  0.017173489  0.015596028          235 
 1812000   0.53554185   -7.3047961    373.29607  0.017167773   0.01558302          447 
 1813000   0.53204004   -7.2825625     373.5988  0.017172219  0.015570019          205 
 1814000   0.53279708   -7.3006076    373.32705  0.017150269  0.015557033          515 
 1815000   0.53727248   -7.2865201    372.83134   0.01711806  0.015544052          358 
 1816000   0.52848209   -7.3188765    372.59261  0.017097679   0.01553108          456 
 1817000   0.52132583   -7.2951427    373.31262   0.01712129  0.015518143          536 
 1818000    0.5206556   -7.2999059    372.99857  0.017097478  0.015505189          395 
 1819000   0.52689203   -7.2943028    373.75491  0.017122728  0.015492255          298 
 1820000   0.54470225   -7.2940217    373.01096  0.017079256  0.015479346          340 
 1821000   0.52299186   -7.2889662    373.06291  0.017072255  0.015466441          158 
 1822000   0.51162273   -7.2973422    372.92254  0.017056464   0.01545353          536 
 1823000   0.53760165    -7.305196    373.05839  0.017053318  0.015440608          503 
 1824000   0.51809532   -7.3007347    372.89969  0.017036718  0.015427717          488 
 1825000   0.52900688   -7.3078052    373.04493  0.017034015  0.015414813          522 
 1826000   0.51933942   -7.3078623    371.92867  0.016973743  0.015401927          472 
 1827000   0.53165668   -7.3049636     373.5282  0.017037411  0.015389048          543 
 1828000   0.52185808   -7.3085223    373.51716  0.017027588  0.015376186          564 
 1829000   0.51517492   -7.3060641    372.74625  0.016983153  0.015363345          474 
 1830000   0.52134198   -7.3087197    372.61966  0.016968108  0.015350526          599 
 1831000   0.51865314    -7.311476    372.82756  0.016968303  0.015337693          585 
 1832000   0.53170313   -7.3136312    372.42334  0.016940654  0.015324853          648 
 1833000   0.52619136   -7.2971888    372.68866  0.016943474  0.015312069          554 
 1834000   0.51939213    -7.318338    372.69446  0.016934499  0.015299277          580 
 1835000   0.51767349   -7.3024868    373.17151  0.016946935  0.015286517          638 
 1836000   0.52082908   -7.3252713    372.89483  0.016925147  0.015273759          624 
 1837000   0.52121389   -7.3277961    372.60227  0.016902662  0.015261024          509 
 1838000    0.5166422   -7.3151278     372.6518  0.016895711  0.015248287          622 
 1839000   0.51733348   -7.3166569    372.83155  0.016894669  0.015235553          540 
 1840000   0.52082638   -7.3204085    372.20991  0.016857333  0.015222839          582 
 1841000   0.50951303   -7.3054864     372.6998  0.016870351  0.015210146          559 
 1842000   0.51621052   -7.3146544    373.24375  0.016885801  0.015197442          681 
 1843000   0.52398639   -7.3010199    373.61329  0.016893348  0.015184769          571 
 1844000   0.51366065   -7.3320033    372.04138   0.01681315  0.015172109          560 
 1845000   0.52419413   -7.3208345    373.26292   0.01685921  0.015159465          501 
 1846000   0.50692017   -7.3121057    372.75562  0.016827177  0.015146814          274 
 1847000   0.51703307   -7.3304969    372.53597  0.016808156  0.015134171          598 
 1848000    0.5148439   -7.3180339    372.42977  0.016794272  0.015121572          635 
 1849000   0.51908698   -7.3259433    372.45997   0.01678655  0.015108959          650 
 1850000   0.51291394   -7.3195907    372.48372  0.016778546  0.015096383          599 
 1851000   0.50239978    -7.338959    372.78522  0.016783055  0.015083814          334 
 1852000    0.5128125   -7.3375237    371.57681  0.016719619  0.015071241          551 
 1853000   0.50970406   -7.3334116    372.68749  0.016760546  0.015058677          549 
 1854000   0.51106738   -7.3394035    371.94687  0.016718216  0.015046135          609 
 1855000   0.51210214   -7.3102385     372.2474  0.016722704  0.015033601          566 
 1856000    0.5039786   -7.3288896    372.60525  0.016729762  0.015021097          491 
 1857000   0.51244082   -7.3290124     372.0896  0.016697613  0.015008586          568 
 1858000   0.51273685   -7.3295529    372.03976   0.01668639    0.0149961          535 
 1859000   0.51064673    -7.319774    372.12456  0.016681216  0.014983623          601 
 1860000   0.50665549   -7.3274447    372.00049  0.016666688  0.014971147          610 
 1861000   0.50378209   -7.3285804    372.96564  0.016700951  0.014958686          577 
 1862000   0.49976046   -7.3276364    372.39418  0.016666406  0.014946255          647 
 1863000   0.51579712   -7.3272611    371.99186  0.016639464  0.014933822          625 
 1864000    0.5069404   -7.3410929     371.8693  0.016625058  0.014921407          686 
 1865000   0.50817343   -7.3358603    371.58651  0.016603508  0.014908983          374 
 1866000   0.49606997   -7.3283353     372.3889  0.016630444  0.014896575          305 
 1867000   0.51327584   -7.3291246     372.6921   0.01663507  0.014884181          599 
 1868000   0.49538904   -7.3466138     371.7779  0.016585381  0.014871804          536 
 1869000   0.50520221   -7.3252053     372.2548  0.016597771  0.014859433          352 
 1870000   0.49925591   -7.3335704    372.12256  0.016583002  0.014847086          633 
 1871000   0.52227626   -7.3360554    371.83643  0.016561394  0.014834728          707 
 1872000   0.50294574   -7.3516691    372.09828  0.016564204    0.0148224          692 
 1873000    0.5078826   -7.3374529    372.26965  0.016562985   0.01481007          539 
 1874000   0.50687126   -7.3556764    371.64241  0.016526254  0.014797752          617 
 1875000   0.50430489   -7.3453879    371.21182  0.016498303  0.014785441          591 
 1876000   0.49837919   -7.3302628    372.82555  0.016561192  0.014773143          270 
 1877000   0.51107968   -7.3319642    371.46171  0.016491818  0.014760864          619 
 1878000   0.52527904    -7.344552    371.99646  0.016506765  0.014748602          585 
 1879000   0.49940583   -7.3464222    371.63014  0.016481734  0.014736357          546 
 1880000   0.50244925   -7.3367971    371.79189  0.016480137   0.01472413          446 
 1881000   0.50220238   -7.3409556    371.91024  0.016476619  0.014711894          610 
 1882000   0.49553239   -7.3406492     372.0151  0.016472507  0.014699667          456 
 1883000   0.50225979   -7.3535412    372.02396  0.016464151  0.014687465          630 
 1884000   0.49934468   -7.3412467     372.2731  0.016466432  0.014675284          474 
 1885000   0.50762864   -7.3447419    371.81367  0.016437386  0.014663114          503 
 1886000    0.4988789   -7.3458167    372.17348  0.016444569  0.014650943          633 
 1887000   0.50397972    -7.356851    371.72675  0.016416126  0.014638793          422 
 1888000   0.49734245   -7.3397649    372.39778  0.016437049  0.014626636          529 
 1889000   0.49835416   -7.3543148    371.40326  0.016384474  0.014614513          376 
 1890000   0.50149049   -7.3465229    371.59159  0.016384109   0.01460239          526 
 1891000   0.48941056   -7.3766054    371.87872  0.016388098  0.014590268          568 
 1892000   0.50736927    -7.366791    371.52065  0.016363665  0.014578163          567 
 1893000   0.50621776   -7.3685998    371.62081   0.01635943   0.01456607          591 
 1894000   0.49241613   -7.3538631    371.77319  0.016357497     0.014554          528 
 1895000   0.49908481   -7.3621076    371.95012  0.016356646  0.014541934          631 
 1896000   0.50898744   -7.3574748    372.01016  0.016350657  0.014529879          613 
 1897000   0.49156789   -7.3589961    371.98331  0.016340859  0.014517839          696 
 1898000   0.49946506   -7.3442553    371.85743  0.016326722  0.014505822          568 
 1899000   0.49327635   -7.3538956    372.12374  0.016329811  0.014493804          563 
 1900000    0.4945019   -7.3620709    371.74635  0.016304664  0.014481799          609 
 1901000   0.49011544   -7.3423734     372.1043  0.016311779  0.014469809          455 
 1902000   0.49256322   -7.3639297    370.68469  0.016241004  0.014457823          620 
 1903000   0.48245057     -7.36591    371.89102  0.016285296  0.014445865          567 
 1904000   0.48962253   -7.3513312    372.37638  0.016297986  0.014433916          586 
 1905000    0.4968797   -7.3591184    371.55071  0.016253312  0.014421955          677 
 1906000   0.49756501   -7.3807057    371.59884  0.016246889  0.014410016          663 
 1907000    0.4936152   -7.3581648    371.66262  0.016241156  0.014398093          573 
 1908000   0.48783934   -7.3670857    372.37996  0.016263974  0.014386181          646 
 1909000    0.4990087   -7.3676273    370.93218  0.016192255  0.014374264          610 
 1910000   0.49427229   -7.3641375    371.54819  0.016210654  0.014362379          568 
 1911000   0.49858942   -7.3584069     371.4229  0.016196708  0.014350491          592 
 1912000   0.49394694   -7.3714181    371.27959   0.01618199  0.014338624          593 
 1913000   0.49045144   -7.3598553    371.43464  0.016180286  0.014326775          679 
 1914000   0.49682796    -7.354465     371.6597  0.016181631  0.014314947          565 
 1915000   0.49712574   -7.3706271    371.95619  0.016186083  0.014303115          650 
 1916000   0.49089633   -7.3559367    371.83987  0.016172576  0.014291317          519 
 1917000   0.48910637   -7.3725635    371.15258  0.016134263  0.014279518          636 
 1918000   0.49195775   -7.3616521    371.46092  0.016139248  0.014267724          618 
 1919000   0.48702321   -7.3804586    371.48756  0.016131994  0.014255952          584 
 1920000    0.4844836   -7.3774724    371.99053  0.016145422  0.014244189          601 
 1921000   0.48933943   -7.3896317    371.15184  0.016100635  0.014232421          666 
 1922000    0.4908577   -7.3781733    371.20972  0.016094767   0.01422067          649 
 1923000   0.48793636   -7.3650122    370.96335  0.016075721  0.014208921          631 
 1924000   0.48693095   -7.3666755     371.2231  0.016078616  0.014197199          592 
 1925000    0.4815904   -7.3824923    371.39445  0.016077682  0.014185492          734 
 1926000   0.48454834   -7.3834772    370.92622  0.016049075  0.014173803          601 
 1927000   0.48306595   -7.3763506    371.12738  0.016049446  0.014162115          701 
 1928000    0.4885019   -7.3972455    370.74934  0.016024781  0.014150435          645 
 1929000   0.47659112   -7.3804458    371.61156  0.016053722  0.014138764          697 
 1930000    0.4774569   -7.3809808    370.69498  0.016005828  0.014127113          609 
 1931000   0.47667885    -7.379922    371.52376  0.016033306  0.014115459          609 
 1932000   0.49592467   -7.3793733     372.2205   0.01605506  0.014103833          639 
 1933000   0.48858003   -7.3797057    370.52535  0.015973674   0.01409221          721 
 1934000   0.47951169    -7.388666    371.23285    0.0159959  0.014080604          619 
 1935000   0.47616265   -7.3735862    370.48169  0.015955284  0.014069004          642 
 1936000    0.4731116   -7.3860423    370.90063  0.015965075  0.014057408          661 
 1937000   0.48628614   -7.3802287     371.1752  0.015968645  0.014045823          721 
 1938000   0.47915584   -7.3891388    370.82696  0.015945432  0.014034251          720 
 1939000   0.47391869   -7.3908783     370.8328  0.015937459  0.014022699          710 
 1940000   0.47217158   -7.4021124     371.0771  0.015939738  0.014011152          668 
 1941000    0.4721907   -7.3870241    371.64455  0.015955888  0.013999614          699 
 1942000    0.4786982   -7.3901258    370.68764   0.01590661  0.013988077          673 
 1943000   0.48554885   -7.3941564    370.60792  0.015895004  0.013976563          618 
 1944000   0.47807546   -7.3856088    371.13082  0.015909243  0.013965058          687 
 1945000   0.48186392   -7.3938485    371.04295  0.015897299  0.013953579          623 
 1946000   0.47181637   -7.3872725    370.91633  0.015883707  0.013942091          619 
 1947000   0.48211818     -7.38336    371.48055  0.015899698   0.01393063          699 
 1948000    0.4730491   -7.3895911    371.23401  0.015880989  0.013919185          671 
 1949000   0.47831731   -7.3928701    370.83091  0.015855606  0.013907749          704 
 1950000    0.4750935    -7.399849    370.70379  0.015842042  0.013896321          665 
 1951000   0.46970722   -7.3974092    371.33429  0.015860853  0.013884913          664 
 1952000    0.4707912   -7.4010408    371.39497  0.015855318  0.013873512          692 
 1953000   0.47929393   -7.3868626    370.68562  0.015816932  0.013862104          705 
 1954000   0.47414253   -7.3812267    371.44344  0.015841157  0.013850718          644 
 1955000    0.4816369   -7.3788707    371.16611  0.015821232  0.013839348          611 
 1956000   0.47581773   -7.4122937    371.15192  0.015812539   0.01382797          699 
 1957000   0.47969517   -7.3802708     370.6657  0.015783755  0.013816627          710 
 1958000   0.47545463   -7.4132886    370.90835  0.015786021  0.013805296          653 
 1959000   0.47504691    -7.404236    370.52285  0.015761564  0.013793952          645 
 1960000   0.47166274   -7.3902061    371.52333   0.01579606  0.013782634          590 
 1961000   0.46830992   -7.3943791    370.43546  0.015741776  0.013771334          648 
 1962000   0.47053404   -7.4140682    370.80798  0.015749574  0.013760021          666 
 1963000   0.47061588   -7.4025039    370.36452  0.015722725  0.013748734          709 
 1964000   0.46810094   -7.4112409    370.02573  0.015700345  0.013737461          682 
 1965000    0.4712605   -7.4045521    370.49082  0.015712079  0.013726211          545 
 1966000   0.45759727   -7.4006956    371.09812  0.015729829  0.013714963          607 
 1967000   0.47165257   -7.4107061    370.58423  0.015700061  0.013703736          638 
 1968000   0.46428609   -7.4067199    370.31363  0.015680624  0.013692518          672 
 1969000   0.45634507   -7.3936157    370.55696  0.015682959  0.013681323          645 
 1970000   0.46441172   -7.3993885      370.611  0.015677284  0.013670126          600 
 1971000    0.4735774   -7.4211652    370.79476    0.0156771   0.01365894          560 
 1972000   0.46069071   -7.4143604    370.50837  0.015657047  0.013647751          638 
 1973000   0.47740421   -7.4020683    370.39415  0.015644288  0.013636578          645 
 1974000   0.46790396   -7.3959372     370.7659  0.015652056  0.013625415          619 
 1975000   0.45743812   -7.4005648    370.48905  0.015632449  0.013614258          609 
 1976000   0.46598338    -7.424209    370.40805  0.015621122  0.013603109          677 
 1977000   0.46015436   -7.4171159    370.37301  0.015611744  0.013591962          616 
 1978000   0.46293097   -7.4177777    370.73735  0.015619201  0.013580833          609 
 1979000   0.46882015   -7.4149129    370.20929  0.015589072  0.013569699          689 
 1980000   0.46038931   -7.4226942    370.62869  0.015598851  0.013558604          385 
 1981000   0.45971749   -7.4154197    370.83551  0.015599677   0.01354752          642 
 1982000   0.45902206   -7.4170617    370.48061  0.015576884  0.013536432          595 
 1983000   0.45978986   -7.4228921    370.49306  0.015569552  0.013525354          659 
 1984000   0.45928743   -7.4265013    370.40463   0.01555799  0.013514292          654 
 1985000   0.45885741   -7.4158481    370.11131  0.015537838  0.013503246          656 
 1986000   0.45675663   -7.4233121    369.63965  0.015510224  0.013492202          692 
 1987000    0.4528336    -7.420547    369.90117  0.015513386  0.013481171          638 
 1988000   0.47197121   -7.4312699    369.40842  0.015484927  0.013470147          650 
 1989000   0.46504419   -7.4197594    370.44673  0.015520644  0.013459144          615 
 1990000   0.45507431   -7.4220499    370.46043  0.015513418  0.013448145          620 
 1991000   0.46702866   -7.4205504    370.17445  0.015493657   0.01343716          723 
 1992000   0.46060264   -7.4202706    370.92747  0.015517381  0.013426183          635 
 1993000   0.45567177   -7.4225147    370.33288  0.015484733  0.013415221          706 
 1994000    0.4581188   -7.4194799    370.11913  0.015468035  0.013404266          610 
 1995000     0.451413   -7.4222593     370.2448   0.01546553  0.013393326          607 
 1996000   0.46254907   -7.4195436    370.24053  0.015457604  0.013382402          644 
 1997000   0.46790645   -7.4336931    369.77007  0.015430231  0.013371474          645 
 1998000   0.46011644   -7.4324336     370.2143  0.015441037  0.013360551          590 
 1999000   0.45712525   -7.4465116    370.10693  0.015428836  0.013349645          711 
 2000000   0.45720009   -7.4147187    370.64434  0.015443514  0.013338746          737 
 2001000   0.45803592   -7.4369784    370.46096  0.015428159  0.013327869          639 
 2002000   0.44952651   -7.4479578    369.64931  0.015386668  0.013317004          636 
 2003000   0.45708789     -7.43379    370.07133  0.015396544  0.013306142          667 
 2004000   0.44839032   -7.4271698    370.20006  0.015394214  0.013295296          656 
 2005000   0.44996899   -7.4255578    369.56029  0.015359946  0.013284458          681 
 2006000   0.44880292   -7.4227922    369.29907  0.015341437   0.01327363          728 
 2007000   0.46538161    -7.420067    369.71659  0.015351129  0.013262813          686 
 2008000   0.45206894   -7.4324727    370.13939  0.015361031  0.013252003          678 
 2009000   0.45002407   -7.4495959    369.47071  0.015325648  0.013241201          677 
 2010000   0.44643008   -7.4410853    370.52668  0.015361803  0.013230404          717 
 2011000   0.44670855   -7.4368246    370.09528  0.015336287  0.013219624          673 
 2012000   0.45329698    -7.431783    370.32465  0.015338165  0.013208853          649 
Loop time of 5186.09 on 48 procs for 2000000 steps with 4000 atoms

Performance: 66639.817 tau/day, 385.647 timesteps/s
99.4% CPU use with 48 MPI tasks x no OpenMP threads

MPI task timing breakdown:
Section |  min time  |  avg time  |  max time  |%varavg| %total
---------------------------------------------------------------
Pair    | 366.66     | 397.48     | 429.95     |  68.0 |  7.66
Neigh   | 36.301     | 37.503     | 38.901     |  10.1 |  0.72
Comm    | 337.58     | 370.23     | 399.61     |  69.6 |  7.14
Output  | 4.8934     | 4.8953     | 4.9434     |   0.3 |  0.09
Modify  | 4314       | 4327.1     | 4339       |   8.7 | 83.44
Other   |            | 48.87      |            |       |  0.94

Nlocal:        83.3333 ave          92 max          78 min
Histogram: 4 3 9 10 6 11 2 2 0 1
Nghost:        2413.40 ave        2434 max        2401 min
Histogram: 7 8 7 8 5 1 6 3 1 2
Neighs:        16726.9 ave       19013 max       14700 min
Histogram: 3 7 4 5 5 8 8 4 1 3
FullNghs:      33451.7 ave       36850 max       31257 min
Histogram: 3 5 7 10 7 10 3 2 0 1

Total # of neighbors = 1605683
Ave neighs/atom = 401.42075
Neighbor list builds = 106957
Dangerous builds = 0

#clear
#
#next RN
#
#jump SELF
Total wall time: 1:26:30
