
units lj                  # Use reduced LJ style units
atom_style atomic         # Uncharged point particles
atom_modify map hash      # Needed for indexing of clusters etc
                          # Used to be able to find where atoms are in relation to each other.

# Define a lattice with which to populate the simulation cell. With units
# set to 'lj' the second argument to the lattice command is the reduced
# density rho* and the spacings are multiples of that required to acheive
# that density. Also define a simulation cell called 'box' in lattice units
# and fill it with atoms. Here we're creating a box which is ten lattice
# constants in each direction.
lattice fcc 1.0 spacing 1 1 1                 # All equal sizes - gives the right reduced density.
Lattice spacing in x,y,z = 1.5874011 1.5874011 1.5874011

region box block 0 10 0 10 0 10 units lattice # Defines a region, "box", in lattice units
create_box 1 box                              # Creates a simulation box as specified above,
Created orthogonal box = (0.0000000 0.0000000 0.0000000) to (15.874011 15.874011 15.874011)
  2 by 2 by 7 MPI processor grid
                                              # with one type of atom
create_atoms 1 box                            # Creates particles on lattice points
Created 4000 atoms
  using lattice units in orthogonal box = (0.0000000 0.0000000 0.0000000) to (15.874011 15.874011 15.874011)
  create_atoms CPU = 0.002 seconds


# Set the mass of the first (and only) atom type.
mass 1 1.0

# Lennard-Jones interactions between particles, 3.5 sigma cut-off. Apply
# long range tail corrections to energy and pressure and set all coefficients
# to unity since we work in reduced units here. Note that this doesn't shift
# the potential such that it goes to zero at the cutoff. That would require
# pair_modify('shift', 'yes').
pair_style lj/cut  3.5      # non-GPU version
pair_modify tail  yes
pair_coeff 1  1  1.0  1.0   # Intearaction between 1 and 1 set with epsilon = 1 and sigma = 1

write_data data.*
System init for write_data ...
Neighbor list info ...
  update every 1 steps, delay 10 steps, check yes
  max neighbors/atom: 2000, page size: 100000
  master list distance cutoff = 3.8
  ghost atom cutoff = 3.8
  binsize = 1.9, bins = 9 9 9
  1 neighbor lists, perpetual/occasional/extra = 1 0 0
  (1) pair lj/cut, perpetual
      attributes: half, newton on
      pair build: half/bin/atomonly/newton
      stencil: half/bin/3d
      bin: standard

#############################
#   M E L T   S Y S T E M   #
#############################

velocity all create 2.4 9622624 mom yes dist gaussian # Assign velocities
                                                    # Temperature 2.4, random number seed, zero linear momentum
						                                                        # Gaussian distribution

timestep 0.002   # simulation timestep
thermo 100       # output thermodynamic data every 100 steps

# Define a fix  in this case with index 1 applied to all
# particles in the simulation. This fix is for simulations
# in the anisotropic NPT ensemble. Note that we use the MTK
# correction.
fix 1 all npt temp 2.4 2.4 0.1 iso 5.68 5.68 0.5 mtk yes tchain 5 pchain 5 # Use NPT ensemble
                                                                         # Set temperature and pressure and damping
                                                                         # Numbers of thermostats in chain and in barostat
run 1000         # run for 10000 steps
Per MPI rank memory allocation (min/avg/max) = 3.642 | 3.654 | 3.657 Mbytes
Step Temp E_pair E_mol TotEng Press Volume 
       0          2.4   -8.3859253            0   -4.7868253   -2.2405722         4000 
     100     1.256502   -6.5137603            0   -4.6294785    5.5061441    4089.3939 
     200    1.4710413   -6.2962202            0   -4.0902099    6.1259073    4136.4974 
     300    1.5753793   -6.0048156            0   -3.6423375    5.8881655    4269.3275 
     400     1.695533   -5.7167441            0   -3.1740804    5.9576171    4396.1624 
     500    1.7977703    -5.422775            0   -2.7267936    5.9233545    4540.2438 
     600    1.8751095    -5.133639            0   -2.3216778    5.8305819    4705.3349 
     700    2.0067687   -4.9044304            0   -1.8950299    5.8181833    4845.3775 
     800    2.1683387   -4.7479596            0   -1.4962646    5.6703181    4968.6147 
     900    2.2591539   -4.5766532            0   -1.1887696    5.5447205    5099.1514 
    1000    2.3772702    -4.449968            0  -0.88495416    5.8567059    5140.3387 
Loop time of 0.324114 on 28 procs for 1000 steps with 4000 atoms

Performance: 533145.285 tau/day, 3085.332 timesteps/s
99.4% CPU use with 28 MPI tasks x no OpenMP threads

MPI task timing breakdown:
Section |  min time  |  avg time  |  max time  |%varavg| %total
---------------------------------------------------------------
Pair    | 0.14696    | 0.16106    | 0.17672    |   1.9 | 49.69
Neigh   | 0.028913   | 0.030247   | 0.032087   |   0.5 |  9.33
Comm    | 0.089017   | 0.10553    | 0.12136    |   2.4 | 32.56
Output  | 0.00020834 | 0.00021475 | 0.00026683 |   0.0 |  0.07
Modify  | 0.021179   | 0.02484    | 0.031657   |   1.9 |  7.66
Other   |            | 0.002224   |            |       |  0.69

Nlocal:        142.857 ave         155 max         133 min
Histogram: 2 2 0 6 5 9 1 1 1 1
Nghost:        1918.21 ave        1934 max        1902 min
Histogram: 1 1 4 4 5 4 1 4 1 3
Neighs:        12690.1 ave       13892 max       11313 min
Histogram: 1 1 2 4 5 5 3 3 2 2

Total # of neighbors = 355324
Ave neighs/atom = 88.831000
Neighbor list builds = 87
Dangerous builds = 18

# Equilibrate just above the melting temperature to avoid step fn in T

fix 1 all npt temp 1.25 1.25 0.1 iso 5.68 5.68 0.5 mtk yes tchain 5 pchain 5
run 1000
Per MPI rank memory allocation (min/avg/max) = 3.643 | 3.655 | 3.658 Mbytes
Step Temp E_pair E_mol TotEng Press Volume 
    1000    2.3772702    -4.449968            0  -0.88495416    5.8567059    5140.3387 
    1100    1.9123587   -4.6299409            0     -1.76212    5.7356352    5010.0317 
    1200     1.748463   -4.9742749            0   -2.3522361    5.6314428    4809.1156 
    1300    1.5839166   -5.2240149            0    -2.848734     5.537847    4676.3458 
    1400    1.4493602   -5.3637066            0   -3.1902097    5.9258711    4553.5937 
    1500    1.3475159   -5.4905275            0   -3.4697589    5.8595912    4492.3019 
    1600    1.3105851   -5.6398502            0   -3.6744639     5.695843    4436.2068 
    1700    1.2621862   -5.7135111            0   -3.8207051    5.6775847    4398.9832 
    1800    1.2554554   -5.7810045            0   -3.8982922     5.797944     4358.617 
    1900    1.2634776   -5.8544833            0   -3.9597407    5.6933777     4339.129 
    2000    1.2398732   -5.8281233            0   -3.9687785    5.8601907    4332.3676 
Loop time of 0.313039 on 28 procs for 1000 steps with 4000 atoms

Performance: 552008.316 tau/day, 3194.493 timesteps/s
99.7% CPU use with 28 MPI tasks x no OpenMP threads

MPI task timing breakdown:
Section |  min time  |  avg time  |  max time  |%varavg| %total
---------------------------------------------------------------
Pair    | 0.15203    | 0.1609     | 0.16774    |   1.1 | 51.40
Neigh   | 0.02562    | 0.02646    | 0.027153   |   0.3 |  8.45
Comm    | 0.090549   | 0.099604   | 0.11204    |   1.7 | 31.82
Output  | 0.00020718 | 0.00021237 | 0.00025889 |   0.0 |  0.07
Modify  | 0.019243   | 0.023312   | 0.026431   |   1.6 |  7.45
Other   |            | 0.002545   |            |       |  0.81

Nlocal:        142.857 ave         151 max         135 min
Histogram: 2 2 0 6 4 4 5 3 1 1
Nghost:        2132.14 ave        2154 max        2113 min
Histogram: 3 1 3 2 7 5 3 1 2 1
Neighs:        15062.4 ave       16238 max       13803 min
Histogram: 1 1 3 3 6 5 3 3 1 2

Total # of neighbors = 421746
Ave neighs/atom = 105.43650
Neighbor list builds = 76
Dangerous builds = 11


# Small amount of linear quench

fix 1 all npt temp 1.25 ${temp} 0.1 iso 5.68 5.68 0.5 mtk yes tchain 5 pchain 5
fix 1 all npt temp 1.25 1.16 0.1 iso 5.68 5.68 0.5 mtk yes tchain 5 pchain 5
run 2000
Per MPI rank memory allocation (min/avg/max) = 3.644 | 3.655 | 3.658 Mbytes
Step Temp E_pair E_mol TotEng Press Volume 
    2000    1.2398732   -5.8281233            0   -3.9687785    5.8601907    4332.3676 
    2100    1.2971312   -5.8616994            0    -3.916489    5.6768329    4341.4209 
    2200    1.2618386    -5.881214            0   -3.9889293    5.7696829    4319.8532 
    2300    1.2366909   -5.8984598            0   -4.0438872    5.5920038     4328.159 
    2400    1.2514306   -5.8684016            0    -3.991725    5.5965545    4338.0962 
    2500    1.2501165   -5.8624303            0   -3.9877244     5.533097    4345.5285 
    2600    1.2100492    -5.860043            0    -4.045423    5.7213416    4325.8163 
    2700    1.2243874   -5.8783189            0    -4.042197    5.6432845    4326.8196 
    2800    1.2298561    -5.929111            0    -4.084788    5.5335296    4316.4235 
    2900    1.2073462   -5.9095006            0   -4.0989341     5.754664    4303.6302 
    3000    1.2013726   -5.8993335            0   -4.0977251    5.7723444    4305.3181 
    3100    1.1903702   -5.9439722            0   -4.1588633    5.5009263    4310.5669 
    3200    1.1987482   -5.9023381            0   -4.1046654    5.7027686    4312.9794 
    3300    1.2012601   -5.8977368            0   -4.0962971    5.8067343    4306.4444 
    3400    1.2009662   -5.9241789            0     -4.12318    5.8383119    4291.1891 
    3500    1.1745297   -5.9453534            0   -4.1839993    5.7376263    4289.3119 
    3600    1.1801233   -5.9354514            0    -4.165709    5.5227666    4311.4548 
    3700    1.1648783    -5.956041            0   -4.2091604    5.3404159    4318.5459 
    3800    1.1868021   -5.9784557            0   -4.1986976    5.4219629    4301.5777 
    3900    1.1508552   -5.9779007            0   -4.2520495    5.7511361    4273.2311 
    4000    1.1791231   -5.9660797            0   -4.1978372    5.8587304    4271.3743 
Loop time of 0.647176 on 28 procs for 2000 steps with 4000 atoms

Performance: 534012.080 tau/day, 3090.348 timesteps/s
99.8% CPU use with 28 MPI tasks x no OpenMP threads

MPI task timing breakdown:
Section |  min time  |  avg time  |  max time  |%varavg| %total
---------------------------------------------------------------
Pair    | 0.31827    | 0.34009    | 0.35895    |   1.7 | 52.55
Neigh   | 0.046007   | 0.04725    | 0.048444   |   0.4 |  7.30
Comm    | 0.18171    | 0.20619    | 0.23814    |   2.8 | 31.86
Output  | 0.00042707 | 0.00043954 | 0.00052639 |   0.0 |  0.07
Modify  | 0.037032   | 0.047382   | 0.055242   |   2.6 |  7.32
Other   |            | 0.005822   |            |       |  0.90

Nlocal:        142.857 ave         151 max         135 min
Histogram: 1 1 2 5 4 7 5 2 0 1
Nghost:        2150.54 ave        2164 max        2138 min
Histogram: 5 2 3 2 1 5 2 1 5 2
Neighs:        15280.1 ave       16172 max       13860 min
Histogram: 1 2 2 0 3 5 1 5 5 4

Total # of neighbors = 427844
Ave neighs/atom = 106.96100
Neighbor list builds = 131
Dangerous builds = 0

#############################
# F R E E Z E  S Y S T E M  #
#############################

# Define solid atoms. This closely follows ten Wolde  Ruiz-Montero and Frenkel  Faraday Discuss  1996  104  93-110
# Compute components of the per-atom q6 vector
compute q6 all orientorder/atom degrees 1 6 components 6 nnn NULL cutoff 1.3 # compute the Q6 parameter.
                                                                             # Use all neighbours within 1.3 unit cell.

# get number of connections
compute coord_number all coord/atom orientorder q6 0.5

# An atom is solid if it has 8 or more connections (of a possible 14)
variable is_solid atom c_coord_number>=8
group solid dynamic all var is_solid    # Must be dynamic to update
dynamic group solid defined

# do clustering
compute cluster solid cluster/atom 1.3 # Create a cluster where all atoms within are solid and max 1.3 units from another member

# define chunks one chunk per cluster
compute clus_chunks solid chunk/atom c_cluster nchunk every compress yes  # Says which atoms are in which chunk

# count the size of each chunk
compute size_chunks solid property/chunk clus_chunks count


# Find the maximum entry in the vector of chunk sizes
variable max_n equal max(c_size_chunks)


# Thermo style which includes this variable
thermo_style custom step temp pe vol v_max_n

thermo ${N}  # Print the thermo information every 100 steps
thermo 100  

# Reset the npt fix at a lower temperature (below freezing)
fix 1  all npt temp  ${temp} ${temp}  0.1  iso  5.68  5.68  0.5  mtk yes tchain  5  pchain  5
fix 1  all npt temp  1.16 ${temp}  0.1  iso  5.68  5.68  0.5  mtk yes tchain  5  pchain  5
fix 1  all npt temp  1.16 1.16  0.1  iso  5.68  5.68  0.5  mtk yes tchain  5  pchain  5

dump dmp2 all dcd ${N} traj_${rand}.dcd
dump dmp2 all dcd 100 traj_${rand}.dcd
dump dmp2 all dcd 100 traj_462431.dcd


# fix rnuntil all halt ${N} v_max_n >= 3980 error soft message no   # Stop when solidified


run 100000 # 5000000  # Run for this many steps
Neighbor list info ...
  update every 1 steps, delay 10 steps, check yes
  max neighbors/atom: 2000, page size: 100000
  master list distance cutoff = 3.8
  ghost atom cutoff = 3.8
  binsize = 1.9, bins = 9 9 9
  4 neighbor lists, perpetual/occasional/extra = 1 3 0
  (1) pair lj/cut, perpetual
      attributes: half, newton on
      pair build: half/bin/atomonly/newton
      stencil: half/bin/3d
      bin: standard
  (2) compute orientorder/atom, occasional
      attributes: full, newton on
      pair build: full/bin/atomonly
      stencil: full/bin/3d
      bin: standard
  (3) compute coord/atom, occasional
      attributes: full, newton on
      pair build: full/bin/atomonly
      stencil: full/bin/3d
      bin: standard
  (4) compute cluster/atom, occasional
      attributes: full, newton on
      pair build: full/bin/atomonly
      stencil: full/bin/3d
      bin: standard
Per MPI rank memory allocation (min/avg/max) = 9.374 | 9.378 | 9.380 Mbytes
Step Temp PotEng Volume v_max_n 
    4000    1.1791231   -5.9660797    4271.3743            4 
    4100    1.1392306   -5.9666823    4263.8312            7 
    4200    1.1651197   -6.0185814    4259.1394            3 
    4300    1.1563912   -6.0193402    4266.2819            4 
    4400    1.1502392   -5.9750423    4281.6807            7 
    4500    1.1562874   -5.9656854    4279.3417            7 
    4600    1.1577703   -6.0152201    4257.2233            4 
    4700    1.1634761   -6.0327037    4255.2839            6 
    4800    1.1730796   -5.9922878    4268.9766            6 
    4900     1.183748   -5.9986147    4270.8473            3 
    5000    1.1425645   -5.9840028    4264.9418            6 
    5100    1.1778083   -5.9697082    4274.5497            5 
    5200     1.158521   -5.9726544    4276.6759            6 
    5300    1.1493822   -5.9776506    4279.3373            6 
    5400    1.1693199   -5.9853899     4287.028            5 
    5500      1.15237   -5.9377714    4290.3067            2 
    5600     1.143254   -5.9778944    4277.8781            3 
    5700    1.1746054   -5.9862336    4267.7194            3 
    5800    1.1757042     -5.99707    4260.6888            5 
    5900     1.146161   -6.0127421    4266.9299            6 
    6000    1.1540687    -5.988645    4272.5405            4 
    6100    1.1885523    -5.965681    4278.6549            5 
    6200    1.1733095   -5.9782778    4273.5286            4 
    6300    1.1414877   -5.9787977    4264.0133            2 
    6400    1.1766105   -5.9823627    4263.3647            4 
    6500    1.1750294    -5.934367    4286.7748            2 
    6600    1.1589013   -5.9599374    4285.4219            2 
    6700    1.1459924    -6.002269    4278.2941            2 
    6800     1.163188    -5.989008    4287.6593            2 
    6900     1.159026    -5.991265    4285.8243            9 
    7000    1.1639922   -6.0278882     4264.275            3 
    7100     1.176483   -6.0435469    4255.9132            2 
    7200    1.1709855   -6.0070449    4273.7117            4 
    7300     1.150914   -5.9818848    4279.6801            4 
    7400    1.1455087   -6.0049027    4268.8337            2 
    7500    1.1719681   -6.0297108    4265.3752            3 
    7600    1.1480513     -6.00146    4292.1366            5 
    7700    1.1789839   -6.0044395    4299.8526            3 
    7800    1.1675256    -5.991623    4285.2672            4 
    7900    1.1366028   -5.9782125    4262.4536            3 
    8000    1.1796796   -6.0163509    4251.0397            3 
    8100    1.1731309   -5.9922743    4249.8271            2 
    8200    1.1751643   -6.0195359     4264.307            2 
    8300     1.149396   -5.9970192     4271.042            7 
    8400    1.1588211   -5.9924041    4272.1504            5 
    8500    1.1444091   -6.0092489    4271.8342            3 
    8600    1.1526395   -5.9717564    4278.2515            3 
    8700    1.1619048   -5.9643996    4296.6653            8 
    8800    1.1551522   -5.9757093    4286.8994            7 
    8900    1.1577066   -6.0106128    4283.6867            4 
    9000    1.1592512   -5.9928653    4280.4849            4 
    9100     1.180728   -5.9783105      4282.69            6 
    9200    1.1423063   -5.9763484    4272.3545            6 
    9300    1.1714722   -5.9615037    4271.9139            5 
    9400    1.1561519   -5.9818095    4267.0604            2 
    9500    1.1728006   -6.0280452    4260.8115            3 
    9600    1.1852197   -6.0054097      4263.75            4 
    9700    1.1776014   -5.9718419    4269.1322            3 
    9800      1.13768    -5.984097    4263.8661            3 
    9900    1.1627391   -5.9980632     4282.825            5 
   10000    1.1687701   -5.9553442     4283.212            4 
   10100     1.197039   -6.0203192    4265.8374            2 
   10200    1.1575201   -5.9859499     4278.125            5 
   10300    1.1782695   -6.0238604    4282.1325            5 
   10400    1.1336066   -6.0200962    4287.1745            2 
   10500    1.1591592   -6.0201792    4291.2038            2 
   10600    1.1661107   -5.9661205    4282.3969            3 
   10700     1.143886    -5.957141    4282.1397            3 
   10800    1.1567315   -6.0128204    4264.1021            4 
   10900     1.146116   -6.0130455    4250.3149            8 
   11000    1.1748697   -6.0398289     4257.442            3 
   11100    1.1771138   -6.0162135    4264.2719            3 
   11200    1.1430988   -6.0132777    4259.0587            5 
   11300     1.128064   -6.0438258    4265.5727            2 
   11400    1.1415188   -6.0000693    4261.5834            9 
   11500    1.1674593   -5.9982185    4256.6214            7 
   11600    1.1770717   -5.9673689    4266.7366            5 
   11700    1.1886017   -6.0121182    4255.3754            4 
   11800    1.1609433   -6.0135913    4263.0689            3 
   11900    1.1319996   -5.9771722     4269.686            7 
   12000    1.1674398   -5.9810884    4276.9502            4 
   12100    1.1574639   -5.9690138    4265.9517            2 
   12200    1.1680126   -5.9903536    4260.7127            2 
   12300    1.1848422   -5.9767427    4263.1623            3 
   12400    1.1716628   -5.9667607    4279.6908            3 
   12500    1.1416678   -5.9679643      4278.35            6 
   12600    1.1566822   -6.0117589     4269.232            4 
   12700    1.1365632   -6.0111145    4259.5623            2 
   12800    1.1548001   -5.9800865    4269.6911            4 
   12900    1.1950287   -5.9988067    4271.3134            6 
   13000    1.1538676   -6.0187354    4270.9085            6 
   13100    1.1522054   -6.0202215    4271.7108            2 
   13200    1.1266452   -6.0079504    4262.0618            4 
   13300    1.1717727   -6.0148688    4272.2457            3 
   13400     1.166763   -5.9580595    4272.2041            4 
   13500    1.1500639   -5.9794809    4273.7775            4 
   13600    1.1601944   -6.0351817    4266.5899            4 
   13700    1.1485081   -6.0054468    4267.5607            3 
   13800    1.1744007   -6.0028103    4278.5201            4 
   13900    1.1597757   -5.9586397    4272.9246            5 
   14000    1.1983997   -5.9774429    4282.7266            2 
   14100    1.1615171   -5.9769891     4273.975            4 
   14200    1.1491221   -5.9941715    4283.2628            7 
   14300    1.1769922   -6.0027992    4292.5238            7 
   14400    1.1374389    -5.999923    4291.4538            4 
   14500    1.1592012    -5.995428    4277.1049            3 
   14600    1.1632667   -5.9905042     4261.001            2 
   14700    1.1471854   -6.0020231     4267.233            2 
   14800     1.183185   -6.0077639     4273.575            2 
   14900    1.1676152   -6.0087045    4260.6479            5 
   15000    1.1409367   -5.9898583    4271.7637            2 
   15100    1.1645427   -6.0257696     4280.087            3 
   15200    1.1782638   -5.9864172    4281.0342            3 
   15300    1.1497372   -5.9916544    4271.4143            3 
   15400    1.1639471   -6.0089876    4260.2459            2 
   15500    1.1513877   -5.9770368    4268.0474            4 
   15600    1.1817053   -5.9807832    4278.0641            6 
   15700    1.1409495   -5.9676898    4291.1057            3 
   15800    1.1527493   -5.9897685    4290.4365            3 
   15900    1.1637211   -5.9923671     4287.645            4 
   16000    1.1767648   -5.9457458    4287.0737            3 
   16100    1.1645158   -5.9755062    4290.2651            3 
   16200    1.1483245   -5.9939752    4294.3117            4 
   16300    1.1534956   -6.0208138    4292.2366           13 
   16400    1.1530069   -6.0292333    4270.7708           10 
   16500    1.1792941   -5.9941783    4266.6281            3 
   16600    1.1506454   -5.9871329    4258.9891            4 
   16700    1.1573463    -5.983683     4254.147            3 
   16800     1.188732    -5.981499    4271.0536            5 
   16900    1.1435432   -5.9728475     4266.639            3 
   17000    1.1638271   -5.9841374    4274.8649            5 
   17100     1.166174   -5.9896666     4282.252            3 
   17200    1.1497431   -6.0217014    4267.8865            4 
   17300    1.1620193   -5.9946077    4276.3509            2 
   17400    1.1540686   -5.9711147    4279.9413            3 
   17500    1.1654292   -6.0033871    4269.6921            5 
   17600    1.1669646   -6.0098327     4269.015            4 
   17700    1.1661113   -5.9686514    4257.3503            4 
   17800    1.1515266   -5.9649269    4260.6633            4 
   17900    1.1851946   -5.9955912    4268.6624            5 
   18000    1.1451024   -6.0074377    4271.9973            7 
   18100    1.1632519   -5.9936336    4273.1305            5 
   18200     1.164834   -6.0110172    4254.7663            4 
   18300    1.1643497   -5.9978863    4257.6281            9 
   18400    1.1830409   -6.0045088    4277.5391            8 
   18500    1.1667441   -5.9794371    4290.6058            3 
   18600    1.1466183   -6.0067365    4274.8619            4 
   18700    1.1616915   -5.9888661    4269.0131            6 
   18800     1.142879   -6.0057237    4264.5198            7 
   18900    1.1621463   -5.9787941    4266.6511            2 
   19000    1.1702127   -5.9786638    4271.2724            6 
   19100    1.1560712   -5.9727666    4269.1625            2 
   19200    1.1531118   -5.9568268    4273.4171            3 
   19300    1.1758309   -5.9978113     4275.973            2 
   19400    1.1518305   -6.0179678    4271.4096            2 
   19500    1.1814023    -6.022279     4273.806            4 
   19600    1.1726545   -5.9966215    4275.2733            5 
   19700     1.151569   -5.9874172    4257.6243            6 
   19800    1.1671579   -5.9900654    4262.2295            7 
   19900    1.1605483   -5.9676907    4275.7023            5 
   20000    1.1325596   -5.9864564    4273.2676            9 
   20100    1.1560695   -6.0159059     4277.045            8 
   20200    1.1662277   -5.9698673    4279.3849            4 
   20300    1.1776367   -6.0173156    4281.0951            7 
   20400    1.1287437   -5.9976574    4254.8205            6 
   20500    1.1656895   -6.0275601     4260.152            9 
   20600    1.1791871   -5.9828763    4265.7939            3 
   20700    1.1577824   -5.9874229    4282.1504            2 
   20800    1.1331374   -5.9766712    4275.7711            2 
   20900    1.1717299   -5.9788273    4268.8334            6 
   21000    1.1627057   -5.9711995    4277.5024            6 
   21100    1.1849092   -5.9455885    4279.6247            5 
   21200    1.1624073   -5.9567719    4258.5948            4 
   21300    1.1752036   -5.9704132    4263.7275            3 
   21400    1.1635098   -5.9766625    4278.0753            4 
   21500    1.1547376   -6.0075136     4266.391            5 
   21600    1.1452943   -5.9636703    4269.4523            3 
   21700    1.1838904   -5.9628996    4278.3173            3 
   21800    1.1496168   -5.9577462    4276.1281            3 
   21900    1.1427893   -5.9695007     4275.826            3 
   22000     1.147106    -5.992837    4286.0125            6 
   22100    1.1765079   -5.9799116    4290.0807            3 
   22200    1.1356961    -5.975025    4278.1847            2 
   22300    1.1425513   -6.0126042    4264.7961            5 
   22400    1.1659069   -5.9889649    4271.1638            3 
   22500    1.1604145   -5.9509819    4283.0792            3 
   22600    1.1861972   -5.9326249    4285.2988            3 
   22700    1.1862175   -6.0102895    4268.4494            4 
   22800    1.1472521   -5.9956388    4263.1439            3 
   22900    1.1683289   -5.9917083    4269.0667            3 
   23000    1.1414123   -5.9938536    4263.1044            3 
   23100    1.1531775   -6.0246685    4264.2681            4 
   23200    1.1627951   -5.9902557     4278.996            2 
   23300     1.169615   -5.9836101    4285.8679            4 
   23400    1.1322604   -5.9439167    4294.6677            8 
   23500    1.1756545   -5.9676548    4290.5831            4 
   23600    1.1562872   -5.9759427    4277.2987            3 
   23700    1.1551967   -5.9753986    4285.2068            2 
   23800    1.1602537   -5.9744613    4283.5577            3 
   23900    1.1634629   -5.9863451     4263.219            2 
   24000    1.1481774   -5.9987541    4276.1738            4 
   24100     1.157162   -5.9985701    4285.9355            6 
   24200    1.1585141   -5.9505655     4307.255            4 
   24300    1.1709392   -5.9535684    4292.5759            2 
   24400    1.1561049   -5.9746718    4277.2618            7 
   24500    1.1730812   -6.0083551    4281.2276            8 
   24600    1.1587479   -5.9575849     4308.825            4 
   24700    1.1399862   -5.9768774    4288.5553            4 
   24800    1.1718643   -5.9747301     4272.794            6 
   24900    1.1372131   -5.9788237    4275.0748            4 
   25000     1.180429   -6.0063523     4266.044            6 
   25100     1.147563   -6.0028868    4260.1817            7 
   25200    1.1454382   -6.0142164     4251.903            4 
   25300     1.157761   -5.9935712     4275.926           17 
   25400    1.1664705   -5.9711914    4286.8579            4 
   25500    1.1738769   -5.9552696     4298.054            7 
   25600    1.1686458   -5.9828288    4285.9684            4 
   25700    1.1563259   -5.9777418    4278.8138            5 
   25800    1.1529748   -5.9600951    4269.8561            3 
   25900    1.1617704   -6.0131341    4267.0343            4 
   26000    1.1452547     -5.99553    4270.1464            3 
   26100    1.1715722   -5.9844928    4283.7593            9 
   26200    1.1615514   -5.9486923    4282.4657            4 
   26300    1.1661107   -5.9957882    4264.0149            2 
   26400    1.1276741   -5.9833309    4255.6253            2 
   26500    1.1718403   -5.9789613    4260.7669            3 
   26600    1.1560234   -6.0007078    4252.0984            3 
   26700    1.1645409   -5.9820436    4251.5014            6 
   26800    1.1496404   -5.9528923    4264.5097            7 
   26900    1.1539342   -5.9937581    4269.2968            6 
   27000     1.167092   -5.9990788    4275.8671            2 
   27100    1.1960346   -5.9608552    4288.4147            3 
   27200    1.1758225   -5.9532089    4280.1224            2 
   27300    1.1622992   -5.9779802     4277.027            2 
   27400    1.1256727   -5.9716352    4283.0224            2 
   27500     1.156846   -5.9527973    4291.5839            2 
   27600    1.1778349   -5.9804029    4278.5865            3 
   27700    1.1529945    -5.990042    4264.5896            6 
   27800    1.1923506    -5.990872    4261.2083            2 
   27900    1.1544339    -5.970925    4263.7362            6 
   28000    1.1648181   -5.9872249    4270.0029            5 
   28100    1.1802406   -5.9848271    4294.1746            5 
   28200    1.1410304   -5.9850034    4268.4531            8 
   28300    1.1829382   -6.0119345    4269.1572            2 
   28400    1.1835261   -5.9877088    4275.8626            3 
   28500    1.1537594   -5.9489872    4279.6177            2 
   28600    1.1787433   -6.0356036    4273.1557            2 
   28700    1.1320229   -6.0365096    4265.8711            6 
   28800    1.1932282   -6.0544226    4254.1351            2 
   28900    1.1447169   -6.0098616    4260.7055            2 
   29000    1.1444398   -5.9647697    4283.7025            4 
   29100    1.1435627   -5.9797141    4283.8005            8 
   29200    1.1673097   -6.0170334    4275.6759            3 
   29300    1.1703694   -5.9759809    4280.8846            3 
   29400    1.1551363   -6.0146634    4257.3504            5 
   29500    1.1758146   -6.0184997    4256.5738            4 
   29600    1.1474799   -6.0258036    4273.3665            3 
   29700    1.1576991   -6.0254796    4278.2401            5 
   29800    1.1813248   -6.0100996     4292.317            5 
   29900    1.1639171   -6.0100186    4275.8499            3 
   30000    1.1604766   -6.0045004    4275.4194            6 
   30100    1.1537051     -5.99118     4284.305            4 
   30200     1.192772   -5.9888475    4279.8516            5 
   30300    1.1872792   -5.9877729    4253.4115            3 
   30400    1.1764124   -6.0016266    4249.4515            3 
   30500    1.1663674   -5.9908683    4264.3741            3 
   30600    1.1288966   -5.9784099    4275.7335            3 
   30700    1.1657094   -5.9956326    4252.8936            4 
   30800    1.1514441   -6.0000205     4255.505            4 
   30900    1.1549994   -5.9954749    4271.8184            2 
   31000    1.1748802   -6.0106976    4265.8133            4 
   31100    1.1639293   -6.0019324    4277.0301            4 
   31200    1.1704049   -5.9905214    4289.1945            8 
   31300    1.1571449   -6.0007931    4291.9685            7 
   31400     1.138549    -5.998567    4275.9246            3 
   31500     1.155938   -5.9659049     4264.022            3 
   31600    1.1786106   -5.9852672    4266.8896            2 
   31700    1.1404081     -5.98133    4269.5419            5 
   31800    1.1903208   -6.0140349    4279.4143            3 
   31900    1.1355168   -6.0049649    4277.9826            4 
   32000    1.1288459   -5.9965365    4281.1785            5 
   32100    1.1678316   -5.9826351    4273.2267            4 
   32200    1.1682542   -6.0102645    4252.8806            6 
   32300    1.1558485   -6.0284842    4248.4677            7 
   32400    1.1480799   -5.9901031    4271.0653            7 
   32500    1.1518171   -5.9606289    4276.2061            8 
   32600     1.176577     -5.98516    4275.4602           11 
   32700    1.1902657   -5.9948641    4278.0122            5 
   32800    1.1310482   -5.9763342    4287.5388           10 
   32900    1.1499943    -5.980311    4288.8635            9 
   33000    1.1648948   -5.9939593    4275.5898            3 
   33100    1.1411629   -5.9744989    4267.9741            4 
   33200      1.18513   -5.9797323    4272.5807            3 
   33300     1.149927    -5.971668    4291.8575            4 
   33400     1.150755   -5.9967901    4296.5072            3 
   33500    1.1637897   -5.9947436    4289.7028            2 
   33600    1.1685105   -5.9813086     4304.444            5 
   33700    1.1634574   -6.0205384    4273.9658            6 
   33800    1.1494615   -6.0063349    4264.7216            4 
   33900    1.1692212   -5.9755651    4257.6212            3 
   34000    1.1679918   -5.9504298    4261.7372            3 
   34100     1.166178   -6.0092148    4258.6682            4 
   34200    1.1214003   -5.9876339    4273.0214            2 
   34300     1.161254   -6.0030289    4277.0169            4 
   34400    1.1276006   -6.0054214    4285.3084            2 
   34500    1.1690586   -5.9966596    4288.0199            4 
   34600    1.1660602   -5.9484634    4284.8193            3 
   34700    1.1614305    -5.991706    4275.0835            4 
   34800    1.1546796   -5.9502085    4271.7412            5 
   34900    1.1913182   -5.9780915    4255.4304            4 
   35000    1.1666661   -5.9687641    4263.4987            6 
   35100    1.1593433   -5.9403631    4280.7515            8 
   35200    1.1520433   -5.9476752    4297.5952            4 
   35300    1.1375038   -5.9734235    4267.6447            6 
   35400    1.1634328   -5.9830887    4268.4999            6 
   35500    1.1678746   -5.9578912    4289.3144            2 
   35600    1.1602421   -5.9597832    4280.5005            3 
   35700    1.1482361   -5.9914939    4292.5194            5 
   35800    1.1401459   -5.9616821    4286.3947            2 
   35900     1.152006   -5.9720651    4271.3842            2 
   36000    1.1902924   -5.9669477    4264.6075            2 
   36100    1.1549537   -5.9553322    4274.0646            4 
   36200    1.1374822   -5.9595087    4270.8823            2 
   36300      1.17821   -5.9645131    4271.6542            5 
   36400    1.1314443   -5.9455772    4269.2555            5 
   36500    1.1565003   -5.9871136    4265.5406            3 
   36600    1.1796484   -5.9962431     4288.016            4 
   36700    1.1473757   -5.9630233    4291.4736            4 
   36800    1.1680849   -5.9877107    4273.1207            6 
   36900     1.137467   -5.9718443    4276.6743            9 
   37000    1.1710997   -5.9679343     4269.321            4 
   37100    1.1813046   -5.9937211    4260.9422            4 
   37200     1.162328   -6.0140175    4252.7682            4 
   37300      1.12239   -6.0048546    4248.5788            8 
   37400    1.1497298   -5.9778824     4263.557            4 
   37500    1.1608589   -5.9716254    4263.5786            2 
   37600    1.1519182   -6.0131278    4262.1372            2 
   37700    1.1577078   -5.9759796    4259.9478            5 
   37800    1.1771738   -5.9963516    4256.8421            3 
   37900    1.1580852   -6.0088398    4268.3081            5 
   38000    1.1421487    -5.990945    4278.5692            5 
   38100    1.1812924   -6.0179781    4266.7408            4 
   38200    1.1530708   -6.0252606    4263.0329            4 
   38300    1.1615389   -5.9900849    4281.3989            8 
   38400    1.1393544   -5.9782845    4294.8373            5 
   38500    1.1629805   -5.9540691    4301.1467            6 
   38600    1.1578411   -5.9818905    4278.0269            4 
   38700    1.1445978   -5.9934644    4270.3025            2 
   38800    1.1740619    -5.986961     4264.146            5 
   38900    1.1570966   -6.0039454    4263.4054            4 
   39000    1.1556577   -5.9997855     4267.861            2 
   39100    1.1656695    -5.997847      4263.59            5 
   39200    1.1767467   -6.0141813    4257.6016            4 
   39300    1.1559735   -5.9910677     4260.897            4 
   39400    1.1792987   -5.9759364    4267.9787            2 
   39500    1.1616168   -5.9994291    4264.7328            5 
   39600    1.1455976    -6.005772    4274.3128            4 
   39700    1.1482783   -6.0010531    4272.3578            3 
   39800    1.1632138   -5.9694733    4278.4313            1 
   39900    1.1583268   -5.9555974    4284.6526            6 
   40000    1.1455225   -5.9895658    4273.1073            4 
   40100    1.1336263   -5.9624113    4284.3251            2 
   40200     1.167953   -5.9429333    4273.3559            3 
   40300    1.1542201   -5.9711161    4259.8628            3 
   40400    1.1659685   -5.9766208    4263.0609            5 
   40500    1.1633281   -5.9804616    4269.2458            6 
   40600    1.1475222   -6.0060401    4264.9888            4 
   40700    1.1809324   -5.9991217    4271.1095            2 
   40800    1.1640716   -6.0010498    4267.2307            3 
   40900    1.1594632   -6.0334301    4256.8834            4 
   41000    1.1685413   -6.0024772    4266.5988            3 
   41100    1.1636984   -5.9938206    4282.6675            3 
   41200    1.1659666   -5.9568455    4290.2601            3 
   41300    1.1445089   -5.9657001    4287.4852            4 
   41400    1.1584774   -5.9705926    4276.8436            3 
   41500    1.1625927   -5.9954926    4268.8575            8 
   41600    1.1789003   -5.9651195    4283.0336            4 
   41700    1.1603138   -5.9638507    4275.2731            4 
   41800    1.1635513   -5.9796541    4268.5158            3 
   41900     1.180454   -5.9765327    4287.0532            3 
   42000    1.1442077   -5.9763896    4269.0793            8 
   42100    1.1500368   -5.9741941    4270.6848            7 
   42200     1.171293   -5.9445874    4281.5212            4 
   42300    1.1634524   -5.9571171     4272.534            5 
   42400     1.143576   -5.9853392    4270.4317            4 
   42500    1.1420844   -5.9762421    4277.3853            5 
   42600    1.1919282   -5.9749383    4275.3862            5 
   42700    1.1725401    -5.963379    4264.8797            2 
   42800    1.1492639   -5.9843106    4260.7935            4 
   42900    1.1495243   -5.9854359    4267.4462            4 
   43000    1.1335099   -5.9946181    4260.6333            3 
   43100    1.1840379   -6.0098726    4262.9024            2 
   43200    1.1468776   -5.9736682    4269.4501            1 
   43300    1.1665584   -5.9606932    4291.3613            2 
   43400    1.1575604   -5.9691424    4287.9541            3 
   43500    1.1482255   -5.9730519    4265.2216            4 
   43600     1.180663    -5.974037    4260.0211            2 
   43700    1.1806631   -5.9335468      4277.62            4 
   43800    1.1773956    -5.954827    4283.9818            3 
   43900      1.16319    -5.992807    4283.7576            4 
   44000     1.160971   -6.0192376    4279.3969            1 
   44100    1.1328695   -5.9892462    4281.1605            3 
   44200    1.1622263   -5.9667586    4282.3265            4 
   44300    1.1741938   -5.9597999    4296.3239            3 
   44400    1.1439328   -5.9464257    4294.9623            4 
   44500    1.1491028   -5.9967986    4284.7033            5 
   44600    1.2318294    -6.020626    4269.6061            3 
   44700    1.1626472    -5.975485    4277.6854            3 
   44800    1.1478651   -6.0045384    4264.0317            2 
   44900    1.1492653    -5.981017    4274.0211            4 
   45000    1.1701906   -5.9544713    4283.1587            5 
   45100    1.1484074   -5.9760186    4280.4096            3 
   45200    1.1464675   -6.0133958    4264.0662            6 
   45300    1.1580889   -5.9878887    4285.7121            6 
   45400    1.1531341   -6.0055628    4288.4069            3 
   45500    1.1380601   -6.0091623    4283.4087            5 
   45600    1.1651945    -5.982993    4285.3865            8 
   45700    1.1707073   -5.9838579    4272.8844            2 
   45800    1.1637787    -5.991373    4273.8001            1 
   45900    1.1679362   -5.9928946    4285.2982            3 
   46000    1.1441268   -6.0092173    4273.8909            2 
   46100     1.153259   -6.0120316    4261.6864            2 
   46200    1.1459552   -6.0112612    4254.6741            3 
   46300    1.1602734   -5.9921756    4277.1876            3 
   46400    1.1593951   -5.9882284    4285.6366            5 
   46500    1.1935007   -5.9615623    4293.7758            4 
   46600    1.1580172   -5.9800769    4288.6729            6 
   46700    1.1526371   -5.9897345    4283.5215            4 
   46800    1.1735416   -5.9543612    4294.5209            6 
   46900     1.153365   -5.9672286    4284.0016            9 
   47000    1.1399451   -5.9585969    4273.3249            4 
   47100    1.1831004   -5.9604896    4274.7011            5 
   47200    1.1602922   -5.9597813    4280.0049            3 
   47300    1.1381945   -5.9706429    4260.7528            5 
   47400    1.1708468   -5.9492841     4272.874            7 
   47500     1.174674   -5.9750603    4264.7319           17 
   47600    1.1606539   -5.9875975    4270.8738            6 
   47700    1.1342166   -5.9476573    4281.9379            3 
   47800    1.1866494   -5.9776297    4298.3741            4 
   47900    1.1585647    -5.955596    4284.1671            5 
   48000    1.1314576   -5.9532873    4271.9344            2 
   48100    1.1613906   -5.9747393    4269.9398            2 
   48200    1.1681258   -5.9947307    4263.5149            2 
   48300    1.1564513   -5.9854105    4248.7207           12 
   48400    1.1753396   -5.9822069    4263.9168            4 
   48500    1.1619956   -5.9480969    4284.7013            3 
   48600    1.1544697   -5.9051492    4309.9918            5 
   48700    1.1715804   -5.9566195    4288.7591            2 
   48800     1.167627    -5.975876    4288.6573            8 
   48900    1.1453366   -6.0043999    4283.4776            2 
   49000    1.1473143   -6.0104232    4277.2473            3 
   49100    1.1708453    -5.989744    4285.0406            2 
   49200    1.1347988   -5.9874728    4283.4696            2 
   49300    1.1691171   -6.0025288     4267.523            7 
   49400    1.1578375   -6.0006859    4255.4585            5 
   49500    1.1646816   -5.9914241    4268.6791            3 
   49600    1.1917118   -5.9762816    4276.6653            5 
   49700    1.1485908   -5.9598328    4285.2444            2 
   49800    1.1554681   -5.9747615    4272.4748            2 
   49900    1.1491269   -5.9984033    4279.7768            6 
   50000    1.1791879   -5.9920409    4297.2015            3 
   50100    1.1643585   -5.9836365    4291.5174            3 
   50200    1.1627913   -5.9924355     4278.338            4 
   50300    1.1442801   -6.0059649    4254.2535            3 
   50400      1.16254   -5.9967873    4268.5642            3 
   50500    1.1589781   -5.9562853     4280.053            3 
   50600     1.170267   -5.9535796    4259.7171            3 
   50700    1.1714171    -6.001732    4247.8162            2 
   50800    1.1385835   -6.0094073    4266.2657            2 
   50900    1.1315184   -5.9869714     4289.802            2 
   51000     1.173048   -5.9948728     4290.626            4 
   51100    1.1383151   -5.9581177    4284.6491            4 
   51200    1.1453839   -5.9745026    4270.2307            5 
   51300    1.1831707   -5.9709457    4277.3847            5 
   51400    1.1515422   -5.9825289    4268.8901            2 
   51500    1.1671145     -5.97106    4275.2921            4 
   51600    1.1521739   -5.9585205    4284.3971            5 
   51700    1.1765629   -5.9922683    4279.7568            6 
   51800    1.1255693   -5.9588792    4264.5773            4 
   51900    1.1581781   -5.9486055    4280.6499            4 
   52000    1.1884743   -5.9745011    4272.1632            5 
   52100    1.1634587   -5.9983106    4266.4025            4 
   52200     1.147687   -6.0104741    4264.1096            2 
   52300    1.1551366   -5.9941184    4260.5163            4 
   52400    1.1620441   -5.9511087    4277.5404            3 
   52500    1.1665526    -5.986527     4281.085           10 
   52600    1.1539153   -5.9952142    4276.5894            4 
   52700    1.1507116   -6.0247746    4250.6179            4 
   52800    1.1491663   -6.0133682    4254.9808            3 
   52900    1.1503444   -6.0010289    4278.6273            3 
   53000    1.1662229   -6.0047182    4274.6186            4 
   53100      1.20132   -6.0275417    4263.6295            4 
   53200    1.1558021   -5.9982142      4254.14            3 
   53300    1.1935456   -5.9989821    4266.9566            4 
   53400    1.1680243   -5.9865444    4276.5431            4 
   53500    1.1378306   -6.0042664    4277.0818            5 
   53600    1.1662691   -6.0312706    4261.2391            6 
   53700     1.156095    -6.010726    4260.7046            4 
   53800    1.1338185   -5.9900592    4285.7215            6 
   53900    1.1606766   -5.9889361    4288.4763            4 
   54000     1.143801   -5.9860335    4277.5491            8 
   54100    1.1772419   -5.9972321    4265.9068            3 
   54200    1.1665792   -5.9645388    4279.3945            5 
   54300    1.1656962   -5.9635557    4281.5213            8 
   54400    1.1627409   -6.0116241    4266.4508            8 
   54500    1.1559693   -5.9521887    4269.9024            3 
   54600    1.1817161   -5.9698605     4266.647            4 
   54700    1.1587055   -5.9840343    4264.3736            5 
   54800    1.1625177   -5.9979136    4262.8419            3 
   54900    1.1418495   -6.0216604    4268.4761            4 
   55000    1.1545905    -5.983068    4277.8526            3 
   55100    1.1695865   -6.0014072    4273.4656            2 
   55200      1.14418   -6.0150277    4261.7903            4 
   55300    1.1674921   -5.9848957    4267.2838            5 
   55400    1.1698385   -5.9725369    4261.1659            2 
   55500    1.1708677   -5.9788025    4258.3237            3 
   55600    1.1464789   -5.9980178    4258.3527            2 
   55700    1.1772682   -6.0095648    4259.7687            4 
   55800    1.1647417   -5.9996742    4267.1558            3 
   55900     1.130897    -5.984832    4277.1396            3 
   56000    1.1643585   -5.9957699    4276.4397            2 
   56100    1.1544214   -6.0048166    4253.7504            5 
   56200    1.1592682   -6.0065565    4250.0917            4 
   56300    1.1546585   -5.9592414    4265.0159            2 
   56400    1.1689109   -5.9677017    4290.0095            5 
   56500    1.1414533   -5.9778012    4289.8254            2 
   56600     1.149573    -6.010162    4273.6772            4 
   56700    1.1510926   -6.0367578    4264.8769            4 
   56800    1.1532097   -5.9828337    4259.7417            4 
   56900    1.1678601   -5.9729637    4256.4507            6 
   57000    1.1522018   -6.0095565    4265.6158            3 
   57100    1.1832533   -5.9951844    4277.4848            4 
   57200    1.1656037   -5.9577527    4274.9503            5 
   57300    1.1668055   -6.0125732    4275.8224            3 
   57400     1.139178   -6.0205195    4285.6574            5 
   57500    1.1515398   -5.9811243    4295.8729            2 
   57600    1.1515839   -5.9608989    4296.3934            2 
   57700    1.1549267    -5.969827    4291.4117            3 
   57800    1.1620372    -5.982731    4281.4077            5 
   57900    1.1659613    -5.981789    4283.5983            4 
   58000    1.1585371   -5.9931686    4269.1235            3 
   58100    1.1731121   -5.9753735     4278.089            6 
   58200    1.1730564   -5.9428426    4282.0528            2 
   58300     1.152591   -5.9721939    4267.8755            2 
   58400    1.1609779   -5.9719276    4279.1109            4 
   58500    1.1615164   -5.9666509    4294.6925            8 
   58600    1.1357622    -5.980792    4294.4484            4 
   58700    1.1498109   -6.0077902    4305.4203            5 
   58800    1.1916513   -6.0043889    4296.0009            4 
   58900    1.1664875   -5.9778875     4272.429            6 
   59000    1.1829529   -5.9808158    4269.2336            4 
   59100    1.1497051   -5.9896272    4266.5248            3 
   59200    1.1577358   -5.9900484    4269.2365            5 
   59300    1.1647206   -5.9663938    4273.8022            3 
   59400    1.1419368   -5.9756932    4283.6636            7 
   59500    1.1481215   -6.0013522    4266.5158            3 
   59600    1.1609384   -5.9874647    4254.3628            4 
   59700    1.1509938   -5.9698012    4253.0984            3 
   59800    1.1391659   -6.0054504    4256.0426            6 
   59900    1.1637584   -5.9802694    4281.7028            4 
   60000    1.1517112   -5.9719278    4277.7159            2 
   60100    1.1366109   -5.9982271    4264.7213            3 
   60200    1.1698808   -5.9876958    4275.1023            3 
   60300    1.1630821   -5.9428904     4278.748            3 
   60400    1.1679232   -6.0019774    4272.7697            3 
   60500    1.1400266   -5.9918919    4282.9838           12 
   60600    1.1493671    -5.994268     4276.584            6 
   60700    1.1560149   -5.9919575    4264.4176            3 
   60800    1.1391719   -6.0192016    4253.4499            3 
   60900    1.1763783   -6.0327118    4255.1469            4 
   61000    1.1726481    -6.012138    4264.4964            2 
   61100    1.1379874   -6.0100619    4265.6126            2 
   61200       1.1515   -6.0018445    4274.5842            4 
   61300    1.1572885   -5.9964991    4279.1842            8 
   61400    1.1864313   -6.0033175    4271.3638            5 
   61500    1.1539046   -5.9887407    4264.4706            5 
   61600     1.144616   -5.9716231    4269.3124            3 
   61700    1.1842033   -5.9917796    4273.7873            5 
   61800    1.1552632   -5.9751478    4289.2455            4 
   61900    1.1372551    -5.996914    4297.8915            6 
   62000    1.1283589   -5.9833478    4291.9571            5 
   62100    1.1633322   -5.9648152    4298.4736            6 
   62200    1.1533896   -5.9764689    4273.9249            3 
   62300    1.1698288   -5.9885825    4271.3981            3 
   62400    1.1802175   -5.9509874     4282.005            3 
   62500    1.1659272   -5.9816917     4270.975            4 
   62600    1.1660792    -6.008478    4279.2306            5 
   62700    1.1902365   -5.9483058    4284.9922            4 
   62800    1.1625441   -5.9683681    4283.9936            4 
   62900    1.1419999   -5.9842328    4285.3511            5 
   63000    1.1395494   -6.0128596     4283.137            5 
   63100    1.1582659   -6.0103697     4268.327            5 
   63200    1.1609093   -5.9812971    4271.5711            2 
   63300    1.1537542   -5.9695814    4270.4926            9 
   63400     1.181813   -5.9546662    4284.4802            6 
   63500    1.1729706   -5.9791967    4277.2759            3 
   63600    1.1639695   -6.0208219    4271.2923            5 
   63700    1.1472783   -6.0086597    4284.2035            5 
   63800    1.1601562   -5.9728563    4292.3235            4 
   63900    1.1622643   -6.0064365    4275.2312            7 
   64000    1.1634388   -6.0125697    4272.5313            6 
   64100     1.176861    -5.983906     4287.444            3 
   64200    1.1426336   -5.9568009    4293.2005            8 
   64300    1.1926354   -5.9817458    4283.7464            3 
   64400    1.1618149   -5.9822807    4262.5891            3 
   64500    1.1698758    -6.009174    4271.6582            3 
   64600    1.1517442    -5.962555    4305.6856            3 
   64700    1.1568991   -5.9835833    4287.3904            6 
   64800    1.1466479   -5.9795216    4276.3267            4 
   64900    1.1807659    -5.995779    4271.0238            5 
   65000     1.165913   -5.9933904    4256.8665            3 
   65100    1.1654711    -6.022541     4265.739            3 
   65200    1.1778236   -5.9930244    4279.3862            7 
   65300    1.1601054   -5.9986786    4272.7287            6 
   65400    1.1584403   -5.9892838    4284.2418            5 
   65500    1.1988532   -6.0103074    4275.7726            4 
   65600    1.1666883   -6.0054397    4282.9551            6 
   65700    1.1607008   -6.0100142    4280.4571            5 
   65800    1.1639475   -6.0459914    4266.6164            4 
   65900    1.1710186   -6.0105643     4273.634            3 
   66000    1.1492087   -5.9869305    4274.5432            2 
   66100    1.1444389   -6.0011048    4270.5777            5 
   66200    1.1815185   -6.0031301    4286.4125            4 
   66300    1.1711382   -5.9609901    4280.3176            2 
   66400     1.142956   -5.9852641    4269.3557            4 
   66500    1.1656504   -5.9865177    4287.7996            5 
   66600    1.1731717   -5.9791296     4280.187            3 
   66700    1.1596523   -6.0128356    4265.2337            3 
   66800    1.1718577   -5.9869543    4254.0911            7 
   66900    1.1801174   -5.9530107    4281.2789            2 
   67000    1.1566144   -5.9771544    4274.3579            4 
   67100    1.1396606    -5.987363    4272.3589            7 
   67200    1.1657825   -5.9754288    4284.3847            4 
   67300    1.1664155   -6.0140694    4293.1332            2 
   67400    1.1284445   -5.9811512    4293.3529            3 
   67500    1.1660838   -5.9802517    4290.6672            4 
   67600    1.1430648   -6.0006953    4273.4921            6 
   67700    1.1626485   -6.0008719    4262.3325            3 
   67800    1.1705874   -5.9820045    4276.8528            6 
   67900    1.1438577   -5.9185114    4294.0883            4 
   68000    1.1926547   -5.9274349    4297.6631            3 
   68100    1.1714765   -5.9613531    4283.4856            2 
   68200    1.1621425   -5.9951889    4276.9807            4 
   68300    1.1651398   -6.0266972    4261.6872           12 
   68400     1.161193   -5.9963369    4271.0745            8 
   68500    1.1513712   -5.9910623    4272.6605            7 
   68600    1.1577106   -5.9951442    4277.6183            4 
   68700    1.1457784   -5.9913606    4271.5735            4 
   68800      1.17094   -5.9943178    4261.0362            4 
   68900     1.175366    -5.995228    4265.6909            7 
   69000    1.1577545   -5.9848222    4277.7381            5 
   69100    1.1408782   -5.9428773    4279.6872            4 
   69200    1.1595801   -6.0206099    4262.4864            4 
   69300    1.1301338   -6.0160627    4276.9983            4 
   69400    1.1514879   -5.9877943    4281.4426            3 
   69500    1.1353078   -6.0049015    4291.5004            1 
   69600    1.1645362   -5.9924778    4290.4366            3 
   69700    1.1813893   -5.9978267    4260.6215            2 
   69800    1.1630152   -6.0097749    4261.5209            3 
   69900    1.1590197   -5.9826253    4261.1441            3 
   70000      1.14828   -5.9661647    4252.7879            3 
   70100    1.1856725   -5.9758392    4255.6793            2 
   70200    1.1364884   -5.9283736    4272.8357            3 
   70300     1.167929   -5.9440922    4278.4351            3 
   70400    1.1620319   -5.9770342     4273.237            4 
   70500    1.1615264   -5.9749366    4274.3454            3 
   70600    1.1559815   -5.9477753    4283.1449            4 
   70700    1.1619387   -5.9577171    4283.3256            4 
   70800    1.1524911   -5.9896586    4271.7509            4 
   70900    1.1501309   -6.0059628    4266.7054            3 
   71000    1.1695143   -6.0183433       4279.1            4 
   71100    1.1569436   -6.0254344    4298.8511            3 
   71200    1.1326063   -6.0180591    4287.3729            5 
   71300    1.1866655   -6.0404391    4279.4674            5 
   71400    1.1514855   -5.9944754    4277.0789            5 
   71500    1.1574789   -5.9715851    4271.4772            3 
   71600    1.1677754   -5.9638903    4280.8705            7 
   71700    1.1832454   -5.9815823    4281.2802            2 
   71800    1.1657504   -6.0091927     4286.548            3 
   71900    1.1440894   -6.0111493    4279.3865            2 
   72000    1.1521583   -6.0220536      4261.96            4 
   72100    1.1649382   -5.9801719    4258.9803            7 
   72200    1.1708818   -5.9722159    4263.3264            6 
   72300    1.1704147   -5.9941632    4267.5452            8 
   72400    1.1620367   -6.0083363    4268.3417            5 
   72500    1.1504257   -6.0142101    4290.2261            4 
   72600    1.1466545    -6.012807    4298.5961            4 
   72700    1.1530898   -6.0161997    4278.5742            3 
   72800    1.1636648   -6.0176599    4257.3638            3 
   72900    1.1531421   -5.9685257    4269.5146            3 
   73000    1.1699815   -5.9618386    4268.2063            5 
   73100    1.1629826    -5.973474     4260.728            4 
   73200    1.1516502    -5.999009    4258.6851            3 
   73300    1.1587385   -6.0097743    4264.0856            6 
   73400    1.1764366   -5.9880289    4297.6297            4 
   73500    1.1621566   -6.0034083    4295.7192            4 
   73600    1.1704848   -5.9815388    4282.1572            3 
   73700    1.1548526   -6.0129224    4272.4347           10 
   73800    1.1654947   -6.0236806    4273.9664            3 
   73900    1.1708149   -5.9865557    4282.8196            4 
   74000    1.1447459   -5.9980238     4276.348            3 
   74100    1.1606165   -6.0111916    4269.6123            7 
   74200    1.1859569   -6.0102342    4281.0108            6 
   74300    1.1572669   -6.0260951    4265.8501            4 
   74400    1.1804046   -6.0323286    4276.5839            4 
   74500    1.1914154   -5.9970665    4293.1932            4 
   74600    1.1546216   -5.9766497    4294.2941            3 
   74700    1.1374827   -6.0123313    4291.5333            4 
   74800    1.1487458   -5.9628519    4279.0309            4 
   74900    1.1714147   -5.9579038    4281.4081            4 
   75000    1.1476218   -5.9799883    4271.7013            3 
   75100    1.1714585    -6.009922     4268.739            4 
   75200    1.1493351    -6.038956    4257.0822            5 
   75300    1.1566176   -6.0175065    4267.3443            4 
   75400    1.1612318   -5.9874317    4284.4973            4 
   75500    1.1804103   -6.0097932    4280.9485            6 
   75600     1.142595   -6.0177425    4265.8684            7 
   75700    1.1879703   -6.0378352    4277.5386            6 
   75800    1.1560626   -5.9865767    4274.7558            3 
   75900    1.1546252   -6.0175751    4285.7161            5 
   76000    1.1728076     -5.99024     4293.479            2 
   76100    1.1472496   -5.9924275    4279.2595            2 
   76200    1.1596147   -6.0117955    4274.3862            2 
   76300    1.1932893   -6.0203015    4272.5946            2 
   76400    1.1846794   -5.9867804    4287.8326            2 
   76500    1.1568278   -5.9887865    4285.4183            4 
   76600    1.1407248   -6.0018797    4275.3156            2 
   76700    1.1380684   -6.0332103     4258.511            3 
   76800    1.1498347   -5.9846548    4262.7681            4 
   76900    1.1445357   -5.9952872    4256.0377            4 
   77000     1.194338   -6.0087893    4246.8988           12 
   77100    1.1568685   -5.9651447     4258.172            8 
   77200    1.1366777   -6.0029701    4274.8386            3 
   77300    1.1288532   -6.0199353    4262.6753            7 
   77400    1.1508804   -5.9910914    4275.9614            3 
   77500    1.1664495   -5.9676041    4276.5651            4 
   77600    1.1501768   -5.9839888    4273.2713            3 
   77700    1.1350603   -6.0103841    4257.4033            3 
   77800    1.1551303   -6.0134844    4279.3097            2 
   77900    1.1494592   -5.9978733    4286.8932            2 
   78000     1.205565   -6.0329171    4283.1193            2 
   78100    1.1575787   -6.0033871    4264.7277            3 
   78200     1.147437   -5.9800105    4274.2823            5 
   78300    1.1904905    -5.990479    4276.6265            5 
   78400    1.1665305    -5.999971    4264.1435            3 
   78500    1.1487832   -6.0030318    4272.0216            5 
   78600    1.1605178   -5.9703438    4291.4776            3 
   78700    1.1439157    -5.965917    4278.5697            4 
   78800    1.1299399    -5.994662    4262.4839            7 
   78900    1.1745954   -6.0185761    4263.7609            3 
   79000    1.1763359   -5.9899925    4281.8842            4 
   79100    1.1430055   -5.9971268    4276.6356            4 
   79200    1.1588773   -5.9776463    4264.1899            4 
   79300    1.1835809   -5.9456542    4267.6402            8 
   79400     1.163393    -5.975999    4268.0179            2 
   79500     1.158044    -6.002179    4269.4538            3 
   79600    1.1318732   -6.0037766    4281.8023            2 
   79700    1.1447733   -5.9909836    4298.2581            4 
   79800    1.1537523   -5.9584477     4289.201            5 
   79900    1.1598411   -6.0158488    4268.5416            5 
   80000    1.1583653   -5.9984586    4259.4941            5 
   80100    1.1630066   -5.9766313    4272.3816            4 
   80200    1.1400571   -5.9615509    4284.2185            6 
   80300    1.1402592   -6.0034632    4258.0965            6 
   80400    1.1795884   -6.0163536    4251.2793            3 
   80500    1.1644325   -5.9853757    4275.5793            6 
   80600    1.1619103   -5.9752898    4278.3387            5 
   80700    1.1572956   -6.0060631    4259.2326            5 
   80800    1.1597798   -5.9907631    4259.4651            4 
   80900    1.1578974   -5.9324537    4271.8825            7 
   81000    1.1811166   -5.9496364    4273.0384            3 
   81100    1.1798919   -6.0127325    4271.4556            4 
   81200    1.1376112   -5.9932678    4278.4048            3 
   81300    1.1600817   -5.9990545     4291.741           10 
   81400    1.1802698   -5.9737146    4296.1259            4 
   81500    1.1472427   -5.9764206    4278.9234            2 
   81600     1.174196   -5.9765309    4272.8829            5 
   81700    1.1459819   -5.9865381    4264.4958            5 
   81800    1.1561937   -5.9743256     4265.973            9 
   81900     1.185935   -5.9832153    4265.0391            6 
   82000    1.1581733   -6.0075709    4261.5029            7 
   82100    1.1738856   -6.0256842    4267.3198            2 
   82200     1.142093   -6.0142765    4271.8662            3 
   82300    1.1612959   -6.0159248    4269.7596            7 
   82400    1.1477543   -5.9649902    4287.9421            5 
   82500    1.1465399   -6.0007077    4274.1678            5 
   82600    1.1662029   -6.0090094    4260.7609            8 
   82700      1.16295   -6.0015159    4265.2661            6 
   82800    1.1710391   -5.9708236    4290.7657            8 
   82900    1.1412481   -5.9540115    4289.7161            4 
   83000    1.1498715   -5.9947495    4265.7507            4 
   83100    1.1897599   -5.9868766    4256.6512            4 
   83200    1.1653219   -5.9648881    4267.3748            3 
   83300    1.1971711   -5.9767957    4281.8113            9 
   83400    1.1405506   -5.9606835     4292.758            4 
   83500     1.158117   -5.9855139    4279.3461            2 
   83600    1.1789564    -5.984853    4285.8332            4 
   83700    1.1462853   -5.9848789    4285.8358            2 
   83800    1.1781092   -5.9810331    4277.9316            4 
   83900    1.1543203   -5.9954682     4264.513            6 
   84000    1.1428973   -5.9670553    4267.0368            4 
   84100    1.1685016   -5.9955542    4281.0226            5 
   84200    1.1449606   -5.9749434    4293.0168            3 
   84300    1.1739033   -5.9793389    4286.4315            2 
   84400    1.1717809   -5.9860078    4265.1853            3 
   84500    1.1669711   -6.0229227    4265.0436            3 
   84600    1.1733428   -5.9822579    4285.2086            3 
   84700    1.1657786   -5.9724509    4278.4737            6 
   84800    1.1540453   -6.0137972     4263.997            5 
   84900    1.1657873    -6.011283    4271.9144            4 
   85000     1.157116   -5.9880491    4294.0306            4 
   85100    1.1484318   -6.0261216    4261.6941            3 
   85200    1.1553375   -6.0071322    4268.6055            9 
   85300    1.1872956   -6.0124364    4271.0899            3 
   85400     1.171925   -6.0156718    4261.6256            8 
   85500    1.1326864   -6.0016902    4271.6218            3 
   85600    1.1464281   -5.9865186    4282.9938            3 
   85700     1.142655   -5.9961092    4285.2752            3 
   85800    1.1558763   -6.0003894    4289.3008            9 
   85900    1.1966171    -6.002413    4279.5662            4 
   86000    1.1495343   -5.9725308    4278.3149            7 
   86100    1.1759897   -5.9634133     4287.113            3 
   86200     1.122342   -5.9614098    4280.3152            3 
   86300    1.1713779   -5.9720237    4276.1738            6 
   86400     1.168616   -5.9297753    4277.8634            4 
   86500    1.1588223   -5.9151816    4289.3666            5 
   86600    1.1582332   -5.9611168    4277.0674            4 
   86700    1.1417922   -6.0019229    4272.9562            9 
   86800    1.1683075   -6.0206704    4259.1314            7 
   86900    1.1665873   -6.0052575    4266.9748            6 
   87000    1.1792395   -5.9951105     4285.116            9 
   87100    1.1261882   -5.9834851    4296.0578            6 
   87200     1.140793   -5.9931058    4289.6072            7 
   87300    1.1630244   -5.9622425    4279.3441            5 
   87400     1.139906   -5.9827424    4283.0287            4 
   87500    1.1680809    -6.000367    4277.7249            4 
   87600    1.1651002   -5.9552027    4267.2756            3 
   87700    1.1884597   -5.9575462    4265.6964            5 
   87800    1.1646088    -5.982766    4255.9012            6 
   87900    1.1406113   -5.9772898    4262.0013            8 
   88000    1.1568332   -5.9534884    4275.7698            4 
   88100    1.1714361   -5.9780527    4275.3871            4 
   88200    1.1479677   -6.0182656    4270.8981            3 
   88300    1.1726319   -6.0005648    4265.3502            5 
   88400    1.1531653   -6.0013542    4269.9789            4 
   88500     1.125082   -6.0082484    4277.0087            4 
   88600    1.1603728    -6.012771    4290.8749            7 
   88700    1.1739951   -5.9854501    4277.6281           14 
   88800    1.1852184   -6.0293881    4255.7875           11 
   88900    1.1471419   -6.0053371    4266.9526            7 
   89000    1.1741461   -5.9977209    4273.4465            6 
   89100    1.1575619    -5.961832    4268.2247            5 
   89200    1.1941994   -6.0052432    4259.0495            7 
   89300     1.143571   -5.9814937    4270.2994            2 
   89400    1.1626271   -5.9861107    4268.0818            4 
   89500    1.1465826    -5.996762    4254.8639            6 
   89600    1.1450017    -6.041309    4250.7602            6 
   89700    1.1475565   -5.9958184    4271.0994            4 
   89800    1.1618486   -6.0012291    4277.3292            4 
   89900    1.1549005   -6.0435652    4250.4951            3 
   90000    1.1664409   -6.0335207    4262.4558            6 
   90100    1.1696184   -6.0060848     4274.205            7 
   90200    1.1484469   -6.0006746    4281.1207            4 
   90300    1.1474789   -5.9825984    4278.6989            2 
   90400    1.1773114   -5.9930794    4264.9199            5 
   90500    1.1486924   -5.9845959    4247.6961            3 
   90600    1.1602393   -6.0454789    4243.9063            4 
   90700    1.1559306   -6.0473783    4242.4831            4 
   90800    1.1476796   -6.0091318    4265.8833            4 
   90900    1.1416389   -5.9669422    4277.8146            4 
   91000    1.1629262   -5.9897085    4270.9227            3 
   91100    1.1705771   -6.0092638    4256.3841            7 
   91200    1.1868697    -5.992857    4268.8913            4 
   91300    1.1807237   -5.9854158    4271.6125            3 
   91400    1.1533881   -6.0078592    4275.0893            6 
   91500    1.1524834   -5.9926664    4279.0445            2 
   91600    1.1595511   -5.9401585    4295.4845            3 
   91700    1.1753407    -5.964838    4291.8371            4 
   91800    1.1552466   -5.9766021    4275.1289            2 
   91900    1.1630142    -5.960627    4284.7176            3 
   92000    1.1572126   -5.9440145    4295.2015            4 
   92100    1.1453817   -5.9701444    4290.2696            5 
   92200    1.1884679    -6.005758    4272.6501            6 
   92300      1.15802   -5.9947908     4267.174            8 
   92400    1.1726524   -6.0012449    4278.7892            3 
   92500    1.1217001   -5.9947056    4294.6303            5 
   92600    1.1549817   -5.9822575    4306.7239            4 
   92700    1.1523892   -5.9777575    4289.5192            4 
   92800    1.1567716   -5.9963307    4281.2816            4 
   92900    1.1859215   -5.9747337    4278.6118            3 
   93000    1.1678742   -5.9939908    4272.1547            4 
   93100    1.1572503   -6.0080761    4272.2418            6 
   93200    1.1410813   -6.0437923    4264.9691            3 
   93300    1.1365851   -5.9871231    4274.0878            4 
   93400    1.1814634   -6.0055945    4273.9318            4 
   93500    1.1640767   -5.9876693    4265.3709            4 
   93600    1.1753537   -6.0075232    4258.9845            6 
   93700    1.1432667   -5.9621921    4286.8236            6 
   93800    1.1625012   -5.9801649    4283.8587            5 
   93900    1.1546044   -6.0056746    4274.3227            3 
   94000     1.142468     -5.96237     4284.185            6 
   94100    1.1804862   -5.9582603    4276.4381            3 
   94200    1.1532177   -5.9551816    4256.6992            4 
   94300    1.1728287   -5.9845871    4255.2657            2 
   94400    1.1900966   -5.9766635    4279.4688            3 
   94500    1.1638742    -5.994672    4277.5595            5 
   94600    1.1557134   -6.0086319    4285.9211            2 
   94700    1.1503721   -5.9708585    4289.3769            3 
   94800    1.1610218   -5.9745849    4285.4073            4 
   94900    1.1550769   -5.9279838    4287.9056            3 
   95000    1.1816414   -5.9736056    4280.1632            3 
   95100    1.1580582   -5.9777615    4260.5351            6 
   95200    1.1792323   -6.0065976    4266.4229            3 
   95300     1.166527   -5.9523492    4289.6808            4 
   95400    1.1479479   -5.9740513    4292.9071            3 
   95500    1.1425252     -6.00938    4280.3363            2 
   95600    1.1663638   -5.9948573     4270.666            3 
   95700    1.1629337   -5.9717491      4274.02            5 
   95800    1.1495115   -6.0059476    4272.2786            4 
   95900    1.1866994   -6.0031879    4258.2575            3 
   96000    1.1522109   -6.0027682     4272.763            3 
   96100    1.1533422   -5.9722143      4283.74            4 
   96200    1.1814287   -5.9971212    4275.3629            7 
   96300     1.144418    -5.997642    4270.6115            3 
   96400    1.1722112   -5.9835584    4270.1672            5 
   96500    1.1753837   -5.9643021    4278.5244            4 
   96600    1.1455483   -5.9758622    4271.2639            7 
   96700    1.1451333    -6.003324    4282.2454            3 
   96800    1.1436658   -5.9817872    4288.7343            9 
   96900    1.1806928   -5.9977851    4282.0328            5 
   97000    1.1664496   -5.9977596    4284.1105            4 
   97100     1.181855   -6.0013596    4283.1724            5 
   97200    1.1655056   -5.9945402    4264.6176            2 
   97300    1.1470421   -6.0203685    4258.8309            4 
   97400    1.1748483   -6.0052181    4276.6566           10 
   97500    1.1743894   -6.0013144    4272.0583            3 
   97600    1.1412944   -6.0081378    4264.3484            8 
   97700     1.166571   -5.9805956    4275.5095            4 
   97800    1.1545653   -5.9931491    4281.5161            2 
   97900    1.1372532   -6.0238589    4273.2544            4 
   98000    1.1685208   -6.0070752    4258.2738            3 
   98100    1.1566947   -6.0073824    4264.6459           10 
   98200    1.1609888    -5.974437    4273.2236            4 
   98300    1.1829342   -5.9957321    4276.1034            6 
   98400     1.136731   -6.0019423    4270.8991            4 
   98500    1.1484957   -5.9882045    4284.4296            6 
   98600    1.1752342   -5.9752469     4288.856            4 
   98700    1.1659436   -6.0042823    4263.3933            8 
   98800    1.1523568   -5.9859808    4260.0055           11 
   98900    1.1817073   -5.9625722    4269.5736            5 
   99000    1.1686002   -5.9898526    4259.5245            5 
   99100    1.1600639    -6.023238    4268.1032            3 
   99200    1.1458046   -5.9980887    4284.9629            7 
   99300    1.1422415   -5.9755992    4281.1477            6 
   99400    1.1600371   -5.9961956     4264.856            3 
   99500    1.1494351   -6.0211477    4242.9341            4 
   99600    1.1587548   -6.0106232    4260.4892            3 
   99700    1.1717669   -5.9944113    4277.0627            4 
   99800      1.15432   -5.9503461    4278.1908            4 
   99900    1.1425783    -5.996338    4275.2683            2 
  100000    1.1614814   -6.0043254    4283.0661            2 
  100100    1.1667795   -5.9673959    4303.6588            3 
  100200    1.1499265    -5.958677    4283.8067            2 
  100300     1.158831   -5.9491122    4284.5654            4 
  100400      1.18472   -5.9842893    4275.3249            4 
  100500     1.173755   -5.9916664    4251.8484            4 
  100600    1.1772069   -5.9774433    4266.0727            3 
  100700    1.1713598   -5.9472313    4273.5171            3 
  100800    1.1442804   -5.9647699    4257.5975            8 
  100900    1.1573618    -5.967417    4265.3528            4 
  101000    1.1713134   -5.9687384    4286.3284            5 
  101100    1.1836605   -5.9312982    4303.5743            3 
  101200    1.1743521   -5.9640074    4286.8834            2 
  101300    1.1705498   -5.9983998    4281.1168            8 
  101400    1.1469567   -6.0100306    4286.4477            4 
  101500     1.162151   -5.9854704    4300.0584            4 
  101600    1.1536327   -6.0074097    4279.4799            2 
  101700    1.1373346   -5.9998254    4268.0757            6 
  101800    1.1594146    -5.958572    4273.5462            1 
  101900    1.1682657   -5.9874456    4260.9774            3 
  102000    1.1883415   -6.0246197    4261.8731            2 
  102100    1.1594299   -6.0266658    4276.7659            2 
  102200    1.1635413    -5.985912    4292.5122            3 
  102300    1.1680199   -5.9726716    4298.6377            3 
  102400    1.1507011   -6.0068892    4285.1438            5 
  102500    1.1634322   -5.9913494     4290.103            3 
  102600    1.1604549   -5.9685595    4290.2657            3 
  102700    1.1624899   -6.0047487    4263.5895            3 
  102800    1.1810618   -5.9825342    4263.5003            5 
  102900    1.1574503   -5.9668991    4264.4921            2 
  103000    1.1564376   -6.0107303    4263.2703            5 
  103100    1.1547609   -6.0245215    4258.1455            3 
  103200    1.1455715    -5.956609    4282.8214            3 
  103300    1.1645787   -5.9637292    4297.7727            3 
  103400    1.1656676    -6.016742    4287.1493            2 
  103500    1.1549973   -6.0162999    4281.7075            3 
  103600     1.132526   -5.9736516    4281.4004            2 
  103700    1.1784283   -6.0091081    4264.1195            2 
  103800    1.1608893   -6.0235748     4255.722            8 
  103900    1.1622127   -5.9733241    4265.5919            8 
  104000    1.1735972   -5.9691102    4272.0666            4 
Loop time of 179.666 on 28 procs for 100000 steps with 4000 atoms

Performance: 96178.250 tau/day, 556.587 timesteps/s
99.7% CPU use with 28 MPI tasks x no OpenMP threads

MPI task timing breakdown:
Section |  min time  |  avg time  |  max time  |%varavg| %total
---------------------------------------------------------------
Pair    | 16.709     | 17.624     | 18.37      |  10.5 |  9.81
Neigh   | 2.3088     | 2.3361     | 2.4022     |   1.6 |  1.30
Comm    | 11.02      | 13.365     | 14.865     |  33.3 |  7.44
Output  | 3.9798     | 3.9807     | 3.9918     |   0.1 |  2.22
Modify  | 136.33     | 139.37     | 143.28     |  20.3 | 77.57
Other   |            | 2.992      |            |       |  1.67

Nlocal:        142.857 ave         150 max         135 min
Histogram: 2 1 3 1 5 3 9 0 1 3
Nghost:        2141.86 ave        2162 max        2110 min
Histogram: 1 2 2 2 3 2 2 7 2 5
Neighs:        15266.4 ave       16382 max       13955 min
Histogram: 1 0 3 5 5 2 4 3 2 3
FullNghs:      30532.9 ave       32314 max       28965 min
Histogram: 4 0 4 2 5 6 3 0 2 2

Total # of neighbors = 854921
Ave neighs/atom = 213.73025
Neighbor list builds = 6427
Dangerous builds = 0

#clear
#
#next RN
#
#jump SELF
Total wall time: 0:03:01
