
units lj                  # Use reduced LJ style units
atom_style atomic         # Uncharged point particles
atom_modify map hash      # Needed for indexing of clusters etc
                          # Used to be able to find where atoms are in relation to each other.

# Define a lattice with which to populate the simulation cell. With units
# set to 'lj' the second argument to the lattice command is the reduced
# density rho* and the spacings are multiples of that required to acheive
# that density. Also define a simulation cell called 'box' in lattice units
# and fill it with atoms. Here we're creating a box which is ten lattice
# constants in each direction.
lattice fcc 1.0 spacing 1 1 1                 # All equal sizes - gives the right reduced density.
Lattice spacing in x,y,z = 1.5874011 1.5874011 1.5874011

region box block 0 10 0 10 0 10 units lattice # Defines a region, "box", in lattice units
create_box 1 box                              # Creates a simulation box as specified above,
Created orthogonal box = (0.0000000 0.0000000 0.0000000) to (15.874011 15.874011 15.874011)
  3 by 4 by 4 MPI processor grid
                                              # with one type of atom
create_atoms 1 box                            # Creates particles on lattice points
Created 4000 atoms
  using lattice units in orthogonal box = (0.0000000 0.0000000 0.0000000) to (15.874011 15.874011 15.874011)
  create_atoms CPU = 0.002 seconds


# Set the mass of the first (and only) atom type.
mass 1 1.0

# Lennard-Jones interactions between particles, 3.5 sigma cut-off. Apply
# long range tail corrections to energy and pressure and set all coefficients
# to unity since we work in reduced units here. Note that this doesn't shift
# the potential such that it goes to zero at the cutoff. That would require
# pair_modify('shift', 'yes').
pair_style lj/cut  3.5      # non-GPU version
pair_modify tail  yes
pair_coeff 1  1  1.0  1.0   # Intearaction between 1 and 1 set with epsilon = 1 and sigma = 1

write_data data.*
System init for write_data ...
Neighbor list info ...
  update every 1 steps, delay 10 steps, check yes
  max neighbors/atom: 2000, page size: 100000
  master list distance cutoff = 3.8
  ghost atom cutoff = 3.8
  binsize = 1.9, bins = 9 9 9
  1 neighbor lists, perpetual/occasional/extra = 1 0 0
  (1) pair lj/cut, perpetual
      attributes: half, newton on
      pair build: half/bin/atomonly/newton
      stencil: half/bin/3d
      bin: standard

#############################
#   M E L T   S Y S T E M   #
#############################

velocity all create 2.4 9622624 mom yes dist gaussian # Assign velocities
                                                    # Temperature 2.4, random number seed, zero linear momentum
						                                                        # Gaussian distribution

timestep 0.002   # simulation timestep
thermo 1000       # output thermodynamic data every 1000 steps

# Define a fix  in this case with index 1 applied to all
# particles in the simulation. This fix is for simulations
# in the anisotropic NPT ensemble. Note that we use the MTK
# correction.
fix 1 all npt temp 2.4 2.4 0.1 iso 5.68 5.68 0.5 mtk yes tchain 5 pchain 5 # Use NPT ensemble
                                                                         # Set temperature and pressure and damping
                                                                         # Numbers of thermostats in chain and in barostat
run 1000         # run for 10000 steps
Per MPI rank memory allocation (min/avg/max) = 3.642 | 3.644 | 3.648 Mbytes
Step Temp E_pair E_mol TotEng Press Volume 
       0          2.4   -8.3859253            0   -4.7868253   -2.2405722         4000 
    1000    2.3675277   -4.4709979            0  -0.92059417    5.6600046    5150.2326 
Loop time of 0.219725 on 48 procs for 1000 steps with 4000 atoms

Performance: 786437.356 tau/day, 4551.142 timesteps/s
99.3% CPU use with 48 MPI tasks x no OpenMP threads

MPI task timing breakdown:
Section |  min time  |  avg time  |  max time  |%varavg| %total
---------------------------------------------------------------
Pair    | 0.093764   | 0.10021    | 0.115      |   1.3 | 45.61
Neigh   | 0.017828   | 0.018867   | 0.021789   |   0.5 |  8.59
Comm    | 0.059741   | 0.075651   | 0.08426    |   1.8 | 34.43
Output  | 2.5569e-05 | 2.6522e-05 | 3.4287e-05 |   0.0 |  0.01
Modify  | 0.01963    | 0.023421   | 0.028259   |   1.5 | 10.66
Other   |            | 0.001549   |            |       |  0.70

Nlocal:        83.3333 ave          90 max          75 min
Histogram: 3 2 3 4 10 0 12 2 7 5
Nghost:        1388.62 ave        1413 max        1360 min
Histogram: 1 2 4 4 7 12 8 6 2 2
Neighs:        7393.46 ave        8492 max        6395 min
Histogram: 2 3 7 3 11 8 7 4 2 1

Total # of neighbors = 354886
Ave neighs/atom = 88.721500
Neighbor list builds = 87
Dangerous builds = 21

# Equilibrate just above the melting temperature to avoid step fn in T

fix 1 all npt temp 1.25 1.25 0.1 iso 5.68 5.68 0.5 mtk yes tchain 5 pchain 5
run 1000
Per MPI rank memory allocation (min/avg/max) = 3.642 | 3.644 | 3.648 Mbytes
Step Temp E_pair E_mol TotEng Press Volume 
    1000    2.3675277   -4.4709979            0  -0.92059417    5.6600046    5150.2326 
    2000    1.2613379    -5.848842            0   -3.9573082    5.7258602    4335.5859 
Loop time of 0.218222 on 48 procs for 1000 steps with 4000 atoms

Performance: 791852.869 tau/day, 4582.482 timesteps/s
99.6% CPU use with 48 MPI tasks x no OpenMP threads

MPI task timing breakdown:
Section |  min time  |  avg time  |  max time  |%varavg| %total
---------------------------------------------------------------
Pair    | 0.092281   | 0.099811   | 0.11277    |   1.1 | 45.74
Neigh   | 0.01568    | 0.01656    | 0.018817   |   0.4 |  7.59
Comm    | 0.064428   | 0.075842   | 0.086432   |   1.6 | 34.75
Output  | 2.3141e-05 | 2.3804e-05 | 3.016e-05  |   0.0 |  0.01
Modify  | 0.020287   | 0.024072   | 0.031124   |   1.7 | 11.03
Other   |            | 0.001913   |            |       |  0.88

Nlocal:        83.3333 ave          91 max          78 min
Histogram: 6 4 3 15 4 4 7 1 2 2
Nghost:        1554.67 ave        1575 max        1533 min
Histogram: 2 4 1 5 7 14 6 4 2 3
Neighs:        8779.02 ave        9592 max        8178 min
Histogram: 5 6 7 5 5 7 7 1 3 2

Total # of neighbors = 421393
Ave neighs/atom = 105.34825
Neighbor list builds = 76
Dangerous builds = 9


# Small amount of linear quench

fix 1 all npt temp 1.25 ${temp} 0.1 iso 5.68 5.68 0.5 mtk yes tchain 5 pchain 5
fix 1 all npt temp 1.25 2 0.1 iso 5.68 5.68 0.5 mtk yes tchain 5 pchain 5
run 2000
Per MPI rank memory allocation (min/avg/max) = 3.643 | 3.645 | 3.648 Mbytes
Step Temp E_pair E_mol TotEng Press Volume 
    2000    1.2613379    -5.848842            0   -3.9573082    5.7258602    4335.5859 
    3000    1.5706368   -5.3369653            0   -2.9815991    5.7606789    4586.7972 
    4000    1.9583459   -4.8308046            0   -1.8940201     5.840292    4875.8157 
Loop time of 0.432957 on 48 procs for 2000 steps with 4000 atoms

Performance: 798231.355 tau/day, 4619.394 timesteps/s
99.7% CPU use with 48 MPI tasks x no OpenMP threads

MPI task timing breakdown:
Section |  min time  |  avg time  |  max time  |%varavg| %total
---------------------------------------------------------------
Pair    | 0.18662    | 0.19871    | 0.22352    |   1.4 | 45.90
Neigh   | 0.031798   | 0.03303    | 0.037798   |   0.5 |  7.63
Comm    | 0.13075    | 0.14979    | 0.16564    |   2.0 | 34.60
Output  | 4.8479e-05 | 4.9396e-05 | 6.2145e-05 |   0.0 |  0.01
Modify  | 0.036893   | 0.047451   | 0.05884    |   2.9 | 10.96
Other   |            | 0.003921   |            |       |  0.91

Nlocal:        83.3333 ave          91 max          78 min
Histogram: 7 5 4 12 3 4 6 3 2 2
Nghost:        1439.21 ave        1458 max        1426 min
Histogram: 6 7 6 4 7 7 2 4 4 1
Neighs:        7807.31 ave        8742 max        7055 min
Histogram: 3 3 7 10 6 6 6 4 2 1

Total # of neighbors = 374751
Ave neighs/atom = 93.687750
Neighbor list builds = 150
Dangerous builds = 2

#############################
# F R E E Z E  S Y S T E M  #
#############################

# Define solid atoms. This closely follows ten Wolde  Ruiz-Montero and Frenkel  Faraday Discuss  1996  104  93-110
# Compute components of the per-atom q6 vector
compute q6 all orientorder/atom degrees 1 6 components 6 nnn NULL cutoff 1.3 # compute the Q6 parameter.
                                                                             # Use all neighbours within 1.3 unit cell.

# get number of connections
compute coord_number all coord/atom orientorder q6 0.5

# An atom is solid if it has 8 or more connections (of a possible 14)
variable is_solid atom c_coord_number>=8
group solid dynamic all var is_solid    # Must be dynamic to update
dynamic group solid defined

# do clustering
compute cluster solid cluster/atom 1.3 # Create a cluster where all atoms within are solid and max 1.3 units from another member

# define chunks one chunk per cluster
compute clus_chunks solid chunk/atom c_cluster nchunk every compress yes  # Says which atoms are in which chunk

# count the size of each chunk
compute size_chunks solid property/chunk clus_chunks count


# Find the maximum entry in the vector of chunk sizes
variable max_n equal max(c_size_chunks)


# Thermo style which includes this variable
thermo_style custom step temp pe vol v_max_n

thermo ${N}  # Print the thermo information every 100 steps
thermo 1000  

# Reset the npt fix at a lower temperature (below freezing)
fix 1  all npt temp  ${temp} ${temp}  0.1  iso  5.68  5.68  0.5  mtk yes tchain  5  pchain  5
fix 1  all npt temp  2 ${temp}  0.1  iso  5.68  5.68  0.5  mtk yes tchain  5  pchain  5
fix 1  all npt temp  2 2  0.1  iso  5.68  5.68  0.5  mtk yes tchain  5  pchain  5

dump dmp2 all dcd ${N} traj_${rand}.dcd
dump dmp2 all dcd 1000 traj_${rand}.dcd
dump dmp2 all dcd 1000 traj_462431.dcd


# fix rnuntil all halt ${N} v_max_n >= 3980 error soft message no   # Stop when solidified


run 1000000 # 5000000  # Run for this many steps
Neighbor list info ...
  update every 1 steps, delay 10 steps, check yes
  max neighbors/atom: 2000, page size: 100000
  master list distance cutoff = 3.8
  ghost atom cutoff = 3.8
  binsize = 1.9, bins = 9 9 9
  4 neighbor lists, perpetual/occasional/extra = 1 3 0
  (1) pair lj/cut, perpetual
      attributes: half, newton on
      pair build: half/bin/atomonly/newton
      stencil: half/bin/3d
      bin: standard
  (2) compute orientorder/atom, occasional
      attributes: full, newton on
      pair build: full/bin/atomonly
      stencil: full/bin/3d
      bin: standard
  (3) compute coord/atom, occasional
      attributes: full, newton on
      pair build: full/bin/atomonly
      stencil: full/bin/3d
      bin: standard
  (4) compute cluster/atom, occasional
      attributes: full, newton on
      pair build: full/bin/atomonly
      stencil: full/bin/3d
      bin: standard
Per MPI rank memory allocation (min/avg/max) = 9.326 | 9.331 | 9.338 Mbytes
Step Temp PotEng Volume v_max_n 
    4000    1.9583459   -4.8308046    4875.8157            1 
    5000    2.0296214   -4.7615612    4930.9272       -1e+20 
    6000    1.9743932   -4.8228601    4891.3921            1 
    7000     1.968471   -4.8321771    4898.7168            1 
    8000    1.9600532   -4.7596248    4905.0465            1 
    9000     1.952308   -4.8161141     4943.813            1 
   10000    1.9796043    -4.866082    4922.1776            1 
   11000    2.0241921   -4.8228304    4915.1755            1 
   12000    1.9694272   -4.8327963    4878.7912            2 
   13000    2.0219272   -4.7991899    4935.2707            1 
   14000    1.9848208   -4.7797006    4932.1867            2 
   15000    1.9859888   -4.8040783    4901.5231            1 
   16000    1.9886458    -4.801517    4933.5592            1 
   17000     2.039765   -4.7694035    4942.0628            1 
   18000    2.0792823   -4.8042326    4930.9221            1 
   19000    1.9917069   -4.7869949     4914.998       -1e+20 
   20000    2.0075823   -4.7650904    4933.2068            1 
   21000    2.0054618   -4.7727274    4964.7672       -1e+20 
   22000    1.9777211   -4.8021061    4965.9865            1 
   23000    1.9856826    -4.773833    4934.6994       -1e+20 
   24000    2.0445586   -4.8018375     4914.209            1 
   25000    1.9992542   -4.7432273    4913.8031            3 
   26000    1.9708572   -4.7888608    4956.9757            2 
   27000    1.9757951   -4.7611487    4942.7655       -1e+20 
   28000    1.9928399   -4.8389616    4878.8186            1 
   29000    1.9893437   -4.7992615    4916.3142            1 
   30000    1.9983768   -4.8185302    4898.4385            1 
   31000    1.9995346   -4.7843541    4900.8746            1 
   32000    1.9947546   -4.7762313    4978.2022       -1e+20 
   33000    2.0289316   -4.7852837    4925.7333            1 
   34000    1.9754266   -4.8218466    4915.9728       -1e+20 
   35000    1.9657642   -4.8056585    4908.9788       -1e+20 
   36000    1.9672444   -4.8377959    4928.6335            1 
   37000    2.0030891   -4.8225866    4931.1192            1 
   38000    2.0063728     -4.80128    4911.9812            1 
   39000    2.0498888   -4.7888729    4926.1799            1 
   40000    2.0117792   -4.7876519    4929.4594            1 
   41000    2.0228103   -4.7857861    4909.1374            1 
   42000    1.9871923   -4.8079192     4908.985            1 
   43000    2.0264026   -4.8367025     4924.133            2 
   44000    1.9734555   -4.8117586    4898.3197            1 
   45000    1.9775233   -4.7842937    4913.5424            1 
   46000     2.026529   -4.7810988    4948.9249            1 
   47000    2.0295507    -4.788669    4917.4355            1 
   48000    1.9319058   -4.7819038    4944.1748            1 
   49000    1.9649877   -4.8034772    4941.3947            1 
   50000    1.9940613    -4.801126    4945.5912       -1e+20 
   51000    2.0263054   -4.8143064    4921.2604            1 
   52000    2.0001773   -4.8201535    4901.6083            1 
   53000    2.0285267   -4.7804013    4937.8608            1 
   54000    1.9767976   -4.8040093    4927.4628            1 
   55000     1.987795   -4.8874628    4922.7597            2 
   56000     2.034299   -4.8042357    4894.0223            1 
   57000    2.0026981   -4.8631878    4882.6679       -1e+20 
   58000    1.9822047   -4.7840812    4914.8616       -1e+20 
   59000    2.0059925   -4.7643874    4918.6435            1 
   60000    1.9607295   -4.7710887    4929.0129            1 
   61000     1.993811   -4.7745926    4912.4817            1 
   62000    2.0077905   -4.7830842    4916.9109            1 
   63000    2.0357686   -4.7455016    4949.2636            1 
   64000    1.9631994   -4.7967482    4902.0735            1 
   65000    2.0113368   -4.7967464    4937.8571            1 
   66000    1.9976083   -4.8092344    4894.7996            1 
   67000    2.0043986   -4.7640711    4934.7233            1 
   68000    1.9800627   -4.8073917      4941.18       -1e+20 
   69000    2.0416802   -4.7791876    4932.8793            1 
   70000    1.9653951   -4.8118805    4927.3773            1 
   71000    1.9861723   -4.8488594    4914.2515            2 
   72000    1.9865777   -4.7726749    4900.9196            1 
   73000    1.9971778   -4.8439197    4908.9624            2 
   74000    1.9984503   -4.7745684     4943.187            1 
   75000    2.0887861   -4.7706971    4906.4093            1 
   76000    1.9813723   -4.8274535    4906.6913            1 
   77000     2.023038     -4.76859     4930.473       -1e+20 
   78000     2.006939   -4.7499497    4957.1144       -1e+20 
   79000    2.0003179   -4.8486772    4914.0596            1 
   80000    1.9678531   -4.7789706    4910.6573            1 
   81000     1.941032   -4.8394492    4897.7375            1 
   82000    1.9979881   -4.7912341    4919.8453            1 
   83000     2.024387   -4.8202701    4909.8799       -1e+20 
   84000    1.9815167   -4.7919332    4939.0489            1 
   85000    1.9626747   -4.8118632    4927.2424            1 
   86000    2.0085259   -4.8062456    4919.3607            1 
   87000    1.9485709   -4.7621947    4959.5398            2 
   88000    1.9478027   -4.7566497    4902.6385            1 
   89000    1.9733254   -4.7584004     4943.719            1 
   90000     2.025247   -4.7782956    4936.7749       -1e+20 
   91000     1.990516   -4.8160998    4926.4661            1 
   92000    2.0118631    -4.820226    4912.2366            2 
   93000     1.993631   -4.8101806    4897.3259            1 
   94000    1.9670274   -4.8132565    4948.7239            2 
   95000     1.959749   -4.8264372    4901.7226            2 
   96000     2.006041   -4.7977413    4966.0263            2 
   97000    2.0054641   -4.7949512    4871.9665            1 
   98000    2.0697519   -4.7561682    4954.7162       -1e+20 
   99000    2.0165159    -4.817084    4880.8701       -1e+20 
  100000    2.0538613   -4.7682024    4925.4019            1 
  101000    2.0239931   -4.8006046    4936.7118            1 
  102000    2.0082684   -4.8650931    4909.7701            1 
  103000    1.9946174    -4.845441    4890.1733       -1e+20 
  104000     2.047062   -4.8261441    4902.7244            1 
  105000    1.9605841   -4.8462338     4890.689            2 
  106000    1.9891531   -4.7725131    4916.8869            1 
  107000    1.9610262   -4.7814579    4911.4031            1 
  108000     2.012303   -4.8078022    4924.9806            1 
  109000    1.9986977    -4.818387    4898.4521            2 
  110000    2.0384215   -4.7733995     4907.273       -1e+20 
  111000     1.963415   -4.7747861    4928.9193       -1e+20 
  112000     1.991781   -4.8137773    4868.1382            1 
  113000    1.9298211   -4.7949287    4938.0005            1 
  114000    2.0157138   -4.7554708    4907.2841            1 
  115000    1.9922242   -4.7829531    4939.9419            1 
  116000    1.9716655    -4.871324     4893.566            1 
  117000    1.9855828   -4.8135086    4919.6335       -1e+20 
  118000    2.0423636   -4.8078013    4915.1458            1 
  119000    1.9463537   -4.8137233    4913.8528       -1e+20 
  120000    2.0320108   -4.7529921    4928.9816            1 
  121000    1.9644479   -4.8396752    4933.9432            1 
  122000     1.936527   -4.8065526    4902.0013            1 
  123000    1.9873347   -4.8130961    4905.8484            1 
  124000    2.0054542   -4.8283673    4903.8089            1 
  125000    1.9940846   -4.7953796    4933.4274            1 
  126000    1.9932158   -4.8372135    4924.4238            1 
  127000    2.0368217   -4.7600736    4921.6924            1 
  128000     1.995074   -4.7770483    4922.3389            1 
  129000    1.9505247   -4.7901541    4910.6426            2 
  130000    2.0026205   -4.7997744    4957.4195            1 
  131000     1.960758   -4.7266241     4930.967            1 
  132000    1.9898018   -4.8237208     4948.878            1 
  133000    1.9842208   -4.8027671    4920.1048            1 
  134000    2.0500433   -4.8322076    4909.0777            1 
  135000    2.0147894   -4.8232404     4943.186            1 
  136000    1.9777054   -4.8113398    4928.2729            1 
  137000    1.9825323   -4.8174055    4884.3631       -1e+20 
  138000    1.9670261   -4.8032156    4926.5531            3 
  139000    2.0186339   -4.7353014    4923.9696            1 
  140000    1.9718113   -4.7600639    4936.2835       -1e+20 
  141000    1.9963688   -4.8100944     4944.806            1 
  142000      1.99458   -4.7943028    4937.9762            1 
  143000    2.0027127   -4.8373616    4891.1361            1 
  144000    1.9883727   -4.8193971    4897.8404            1 
  145000    1.9522923   -4.8143367    4922.1264       -1e+20 
  146000    2.0140755   -4.7580713     4913.497       -1e+20 
  147000    1.9715253   -4.8126122    4928.5076            1 
  148000    1.9906815   -4.7686449    4914.2535            1 
  149000    1.9947256   -4.7904478    4911.5476            1 
  150000    1.9889282    -4.789581    4899.6515            1 
  151000    1.9780129   -4.7900733    4884.3437            1 
  152000    1.9211634   -4.7910225    4939.5973       -1e+20 
  153000    2.0512935   -4.7412139    4942.7737            1 
  154000    2.0316483   -4.7973029    4899.5647            2 
  155000    2.0285474   -4.8396923     4904.242            1 
  156000    1.9854383   -4.8070069    4901.3234            1 
  157000    2.0148905   -4.7755174    4934.5096            1 
  158000    1.9990239   -4.7793457    4897.9495            1 
  159000    1.9959427   -4.8520736    4902.4174            1 
  160000    1.9967197   -4.7619042    4916.5636            1 
  161000    1.9751993   -4.7701647    4931.8979            1 
  162000    1.9855558   -4.7907992    4938.0004            2 
  163000    2.0582143   -4.8082619    4948.4055            1 
  164000    1.9598747   -4.7498415    4967.5071            1 
  165000     2.014773   -4.8129295    4885.0967            1 
  166000    1.9603775   -4.7527784    4952.6056            1 
  167000    1.9667378   -4.7636994    4954.1102            2 
  168000    1.9454186   -4.8532346    4872.6963            2 
  169000    2.0019264   -4.7601469    4923.3377            1 
  170000    1.9681181   -4.7857959     4911.534            1 
  171000    2.0166416   -4.8036007     4918.673            4 
  172000    2.0008025   -4.8141919    4929.1743            1 
  173000    2.0396115   -4.8367686    4916.2701            1 
  174000    2.0367695   -4.7610399    4952.2346            1 
  175000    1.9781351   -4.8472571    4923.7032            1 
  176000    1.9937682   -4.8076226     4901.572            1 
  177000    1.9662397   -4.8602222    4935.7326            1 
  178000    2.0141809   -4.7875574    4938.1994            1 
  179000    1.9779202   -4.8148367    4932.9935            1 
  180000    1.9737994   -4.7941512    4908.7298            1 
  181000    1.9881861   -4.8024322    4923.3913            2 
  182000    1.9474542   -4.8037764    4924.4014            1 
  183000    1.9429644   -4.8131978     4889.102            1 
  184000    2.0444545    -4.848224    4912.4809            1 
  185000    2.0130756   -4.7475409    4877.9411            1 
  186000     1.952608   -4.7927528    4916.1183            1 
  187000    2.0011108   -4.7636481    4919.7843            1 
  188000    2.0131859   -4.8240964    4940.7266            1 
  189000    2.0020765     -4.77311    4923.6361            1 
  190000     1.984736   -4.7679094    4932.0622            1 
  191000    1.9440307   -4.8138062    4907.4722            1 
  192000    2.0441696   -4.8153905    4888.2292            1 
  193000    1.9839182   -4.7846083    4924.8586            1 
  194000     1.999183   -4.7499757    4960.9788            1 
  195000    1.9910051   -4.7878996    4894.5039            1 
  196000    1.9747831   -4.7683975    4915.1877            1 
  197000    2.0245822   -4.8047871    4925.2723            1 
  198000    1.9741997   -4.7464725    4941.9336            1 
  199000    1.9697666   -4.7985088    4890.6915            1 
  200000     1.999459   -4.8292397    4915.1813            1 
  201000    1.9731487   -4.7734646    4963.8013       -1e+20 
  202000    1.9522091   -4.8016949    4906.6318            1 
  203000    2.0422151   -4.7875273    4919.9947            2 
  204000    2.0122719   -4.8502448    4933.4319            2 
  205000    1.9853318   -4.8517598    4915.5472            1 
  206000    1.9551926   -4.8346944    4905.9957            1 
  207000    2.0234934   -4.7840998    4929.3028            1 
  208000    1.9835087   -4.7711487    4904.0936            1 
  209000    2.0359185   -4.7958672    4923.2857            2 
  210000    2.0317048   -4.7689434    4938.8566            1 
  211000    1.9658193   -4.7897123    4925.4397       -1e+20 
  212000    1.9894005   -4.7949816    4960.8881            2 
  213000    2.0281615   -4.8169609    4910.9935            1 
  214000    1.9557978   -4.8151218    4929.5718            1 
  215000    1.9991748   -4.7576236    4933.8427            2 
  216000    2.0077204   -4.8212283    4896.4716       -1e+20 
  217000    2.0633375   -4.7597324    4933.4363       -1e+20 
  218000    2.0002617   -4.8067411    4924.0017            3 
  219000    2.0084422   -4.8040249    4929.1662            1 
  220000    1.9956615   -4.8308314    4885.1998            1 
  221000     1.980896   -4.8218695    4907.7546       -1e+20 
  222000    1.9958263   -4.8363752     4928.346       -1e+20 
  223000    2.0072449   -4.7961163    4937.7397       -1e+20 
  224000    2.0082122   -4.7720347    4945.3522            1 
  225000    1.9680458   -4.7981053     4895.525            1 
  226000     2.019743   -4.7628608    4947.5919            1 
  227000    2.0239031   -4.7715004    4934.6397            1 
  228000      1.97976   -4.8197929     4931.536            1 
  229000    1.9749641    -4.774673    4904.4504            1 
  230000    1.9421354   -4.7902746    4902.5643            1 
  231000    1.9626312   -4.8221518    4918.4308            1 
  232000    2.0089045   -4.7974539    4918.6366            2 
  233000    2.0370379   -4.8140146    4909.4574            1 
  234000    2.0617821   -4.8206325    4939.0251            1 
  235000    1.9793892    -4.758108    4920.4771            1 
  236000    1.9934161   -4.8263776    4929.0151            1 
  237000    2.0055754   -4.8071889    4897.1503            2 
  238000    2.0015887   -4.7723701    4893.1885            1 
  239000     2.031947   -4.8242869    4939.2716            1 
  240000    1.9493481   -4.8264784    4916.8924            1 
  241000    1.9965256   -4.7718904    4959.2656            1 
  242000    1.9942559   -4.7584531    4934.7642       -1e+20 
  243000    1.9890325   -4.7727881    4933.1256            1 
  244000    2.0303791   -4.7662011    4920.4225            1 
  245000     2.025553   -4.8298187    4911.3732       -1e+20 
  246000    1.9678184   -4.7962186    4918.9499            1 
  247000    2.0013087    -4.839386    4896.1668            1 
  248000     1.991387   -4.7855057    4935.8801            1 
  249000    2.0179665   -4.7535378    4935.3846            1 
  250000    1.9583504   -4.7941126    4955.7209            1 
  251000     1.987251   -4.7697898    4966.6637            1 
  252000    1.9837899   -4.8200254    4920.0144       -1e+20 
  253000    2.0400755   -4.8252714    4935.8242            1 
  254000    1.9959531   -4.7990896    4909.7444       -1e+20 
  255000    2.0020287   -4.7962561    4908.7457       -1e+20 
  256000    1.9732684   -4.7726583    4940.6631            1 
  257000    1.9890076   -4.7555931    4920.8192            1 
  258000     1.959517   -4.7749445    4920.6712            1 
  259000    1.9714197   -4.8412696    4929.9972            1 
  260000    1.9855931   -4.8258731    4922.5923            1 
  261000    2.0167802   -4.7988029    4921.4497       -1e+20 
  262000    1.9664549   -4.8661966    4904.4762            2 
  263000    2.0079085   -4.8325324    4891.3067       -1e+20 
  264000    1.9960631   -4.7866194    4953.2941            1 
  265000    2.0193432   -4.7337721    4937.6617            1 
  266000    2.0022759   -4.7952043    4915.1992            2 
  267000    2.0067163   -4.7487899      4931.07            1 
  268000    2.0370061    -4.804425    4886.0381            1 
  269000    2.0378643   -4.8245109    4899.5379            1 
  270000    2.0043062   -4.8281378    4927.5193            1 
  271000    2.0051855   -4.8203018      4897.15            2 
  272000    1.9894929   -4.7963769    4943.5763       -1e+20 
  273000    1.9661134   -4.7405794    4949.1734       -1e+20 
  274000    2.0024287   -4.8227884    4920.2392            1 
  275000    2.0151616   -4.8135587    4937.1581            1 
  276000    1.9961062   -4.7590242    4929.9351            2 
  277000    2.0397451   -4.8183706    4926.9811       -1e+20 
  278000     1.983551    -4.810894    4963.6817            1 
  279000    1.9919017   -4.7663318    4926.6301            1 
  280000    2.0078837   -4.8248094     4893.297            1 
  281000    2.0064353   -4.8481787    4900.4828            1 
  282000    1.9556953   -4.8224341     4907.064            1 
  283000    2.0266295   -4.8161327    4917.2488            3 
  284000    1.9917477    -4.792135    4911.3807       -1e+20 
  285000    2.0149822   -4.8065639    4951.0451            1 
  286000    1.9906448   -4.7867345      4928.25            1 
  287000    2.0412309   -4.7978796     4931.934            1 
  288000    1.9805767   -4.8275205    4882.3231            1 
  289000    2.0149146   -4.8068508    4929.2235            1 
  290000    1.9997438   -4.8324982    4913.3565       -1e+20 
  291000    1.9596354   -4.8408417    4915.8663            1 
  292000    1.9977671   -4.7332246    4924.6903            1 
  293000    1.9986679   -4.7895218    4947.8898            1 
  294000    2.0471491   -4.7754809       4936.2            1 
  295000    1.9736767      -4.7963    4931.3069            1 
  296000    2.0164388   -4.8206479    4926.4438            1 
  297000    2.0273632   -4.8197957    4958.6889       -1e+20 
  298000     1.984864   -4.7743057    4897.5467       -1e+20 
  299000    1.9678917   -4.7792709    4942.2008            1 
  300000    2.0156201   -4.7953457     4909.251            1 
  301000    1.9670625   -4.8146094    4905.5078            1 
  302000    2.0309818   -4.8046774    4907.2166            3 
  303000    2.0013999   -4.8005591    4907.7589       -1e+20 
  304000    1.9908503   -4.7614995    4914.7024            2 
  305000    2.0683128   -4.7652663    4930.5682            1 
  306000    2.0259852   -4.8151138    4892.7729            1 
  307000    1.9720444   -4.8091408    4927.7465            2 
  308000    1.9661087   -4.7502798    4918.2187            1 
  309000     1.968348     -4.79216     4913.636            1 
  310000    1.9912719   -4.7691571    4918.3755            1 
  311000     1.982489   -4.7923455    4935.1263            1 
  312000    1.9777713   -4.7591424    4957.8636            1 
  313000    1.9813774   -4.8285891    4934.5255            1 
  314000    2.0350372   -4.8129495    4905.0093       -1e+20 
  315000    1.9715495   -4.7934922     4931.611            2 
  316000    1.9932396   -4.8501305    4912.3251            1 
  317000    1.9920715   -4.7812255    4915.5299            1 
  318000    1.9983617   -4.8032481    4922.7941            1 
  319000    1.9978384   -4.8097468    4887.9675            1 
  320000    2.0191178   -4.8209938    4923.9145            1 
  321000    2.0086992   -4.7890434    4917.2083       -1e+20 
  322000    1.9955877   -4.7941216    4936.8642            1 
  323000    1.9617799   -4.7484822    4945.3123            1 
  324000    1.9728581   -4.7740808    4920.5785            1 
  325000    1.9570832    -4.765104    4939.5151            1 
  326000    2.0010336   -4.7849775    4965.1012            1 
  327000    2.0271593    -4.811057    4932.2818            1 
  328000    1.9944183   -4.7692556    4918.8491       -1e+20 
  329000    1.9766977    -4.809938    4892.1588            2 
  330000    2.0091915    -4.756327    4951.7057            1 
  331000    1.9853703   -4.7943608    4909.6026            1 
  332000    2.0005278   -4.7895389    4930.4447            1 
  333000    2.0049217   -4.7991515    4950.8512            1 
  334000    1.9674393   -4.7638021    4948.7998            1 
  335000    2.0267702   -4.7938305    4900.6695            1 
  336000    2.0289138   -4.7676525     4981.117            2 
  337000    2.0302929    -4.805984    4880.9357       -1e+20 
  338000     1.993408   -4.7744018    4927.9841            1 
  339000    2.0100452    -4.785718    4924.2653            1 
  340000    2.0360381   -4.7921638    4885.0576            2 
  341000    1.9552764   -4.8466402     4878.483            2 
  342000    2.0256408   -4.7840351    4914.2798            1 
  343000    1.9500013   -4.7824856    4925.6459            1 
  344000    2.0232584   -4.8118944     4899.204            2 
  345000    2.0244833   -4.8226585    4918.7117            2 
  346000    1.9633331   -4.7956583    4898.9463            1 
  347000     1.932183   -4.7807872    4913.1852            1 
  348000    1.9408475   -4.7830976    4922.0223       -1e+20 
  349000     2.002573   -4.8297681    4918.1741            1 
  350000    1.9916336    -4.778964    4955.0569       -1e+20 
  351000    1.9672315   -4.8181471      4887.11       -1e+20 
  352000     2.002721   -4.8089377    4914.4299            1 
  353000    1.9914805   -4.7537001      4943.92       -1e+20 
  354000    1.9814028   -4.7940647    4932.0116            1 
  355000    1.9472566   -4.7635511    4921.2657            1 
  356000    1.9621331   -4.8146051    4902.5634       -1e+20 
  357000    1.9923883   -4.7920258    4911.5992            1 
  358000    2.0197528   -4.8330097    4888.3273            1 
  359000    1.9995066   -4.7848532    4939.3613            3 
  360000     1.988807   -4.8307778    4921.7101            2 
  361000    1.9777099   -4.7903896     4932.237       -1e+20 
  362000    1.9620341   -4.7968516    4920.7491            1 
  363000     1.995795   -4.7660937    4930.8659            1 
  364000    1.9488594    -4.790129    4912.8191            1 
  365000     2.027713   -4.8109855    4941.7075            1 
  366000    2.0249617   -4.7971898    4924.5241            2 
  367000    1.9691875   -4.7775216     4928.797            1 
  368000    1.9741805   -4.8039296    4897.8799            3 
  369000    2.0262362   -4.8491236    4887.9695            1 
  370000    1.9817584   -4.8059743    4944.2457            1 
  371000    2.0603692   -4.8210861    4927.6102            1 
  372000    2.0255814   -4.8173869    4900.3831            1 
  373000    1.9616761   -4.8134921     4904.319            2 
  374000    1.9923316   -4.8313125    4892.7266            1 
  375000    2.0055585   -4.7317725    4962.9179            1 
  376000    2.0312132   -4.7885335    4938.6714            1 
  377000    2.0049055   -4.8398595    4897.4849            1 
  378000    1.9646974   -4.7724328    4938.8043            1 
  379000    1.9986939   -4.8013509    4940.9943       -1e+20 
  380000     2.003342   -4.8309942    4916.9642       -1e+20 
  381000    2.0228619   -4.8188485    4916.4759            1 
  382000    2.0164289   -4.8335205     4913.878            1 
  383000    2.0137417   -4.7911596    4931.6395            1 
  384000    1.9995532   -4.8411675    4925.3363            1 
  385000    2.0344745   -4.7649061    4948.1017            1 
  386000    1.9715553   -4.7911043    4935.7071            1 
  387000    2.0138734   -4.7784871    4959.4163            2 
  388000    1.9750226   -4.8334326    4887.8491            1 
  389000    2.0210993   -4.8483423    4879.7224            1 
  390000    1.9786949   -4.8258661    4914.2215            1 
  391000    2.0341262   -4.8233103    4901.1719            1 
  392000    2.0355627   -4.7876817    4915.9002            1 
  393000    1.9375504   -4.8095753    4937.0925            1 
  394000    2.0247798   -4.7848508    4927.9129       -1e+20 
  395000    2.0661333   -4.7986117    4951.8498            1 
  396000    2.0271487    -4.781956    4922.2905            1 
  397000    1.9790322   -4.7317661    4964.8112            1 
  398000     2.023713   -4.8286348    4901.9488            1 
  399000    1.9754223   -4.8106721    4913.3131            1 
  400000    2.0207476   -4.8192643    4916.6106            1 
  401000    1.9785607   -4.7907738    4938.7704            1 
  402000    2.0057298   -4.8144522    4924.1104       -1e+20 
  403000    2.0120223   -4.7950342    4912.9934            1 
  404000    1.9982807   -4.7816177    4924.7263            1 
  405000    2.0080984   -4.7292844    4950.2062            1 
  406000    1.9817024   -4.8204262    4892.5289            1 
  407000    1.9723457   -4.7856385    4921.2566            1 
  408000     1.988617   -4.7571618    4954.4906            1 
  409000    1.9806641   -4.7817688    4943.8508            1 
  410000     2.037203   -4.7712421    4946.7629            1 
  411000    1.9632223   -4.8013492    4935.8325            1 
  412000    2.0106356   -4.8276274    4925.9625            1 
  413000    1.9674755   -4.7609685     4932.061       -1e+20 
  414000     1.988208   -4.7925934    4910.0396            1 
  415000    1.9901125    -4.791055    4921.8037            1 
  416000    2.0396818   -4.8310966    4920.0244            1 
  417000    2.0504182   -4.8160167    4924.4187            1 
  418000    1.9951339   -4.7532679    4937.1969            1 
  419000    1.9431984   -4.7853969    4930.5495       -1e+20 
  420000    1.9871248   -4.8357339    4882.8417            2 
  421000    2.0094202   -4.8188357    4883.8312            1 
  422000    2.0131974   -4.8279388    4927.6519            1 
  423000    1.9601385   -4.7733694    4925.2606       -1e+20 
  424000    1.9776915   -4.7931815    4916.5104            1 
  425000    1.9868282   -4.7877736    4905.6935            1 
  426000    2.0564219   -4.7808264     4949.625            1 
  427000    2.0226549   -4.8099372     4902.505            2 
  428000    2.0297149   -4.7946357    4911.5379            2 
  429000    1.9693634   -4.7819323    4945.9376       -1e+20 
  430000    2.0207452   -4.8427646    4904.1485            1 
  431000    1.9795788    -4.809449    4911.4987            1 
  432000    2.0189444   -4.8569348    4902.8342            1 
  433000    2.0300004   -4.8354627    4889.3698            1 
  434000    2.0200258   -4.8442697    4944.8537       -1e+20 
  435000    2.0277481   -4.8336741    4907.2419            1 
  436000    1.9423757   -4.7970059     4900.485            2 
  437000    1.9827968   -4.7697772    4903.1822            1 
  438000    1.9920541   -4.7973595    4900.8222            1 
  439000    1.9553248   -4.7973768    4925.7021            1 
  440000    1.9945734   -4.7642724    4870.3233            1 
  441000    2.0419994    -4.783946    4925.2551       -1e+20 
  442000    1.9967377   -4.8050734     4938.002            1 
  443000    2.0409014   -4.7787955    4921.4503       -1e+20 
  444000    2.0355976   -4.7795759    4914.7926            1 
  445000    2.0714644   -4.8274713    4930.8906            1 
  446000    1.9811773   -4.8358679     4919.354            1 
  447000    2.0277414   -4.8080472    4932.4901       -1e+20 
  448000    1.9699611    -4.803031    4916.9535            1 
  449000    1.9585863   -4.7943816    4903.7513            1 
  450000    2.0072738   -4.8383206    4898.7171            1 
  451000    2.0492351   -4.8038503    4922.1696            2 
  452000    2.0384627   -4.7603122    4967.2809            1 
  453000    2.0030158   -4.7752726    4944.7285       -1e+20 
  454000    2.0711452   -4.7929727    4927.5965            1 
  455000    1.9885008   -4.7805177    4945.8802            1 
  456000    2.0140256   -4.8409036    4924.8503            1 
  457000     1.991637   -4.8326584     4903.084            1 
  458000    2.0069537   -4.8367051    4920.5885            2 
  459000    2.0329828   -4.7914033    4912.1502            1 
  460000    1.9641317   -4.8049675    4929.5455            1 
  461000    2.0203395   -4.7837313    4926.7738            2 
  462000    2.0282296   -4.8301475    4902.3963            1 
  463000    1.9805109   -4.8310964    4896.6233            2 
  464000    2.0261277   -4.8193138     4928.554            1 
  465000    1.9721628   -4.8044621    4912.4471            2 
  466000    1.9961749    -4.792761    4913.6571            1 
  467000    2.0591221    -4.802014    4895.5941            1 
  468000    1.9991253   -4.8128898    4922.6133            1 
  469000    2.0025946   -4.7908005    4902.3414            1 
  470000      1.99887    -4.785147    4937.8756            1 
  471000    1.9855344   -4.7860656    4905.3717            1 
  472000    2.0341699   -4.8514753     4934.545            2 
  473000    2.0188836   -4.7463866    4919.4256            1 
  474000    2.0041546   -4.7575423    4934.1237            1 
  475000    1.9822635   -4.8231549    4929.4123            1 
  476000    2.0097738   -4.7689057    4916.3545            1 
  477000    2.0307555   -4.7406883    4934.6745            1 
  478000    1.9771275   -4.7948129    4905.5407            1 
  479000    1.9802461   -4.8281742    4911.9116       -1e+20 
  480000    2.0179006   -4.7955395    4914.1924            1 
  481000    2.0295313   -4.8089533    4916.5604            1 
  482000    1.9855912   -4.8128922    4900.8321       -1e+20 
  483000    1.9647239    -4.821677    4913.5138            1 
  484000    2.0153008   -4.7686159     4923.027            1 
  485000     1.986033   -4.7728427    4951.5164            2 
  486000    1.9515918   -4.8330383    4914.9756            1 
  487000     2.000012   -4.7932986     4912.745            2 
  488000    2.0017297   -4.8337212    4931.9606            1 
  489000    2.0115852   -4.7754706    4954.0544            1 
  490000    2.0333684   -4.8201094    4904.3451       -1e+20 
  491000    2.0254762   -4.7976435    4917.8919            1 
  492000    2.0119051   -4.8244556    4908.9773            1 
  493000    2.0317311   -4.8675493    4874.4035            1 
  494000    1.9585506   -4.7606817     4927.169            1 
  495000    1.9919238   -4.7648566    4963.0802            1 
  496000    1.9885398   -4.8275092    4894.2908            1 
  497000    2.0028989   -4.7933789    4919.1986            1 
  498000    2.0131658   -4.8009573    4910.3601            1 
  499000    1.9790467   -4.7943501    4921.9646            1 
  500000    2.0172499   -4.7688752    4954.1227            1 
  501000    1.9907472   -4.7847103    4914.5267            2 
  502000    1.9808519   -4.8134559    4902.0462            1 
  503000    2.0040957   -4.7355257    4907.1159            1 
  504000    1.9745233   -4.7958934    4942.7875            1 
  505000    1.9932428   -4.8074702    4888.0504       -1e+20 
  506000    2.0112716   -4.7662171     4929.406            1 
  507000    1.9575132   -4.8097573    4921.4397            1 
  508000    1.9561721   -4.8060723    4922.7845            1 
  509000    1.9634759   -4.8004234     4907.776       -1e+20 
  510000    2.0232389    -4.831627    4892.3751       -1e+20 
  511000    2.0393773    -4.804225    4914.5837            1 
  512000    2.0062806   -4.8057221    4912.1696            2 
  513000    2.0238722   -4.8539537    4889.9111       -1e+20 
  514000    1.9743938   -4.7819526    4934.0613            1 
  515000    1.9528207   -4.8431631    4936.5393            1 
  516000    2.0548407   -4.7358269    4899.6347            1 
  517000    1.9843351   -4.7581596    4942.6616            2 
  518000     1.975015   -4.8485353    4889.4994            3 
  519000    1.9798746    -4.751048    4929.4846            1 
  520000    1.9848483   -4.7755515    4925.0315            1 
  521000    2.0200317   -4.8313645    4940.1397            1 
  522000    1.9928444   -4.7989679    4947.8958       -1e+20 
  523000    2.0397707   -4.8065623    4921.0633            1 
  524000    2.0177919   -4.7870304    4918.3495            1 
  525000    1.9267818   -4.7933988    4909.7938            1 
  526000    2.0185422     -4.85363    4916.5929            3 
  527000    2.0254082   -4.8642141    4883.1348       -1e+20 
  528000    2.0149039   -4.8523883    4872.4858            1 
  529000    1.9967985   -4.8792185    4880.1782            1 
  530000    1.9660586   -4.8010963    4901.3448            2 
  531000    2.0082962   -4.7858069    4936.5843            1 
  532000    1.9701361   -4.7871476    4922.7382            1 
  533000    1.9773402   -4.8222501    4909.0366            1 
  534000    1.9936674    -4.822456     4905.449       -1e+20 
  535000    1.9805418    -4.794737    4911.8633       -1e+20 
  536000    1.9651654   -4.8248526    4912.1576            1 
  537000    1.9882485   -4.8430113    4892.7741            3 
  538000    1.9699349    -4.790864    4929.4923            1 
  539000    2.0247699   -4.7940298    4907.5197            1 
  540000    1.9903893   -4.8092285    4921.4155            1 
  541000    2.0049335   -4.7543615    4933.8796            1 
  542000    1.9962215   -4.7687291    4908.7967            1 
  543000    2.0187624   -4.8298013    4904.0976            1 
  544000    2.0199298   -4.7470412    4935.9905       -1e+20 
  545000    2.0178988   -4.7818768    4913.7042            3 
  546000    2.0061737    -4.821548    4927.4615            1 
  547000    2.0222548   -4.8024368    4923.0581            2 
  548000    2.0047804   -4.7427894     4909.718            1 
  549000    1.9993356   -4.7229715    4955.0938            1 
  550000    2.0081217   -4.7975443    4902.5767            2 
  551000    2.0043547   -4.8110487    4922.4843            1 
  552000    2.0103308   -4.7910418    4921.8046            1 
  553000     2.011718   -4.8048176    4887.8109            1 
  554000    2.0119157   -4.8169173    4925.3523            2 
  555000    2.0098717   -4.7969266    4921.7049            1 
  556000    2.0416694   -4.7973192    4927.6608            2 
  557000    1.9932765   -4.8291586    4916.7981            2 
  558000    2.0124744   -4.8407242    4912.0477            3 
  559000    1.9659623   -4.8431472    4905.6988            1 
  560000    2.0465881   -4.8219817    4891.9632            2 
  561000    1.9997739   -4.7884633    4923.2051            1 
  562000    2.0475129   -4.8382413    4917.5231            1 
  563000    2.0270972   -4.8037176    4900.9351       -1e+20 
  564000    2.0194368   -4.8116109    4952.4462            1 
  565000    2.0209703   -4.8449474    4887.9702       -1e+20 
  566000    2.0055034   -4.7772381    4932.2912            1 
  567000    2.0116868   -4.7894004     4892.794            1 
  568000    2.0170329   -4.8300468      4887.39            1 
  569000    1.9711659   -4.7627425    4950.1724            1 
  570000     1.976091   -4.7838223     4910.851            1 
  571000    2.0079106   -4.7952525    4920.0926            1 
  572000    1.9928732   -4.8261322    4881.9797            1 
  573000    1.9630279   -4.7897079    4940.9223            1 
  574000    1.9886663   -4.8208704    4926.1429            1 
  575000    2.0311805    -4.821541    4896.2288            1 
  576000    2.0076396    -4.751071    4944.5086       -1e+20 
  577000    1.9876066   -4.8125424    4950.0857            1 
  578000    1.9543423   -4.7532299    4930.2877            2 
  579000    1.9690276   -4.7937582     4932.844            1 
  580000     1.977149   -4.8063769    4901.6905            1 
  581000    2.0222662   -4.7609381    4923.7494            1 
  582000    1.9855315   -4.7935586    4942.3758            1 
  583000    2.0027295   -4.7899976    4908.2292            1 
  584000     2.003387   -4.7898994    4943.3535       -1e+20 
  585000    1.9808476   -4.8180302    4908.3126            1 
  586000    1.9828988   -4.7770922    4912.3696            2 
  587000    2.0094329   -4.7781906     4965.821            1 
  588000    2.0112919   -4.8189527    4907.4619            1 
  589000    1.9818466   -4.8335944    4902.3434            1 
  590000    2.0086779   -4.7890264    4932.3961            1 
  591000    2.0156353   -4.7614915    4971.8902            1 
  592000    1.9958125   -4.8182145    4927.2712            1 
  593000      2.00389   -4.8191711    4924.4135            1 
  594000    1.9441517   -4.7497852    4921.8217            1 
  595000    2.0061775   -4.8636087    4905.8156            1 
  596000     2.023853   -4.8400197    4890.1286            3 
  597000    1.9766095   -4.7700142    4919.1401            1 
  598000    2.0025752   -4.7539398    4936.4587            1 
  599000    2.0443505   -4.7818789    4904.0791            1 
  600000    2.0411495   -4.7419939    4948.4657            1 
  601000      2.08494   -4.7785373    4908.7343            1 
  602000    1.9731693   -4.8468368    4930.2426            1 
  603000     1.982651   -4.7575506    4947.4696            1 
  604000    2.0257907   -4.7580785    4956.3594            1 
  605000     2.029754   -4.8132249    4929.1539            2 
  606000    2.0035712   -4.7840884    4944.0465            1 
  607000    2.0506738   -4.7983688    4917.1638            1 
  608000    1.9830732   -4.7577645    4958.9063            1 
  609000    1.9787646   -4.8172053    4900.4215            1 
  610000    1.9869493   -4.8329206    4913.6049       -1e+20 
  611000    1.9195049   -4.7816397    4954.2818            3 
  612000    2.0241078   -4.8231261    4913.8568       -1e+20 
  613000    2.0172168   -4.7717253    4924.1747            1 
  614000    2.0121308   -4.8083594    4937.7896            1 
  615000    2.0066702    -4.746646    4944.8178            1 
  616000    1.9581571   -4.8277105    4878.8284            1 
  617000    1.9727141    -4.855376    4913.2193            1 
  618000     2.011446   -4.7587771      4947.31       -1e+20 
  619000    1.9743348   -4.7865051    4926.6519            1 
  620000    1.9886518   -4.7924662    4876.8004            3 
  621000    1.9426618   -4.8485202    4918.3548            2 
  622000    1.9113412   -4.8112197    4918.5364            1 
  623000    1.9870448   -4.8149251    4903.9126            1 
  624000    2.0121937   -4.8067492    4924.9916            1 
  625000    2.0472018   -4.7983759    4879.3712            1 
  626000    2.0070845   -4.7852618    4918.0729            1 
  627000    1.9866394   -4.8573697     4929.992            1 
  628000    2.0292913   -4.7771425    4922.2685       -1e+20 
  629000    2.0365045   -4.8367749    4905.1665            1 
  630000    1.9649921   -4.7817519    4903.3803            1 
  631000    1.9797791   -4.8094767    4915.2449            1 
  632000    1.9865871   -4.8029701    4907.5948       -1e+20 
  633000     1.986315   -4.7644905    4947.9245            1 
  634000    2.0720669   -4.8114423    4927.5978            1 
  635000    2.0060106   -4.8102481    4903.9299            1 
  636000    2.0262562   -4.8649923    4949.8049            1 
  637000    1.9756073   -4.8402731    4936.3063       -1e+20 
  638000    2.0244641   -4.7715262    4949.5501            1 
  639000    2.0060424   -4.8063665    4879.9029            1 
  640000    2.0049586   -4.7912074    4913.2252            2 
  641000    2.0104261   -4.8419058    4897.4047            1 
  642000    1.9653623   -4.7618411    4925.0525       -1e+20 
  643000    1.9815516   -4.8009563    4888.9512       -1e+20 
  644000    1.9305411   -4.8313663    4929.4131            1 
  645000    2.0334494   -4.7980435    4924.6957       -1e+20 
  646000    2.0413501    -4.829032    4913.3445            1 
  647000    1.9887978   -4.8197584    4923.5238            1 
  648000    1.9949613   -4.7270498    4917.5064            1 
  649000    2.0131474   -4.8000186    4931.5594            1 
  650000    1.9811168   -4.8217626    4917.2949            2 
  651000    2.0537164    -4.791764    4908.9741            1 
  652000    2.0303045   -4.7771451    4923.6328       -1e+20 
  653000    1.9945003   -4.7811947    4930.5749       -1e+20 
  654000     2.030765   -4.7319432    4953.3724            1 
  655000    1.9883337   -4.8244459    4896.2333            1 
  656000     1.992425   -4.7889379     4924.404            1 
  657000    1.9693885   -4.8174223    4876.8424            1 
  658000     1.963073   -4.8065369    4900.7708            1 
  659000    1.9828858   -4.7654839    4933.0318            3 
  660000    1.9837755   -4.8322208    4937.0138       -1e+20 
  661000    1.9968945   -4.8120996    4887.4311            1 
  662000    2.0122566   -4.7576285    4963.8779            1 
  663000    2.0074029   -4.7737377     4925.484            1 
  664000     2.005758    -4.801734    4899.4215            1 
  665000    2.0034936   -4.7622454    4952.1749            1 
  666000    1.9974496   -4.8153483      4912.95            2 
  667000    1.9917161   -4.8321091    4928.7657            2 
  668000    2.0153932   -4.7960742    4942.8086            1 
  669000    2.0082477    -4.739658    4901.6402       -1e+20 
  670000    1.9965301    -4.795673    4911.7124            3 
  671000    1.9467106   -4.7578294    4900.2113            1 
  672000    1.9666373   -4.7667561    4902.8326            2 
  673000    1.9641522   -4.8125275    4917.5871            1 
  674000    2.0072415   -4.7817877    4919.8264       -1e+20 
  675000    1.9789369   -4.8178695    4885.3907            2 
  676000    2.0036378   -4.7596308    4928.7292            1 
  677000    2.0122601   -4.8730736    4888.2865            1 
  678000    2.0042875    -4.779597    4939.9313            1 
  679000    2.0363155   -4.7721207    4902.7104            1 
  680000    1.9763629   -4.8122386    4927.5363            2 
  681000    2.0131516   -4.8757435    4873.6451            1 
  682000    1.9623978   -4.7789499    4927.1676            1 
  683000    2.0166499   -4.8112535    4933.6039            1 
  684000    2.0504633   -4.8057732    4934.2583            1 
  685000    1.9843219    -4.771723    4940.4029       -1e+20 
  686000    2.0108449   -4.7680754    4898.3014            1 
  687000    1.9651142    -4.756818    4947.3101            1 
  688000    2.0386469   -4.7904233    4939.5268            1 
  689000    2.0015195   -4.8299527     4920.767            1 
  690000      2.03361   -4.7955267    4933.1961            1 
  691000    2.0307246   -4.8077031    4887.7342            3 
  692000    2.0264539   -4.7897198    4928.0426            1 
  693000    1.9905352   -4.8186675    4912.7597            1 
  694000    1.9862097   -4.7873155    4899.5026            1 
  695000    2.0210153   -4.7659752    4933.7492       -1e+20 
  696000    2.0118647    -4.832213    4923.4829            1 
  697000    1.9726105    -4.758328    4913.0743            1 
  698000    2.0192103   -4.7831729    4954.4925            1 
  699000    1.9784118   -4.7769856    4926.6008            1 
  700000    1.9509248   -4.8218901     4926.425            1 
  701000    2.0206639   -4.8124129    4902.8524            1 
  702000    1.9657263   -4.8156007    4894.8775            2 
  703000    2.0078758   -4.7915358    4935.1503            1 
  704000    2.0349833   -4.8244287    4897.3685            1 
  705000    1.9799274   -4.7659054    4934.8177            1 
  706000    1.9694452   -4.8084207    4934.8579            1 
  707000    2.0097129   -4.7594303    4929.5669            1 
  708000     1.969423   -4.8167388    4926.4287            1 
  709000    1.9924692   -4.8545395    4913.2214            2 
  710000    2.0237878   -4.7940544    4925.2294            2 
  711000    1.9524615   -4.7880575    4927.2006            1 
  712000    2.0209594   -4.8247844    4909.7205            1 
  713000     2.008611   -4.7833262    4912.8565            1 
  714000    2.0331396   -4.7696242    4954.6466       -1e+20 
  715000    2.0367562    -4.781264     4934.073            1 
  716000     1.990817   -4.8107824    4931.6658            1 
  717000    2.0030243   -4.8035381    4947.7937            1 
  718000    1.9787009   -4.7589086    4897.9174            1 
  719000    1.9908999   -4.8249058    4905.2037            1 
  720000    2.0531506   -4.7763447    4894.2999       -1e+20 
  721000     2.021658   -4.7477627    4916.4718            1 
  722000    2.0055635   -4.8562358    4891.6104            1 
  723000     1.927207   -4.8227474    4919.2276            1 
  724000    1.9724384   -4.7989849    4913.9647            1 
  725000    2.0391526   -4.7885746    4903.4198            1 
  726000    2.0168923   -4.7722473     4930.121            1 
  727000    2.0099935     -4.75827    4885.3154            1 
  728000    1.9770035    -4.794717    4905.9209            1 
  729000    1.9524119   -4.8222002    4904.9539            1 
  730000    2.0378395   -4.8352465    4921.6858            1 
  731000    2.0181078   -4.7938302    4934.5605            1 
  732000    2.0230713    -4.755928    4930.3233            2 
  733000    1.9814403   -4.7824782    4934.6933            1 
  734000    2.0273026   -4.7734707    4929.7246            1 
  735000     1.961586   -4.7570559    4907.0324            1 
  736000    1.9818324   -4.8227185    4924.7402            1 
  737000    1.9755756   -4.8084834    4942.5219            1 
  738000    1.9616633   -4.7783418    4890.4756            1 
  739000    2.0446686   -4.7588191    4908.4427            3 
  740000    2.0089881   -4.7764819    4909.1285            1 
  741000    1.9292251   -4.7970959    4893.2004            1 
  742000    1.9995019   -4.7826831     4963.172            2 
  743000    2.0035378   -4.8362473    4974.4128            1 
  744000    1.9894646   -4.7401677    4918.8334            1 
  745000    2.0060509   -4.7958384    4919.1411            1 
  746000      2.00747   -4.8140197    4922.2519            1 
  747000    2.0664634   -4.7959084     4938.576            2 
  748000    2.0088503   -4.7756693    4931.1537            1 
  749000    1.9998672   -4.7879006    4920.6737            1 
  750000    1.9886572    -4.808231    4889.1075            1 
  751000     1.992186    -4.782185    4928.2546            1 
  752000    1.9725512   -4.7668462    4917.8408            1 
  753000    2.0078978    -4.766624    4886.2701            1 
  754000    1.9785073   -4.7681494    4905.7869            1 
  755000    1.9868793   -4.7967936    4960.8361            1 
  756000    2.0360426    -4.842994    4915.3772            2 
  757000    1.9883581   -4.7827334    4944.0847            1 
  758000    1.9489747    -4.827356    4898.9419            1 
  759000    2.0457011   -4.7610818    4922.1457            1 
  760000    1.9775327   -4.8086043     4910.536            1 
  761000    2.0010446   -4.7892871    4937.3456            1 
  762000    1.9295704   -4.8303527    4940.3813            1 
  763000    2.0125152   -4.8224059    4902.9805            2 
  764000    2.0124123   -4.8151257      4892.73       -1e+20 
  765000    2.0056193   -4.8344118    4916.2297            1 
  766000    2.0419721   -4.7842409    4902.5263            1 
  767000    1.9886938   -4.7406969     4922.706            1 
  768000    2.0165341   -4.8429919    4910.5644            1 
  769000    1.9598325   -4.7466497    4934.0536            1 
  770000    2.0205834   -4.7940385    4904.1449            1 
  771000    2.0094958   -4.7719362    4923.7514            1 
  772000    1.9765165    -4.778814     4922.391            1 
  773000    2.0282466   -4.7526332    4914.0146            3 
  774000    2.0313428   -4.7839164    4929.9176            1 
  775000    1.9292352   -4.7603707    4943.0005            2 
  776000    2.0048281   -4.7908227    4917.4306            1 
  777000    1.9773187   -4.7855051    4947.6193            1 
  778000    2.0417339   -4.8109445    4922.7278            1 
  779000    1.9800199   -4.8195686    4935.9138            1 
  780000    2.0077886   -4.7540231    4927.1441            1 
  781000     1.983524    -4.803854    4934.8879            1 
  782000    2.0156818   -4.8280998    4884.8615            1 
  783000    2.0199039   -4.8587157    4902.6747            1 
  784000    2.0316441   -4.7168558    4944.9623            1 
  785000    1.9869606   -4.8388147    4926.8622       -1e+20 
  786000     1.990017   -4.7676967    4932.6274            1 
  787000    1.9470199    -4.819443    4873.0063            1 
  788000    2.0209168   -4.8187583    4890.0338            1 
  789000    1.9453823   -4.8380025    4923.8343       -1e+20 
  790000    2.0291713   -4.7612452     4922.083            1 
  791000     2.036885   -4.8627746    4916.9298            1 
  792000    2.0108186   -4.7477524    4952.5643            1 
  793000    1.9940447   -4.8163376    4870.4623            2 
  794000    2.0245105   -4.8085112     4915.088            1 
  795000     2.007137   -4.7929608    4894.2819            1 
  796000    1.9831904   -4.7928288    4911.5355            1 
  797000    2.0100189   -4.7619797    4928.9926            2 
  798000    1.9876614   -4.7958802    4923.0287            1 
  799000    2.0038411   -4.7801885    4952.4104            1 
  800000    2.0040537   -4.7275051     4937.157            4 
  801000    2.0214663   -4.8017769    4925.0008            1 
  802000    1.9510751    -4.817312    4954.0004            1 
  803000    1.9904048   -4.8059183    4909.9347            1 
  804000    2.0087298    -4.767914    4927.6998            1 
  805000    1.9989707   -4.7975014    4936.5222            2 
  806000    2.0375224    -4.856324    4910.5108            2 
  807000    1.9379739   -4.8246018    4870.5278            1 
  808000    2.0370943   -4.7648181    4888.4161       -1e+20 
  809000    2.0126217   -4.7878331    4887.2689            1 
  810000    2.0177216    -4.764527    4909.1348            1 
  811000    2.0054766   -4.8032611    4935.8943            1 
  812000    2.0555685   -4.8128518    4891.3019       -1e+20 
  813000    2.0003535    -4.830958    4898.8072            1 
  814000    2.0273893   -4.7887331    4914.1116       -1e+20 
  815000    1.9903664   -4.8283277    4889.0838            1 
  816000    2.0349139   -4.8099732    4945.8707       -1e+20 
  817000    1.9959749   -4.8281726    4922.0736            1 
  818000    2.0305388   -4.7691285    4927.4267            1 
  819000    2.0041916    -4.832516    4914.6039       -1e+20 
  820000    1.9809269   -4.7598676    4948.7263            1 
  821000    1.9980969   -4.8070665    4933.8221            2 
  822000    1.9882366   -4.8194487    4957.3994            1 
  823000    1.9713116   -4.8037678    4896.3748       -1e+20 
  824000    2.0220845    -4.816563    4911.7558            1 
  825000    2.0446307   -4.8037301    4931.7676            1 
  826000    1.9919681   -4.8191421    4914.0334            2 
  827000    2.0173603   -4.8040776    4921.8106            1 
  828000    1.9948661    -4.796583    4882.5059            1 
  829000    2.0111236    -4.814548    4931.6935       -1e+20 
  830000    1.9878454   -4.8118509     4919.682            1 
  831000    2.0187786    -4.845694    4919.4149            1 
  832000    1.9569699   -4.7461933    4952.2936            1 
  833000      2.00925   -4.7806897    4895.6872       -1e+20 
  834000    1.9969419   -4.8075846    4896.6554            1 
  835000    1.9778547   -4.7475261    4938.5062       -1e+20 
  836000    1.9826383   -4.7899651    4927.3802            1 
  837000    1.9696516   -4.7774192    4935.3738            1 
  838000    2.0069398   -4.8210441    4878.3257            2 
  839000    2.0011093   -4.7507125     4920.756       -1e+20 
  840000    1.9811438   -4.8315798    4906.7672            1 
  841000    1.9767461   -4.8150456    4929.5716            1 
  842000    1.9931891   -4.7985199    4896.8821            1 
  843000     1.986862    -4.809402    4947.5741            1 
  844000    1.9795252   -4.7964323    4920.7731            1 
  845000     2.028292   -4.8031726     4921.117            1 
  846000     2.013197   -4.8040501    4960.7704            1 
  847000    1.9729921    -4.802514    4897.8036            2 
  848000    1.9799878   -4.8428252    4893.3157            1 
  849000    2.0046391   -4.7749872    4922.2873            1 
  850000     1.997605   -4.8600126    4899.3423            1 
  851000    2.0163943   -4.7855599    4927.0807            1 
  852000    1.9801713   -4.8609572    4900.9233            1 
  853000    2.0223456    -4.829699    4902.2299            1 
  854000     1.981998   -4.7490043    4937.0204            1 
  855000    1.9716363   -4.7939812    4905.8006            1 
  856000    1.9789627   -4.7646668    4939.7118            1 
  857000     2.016554   -4.8174763    4920.6022            1 
  858000    2.0043988   -4.7935076    4955.0833            1 
  859000    2.0203802   -4.8036287    4912.4702            1 
  860000       2.0525   -4.7818991    4907.6594            1 
  861000    1.9907111   -4.8019036    4934.3347            1 
  862000     2.019799   -4.8041642    4932.8877       -1e+20 
  863000    2.0246198    -4.789806    4928.8789            2 
  864000    1.9487688   -4.7997022    4918.6283            1 
  865000    1.9842283   -4.7873513     4926.705            2 
  866000    2.0038801   -4.8222741     4929.029            1 
  867000    1.9819504   -4.8587103    4892.8733       -1e+20 
  868000    1.9712448   -4.8355879     4921.812            1 
  869000     2.017936   -4.8072657     4924.745            1 
  870000    2.0155077   -4.7904284    4881.1755            1 
  871000    1.9623609   -4.8139815    4919.7516       -1e+20 
  872000    2.0233275   -4.7813695    4906.6899            1 
  873000    1.9984172   -4.7704982    4929.8336            1 
  874000    2.0312737    -4.820388    4938.6896            1 
  875000    2.0274487   -4.8163838    4940.1261            1 
  876000    2.0207315   -4.8310489    4925.7993            1 
  877000    1.9732844   -4.8447043    4924.9124            1 
  878000    2.0220464   -4.8043317    4938.8287            1 
  879000    2.0305079   -4.8338441    4914.4336            3 
  880000    1.9822845   -4.7272138    4932.9319       -1e+20 
  881000    2.0247965   -4.7762621    4936.3588            1 
  882000    1.9807713    -4.796932    4942.0517            2 
  883000    2.0085483    -4.860611    4908.3359       -1e+20 
  884000    1.9898373    -4.736101    4917.0945            1 
  885000    2.0459989   -4.8212715    4961.6492            2 
  886000     2.045197    -4.852332    4906.5814            1 
  887000    1.9760191   -4.8349828    4922.2659            2 
  888000    1.9983832   -4.8216271     4926.887            1 
  889000    1.9850669   -4.7607584    4907.2276            1 
  890000    1.9978874   -4.7768192     4942.386            1 
  891000    1.9829338   -4.8193302    4912.9533            1 
  892000    1.9930699   -4.7825335    4907.4163            1 
  893000     1.998194   -4.7701663    4890.8603       -1e+20 
  894000    1.9502139    -4.783829    4935.9416            1 
  895000     1.955198   -4.8231678    4905.6147            1 
  896000    1.9934059   -4.7654407    4933.3394            1 
  897000    1.9510442   -4.7579655    4919.2423            1 
  898000    2.0240517   -4.8325215    4925.0663            1 
  899000    2.0114639   -4.8160583    4900.0818            1 
  900000    1.9962053   -4.8283278    4898.0631            1 
  901000    1.9855634    -4.771433    4917.5154            1 
  902000    2.0024009   -4.8134735    4921.1526            1 
  903000    1.9271779   -4.7821042    4922.8696       -1e+20 
  904000    1.9959231   -4.7899005    4935.8716            2 
  905000    2.0421828   -4.7662058    4946.9845            1 
  906000    1.9993198   -4.7911827    4922.9477            3 
  907000    1.9675562   -4.8212364    4905.8899            1 
  908000    2.0307437   -4.7840964     4928.679       -1e+20 
  909000    2.0130984   -4.7859976    4895.9701            1 
  910000    1.9599142   -4.7633291    4950.8119            1 
  911000     2.007207   -4.7585982    4965.5728            1 
  912000    1.9852436   -4.7811274    4906.3316            2 
  913000    1.9972872   -4.7766915    4914.5842            1 
  914000    1.9839253   -4.8078967    4932.1972            1 
  915000    1.9638373   -4.7976338    4932.8135       -1e+20 
  916000    1.9848461   -4.7420257    4944.1199            1 
  917000    1.9940207   -4.7870935    4928.1763            1 
  918000    2.0351484    -4.799052    4938.1548       -1e+20 
  919000     1.969493    -4.786228    4895.2151            1 
  920000    2.0226476    -4.819292    4913.8867       -1e+20 
  921000    2.0023207   -4.7978993    4945.2583       -1e+20 
  922000    2.0046819   -4.7710459    4931.7963       -1e+20 
  923000    1.9877658    -4.771278    4912.3216            1 
  924000    2.0125102   -4.8225672    4917.9215            1 
  925000    2.0390587     -4.79284    4909.9245            1 
  926000    2.0068536   -4.7711847    4902.1419            1 
  927000    2.0130515   -4.8415005    4863.5665       -1e+20 
  928000    2.0544101   -4.8179246    4902.7028            1 
  929000    2.0317263   -4.8163108    4922.7893            1 
  930000    2.0109197   -4.7727715    4914.0291            1 
  931000    2.0137168   -4.7899544    4943.3481            2 
  932000    1.9863088   -4.7872096    4950.9314            1 
  933000    2.0149334   -4.8186806    4910.3883            1 
  934000    2.0186787   -4.7572279    4956.0909            4 
  935000    2.0366826   -4.8449102    4922.1356            2 
  936000    2.0122401   -4.7931691    4909.0241            1 
  937000    2.0516945   -4.8213574    4940.8129            1 
  938000    1.9772084   -4.7721859     4899.347            1 
  939000    1.9672984   -4.7979061    4907.1601       -1e+20 
  940000    2.0038067   -4.7559119    4932.7338            1 
  941000    2.0174646   -4.7880266    4940.2911            1 
  942000    1.9945829   -4.7710618    4947.5974            1 
  943000     1.966238   -4.8396563    4902.8513            1 
  944000    1.9476942   -4.8064041    4899.2384            1 
  945000    2.0365875   -4.8108577    4946.1872            1 
  946000    1.9981428   -4.7957729     4907.018       -1e+20 
  947000    1.9858237   -4.8228694    4928.3541            1 
  948000    2.0084952   -4.8082555    4919.5227            1 
  949000    1.9790339   -4.7793198    4938.1874            1 
  950000    1.9869052   -4.7994109    4917.0069            1 
  951000    2.0620666   -4.8287059    4917.1481       -1e+20 
  952000    2.0418156   -4.7818948    4900.4419            1 
  953000    2.0129143   -4.7772252    4950.4203            1 
  954000    2.0061031   -4.7696389    4908.4321            2 
  955000    2.0211012   -4.8197216    4886.4758            1 
  956000    2.0122009   -4.7674258    4926.4052            1 
  957000    2.0045136   -4.7838801    4925.7069            1 
  958000    2.0084299   -4.7633458     4953.945            1 
  959000    2.0406114   -4.8106687    4891.4392            3 
  960000    1.9933188   -4.8327722    4890.3606            1 
  961000    2.0051989   -4.8021013    4963.0188            2 
  962000    1.9814052   -4.7994114    4934.9436            1 
  963000    2.0205734   -4.7716465    4932.6703            2 
  964000    2.0100641   -4.7854554    4915.1726       -1e+20 
  965000     1.998187   -4.7741537    4955.3304            3 
  966000    1.9451294   -4.7664124    4921.3128       -1e+20 
  967000    1.9873532    -4.772512    4944.2489            1 
  968000    1.9477756   -4.7687245    4909.5689            1 
  969000     1.994799   -4.8426485    4894.7699            3 
  970000    2.0239005   -4.7844563    4932.9516            1 
  971000    2.0080654   -4.8125247    4937.5135            1 
  972000    2.0020496   -4.8282186    4936.6349            3 
  973000    1.9926912   -4.7600805    4924.1187            1 
  974000    2.0023316   -4.7899616    4943.0705            1 
  975000      2.01053    -4.822263    4922.3684            1 
  976000     1.930905   -4.8132855    4903.3118            1 
  977000    1.9424274   -4.7085727    4951.4089            1 
  978000    1.9706493    -4.777838    4919.9395            1 
  979000    1.9892935   -4.7891059    4926.4807            1 
  980000    2.0184294   -4.7986433     4925.201            1 
  981000     2.067539   -4.7924823     4941.458            1 
  982000    2.0132994   -4.7945965    4946.3639            1 
  983000    1.9888188    -4.764526     4932.125            1 
  984000    2.0482471     -4.78646    4932.7704            2 
  985000    2.0266717   -4.7441508    4912.5714            1 
  986000    2.0100118   -4.7903429    4920.7789            1 
  987000    2.0268304   -4.8105862    4929.9234       -1e+20 
  988000    2.0041308   -4.7706801    4923.0707            1 
  989000    1.9837622    -4.817466    4962.2856            2 
  990000    1.9432604   -4.8066005    4899.9874            1 
  991000    2.0015811   -4.8427514    4865.2484            1 
  992000    2.0098289   -4.8052917    4940.0247            1 
  993000    1.9777093    -4.792816    4914.0418            1 
  994000    2.0154271   -4.7355569    4924.4554            1 
  995000    1.9626132   -4.8334238    4916.4089            1 
  996000    1.9785162   -4.8084742    4913.5935       -1e+20 
  997000    1.9831312   -4.7982831    4906.2188            1 
  998000    1.9887214   -4.7442492      4964.79            1 
  999000    1.9474597    -4.801671    4908.5667            1 
 1000000    2.0205769   -4.7187548    4915.3164            1 
 1001000    2.0193666   -4.8372693    4941.0819            2 
 1002000    1.9704823   -4.8253322    4904.4178            1 
 1003000    1.9883859    -4.790124    4915.4248            1 
 1004000    2.0234727   -4.8222347     4927.177            1 
Loop time of 1983.52 on 48 procs for 1000000 steps with 4000 atoms

Performance: 87117.860 tau/day, 504.154 timesteps/s
99.4% CPU use with 48 MPI tasks x no OpenMP threads

MPI task timing breakdown:
Section |  min time  |  avg time  |  max time  |%varavg| %total
---------------------------------------------------------------
Pair    | 102.92     | 107.84     | 114.04     |  22.2 |  5.44
Neigh   | 20.405     | 20.643     | 20.967     |   2.6 |  1.04
Comm    | 109.71     | 116.18     | 126.07     |  31.4 |  5.86
Output  | 1.1766     | 1.1774     | 1.1929     |   0.2 |  0.06
Modify  | 1719.1     | 1725.8     | 1732.2     |   8.4 | 87.01
Other   |            | 11.91      |            |       |  0.60

Nlocal:        83.3333 ave          90 max          73 min
Histogram: 2 1 3 2 4 8 8 11 6 3
Nghost:        1429.62 ave        1451 max        1412 min
Histogram: 4 4 4 9 7 5 9 3 2 1
Neighs:        7717.94 ave        8583 max        6642 min
Histogram: 2 2 3 5 2 13 10 5 4 2
FullNghs:      15435.8 ave       16906 max       13330 min
Histogram: 2 1 2 5 3 7 13 7 5 3

Total # of neighbors = 740920
Ave neighs/atom = 185.23000
Neighbor list builds = 83465
Dangerous builds = 3108

#clear
#
#next RN
#
#jump SELF
Total wall time: 0:33:04
