
units lj                  # Use reduced LJ style units
atom_style atomic         # Uncharged point particles
atom_modify map hash      # Needed for indexing of clusters etc
                          # Used to be able to find where atoms are in relation to each other.

lattice fcc 1.0 spacing 1 1 1
Lattice spacing in x,y,z = 1.5874011 1.5874011 1.5874011
region box block 0 10 0 10 0 10 units lattice
create_box 2 box
Created orthogonal box = (0.0000000 0.0000000 0.0000000) to (15.874011 15.874011 15.874011)
  3 by 4 by 4 MPI processor grid
create_atoms 1 box
Created 4000 atoms
  using lattice units in orthogonal box = (0.0000000 0.0000000 0.0000000) to (15.874011 15.874011 15.874011)
  create_atoms CPU = 0.003 seconds
set type 1 type/fraction 2 0.26 78393
Setting atom values ...
  1066 settings made for type/fraction
mass 1 1.0
mass 2 1.0
pair_style lj/cut  3.5
pair_modify tail  yes
pair_coeff 1  1  1.0  1.0   # Intearaction between 1 and 1 set with epsilon = 1 and sigma = 1
pair_coeff 1  2  1.5  0.8
pair_coeff 2  2  0.5  0.88

write_data data.0
System init for write_data ...
Neighbor list info ...
  update every 1 steps, delay 10 steps, check yes
  max neighbors/atom: 2000, page size: 100000
  master list distance cutoff = 3.8
  ghost atom cutoff = 3.8
  binsize = 1.9, bins = 9 9 9
  1 neighbor lists, perpetual/occasional/extra = 1 0 0
  (1) pair lj/cut, perpetual
      attributes: half, newton on
      pair build: half/bin/atomonly/newton
      stencil: half/bin/3d
      bin: standard
WARNING: Not all mixed pair coeffs generated from mixing. Use write_data with 'pair ij' option to store all pair coeffs. (../write_data.cpp:312)


#############################
#   M E L T   S Y S T E M   #
#############################

velocity all create 2.4 3143649 mom yes dist gaussian # Assign velocities
                                                    # Temperature 2.4, random number seed, zero linear momentum
                                                                                # Gaussian distribution

timestep 0.002   # simulation timestep
thermo 1000       # output thermodynamic data every 1000 steps bf 100

# Define a fix  in this case with index 1 applied to all
# particles in the simulation. This fix is for simulations
# in the anisotropic NPT ensemble. Note that we use the MTK
# correction.
fix 1 all npt temp 2.4 2.4 0.1 iso 5.68 5.68 0.5 mtk yes tchain 5 pchain 5 # Use NPT ensemble
                                                                         # Set temperature and pressure and damping
                                                                         # Numbers of thermostats in chain and in barostat
run 10000          # run for 10000 steps
Per MPI rank memory allocation (min/avg/max) = 3.642 | 3.644 | 3.648 Mbytes
Step Temp E_pair E_mol TotEng Press Volume 
       0          2.4   -6.6801447            0   -3.0810447   -3.8517282         4000 
    1000    2.4140714   -4.9482673            0   -1.3280654     5.806777    4260.3709 
    2000    2.4062074    -4.916513            0   -1.3081041    5.7865445    4269.3561 
    3000    2.3887069   -4.8396352            0   -1.2574705    5.8067514    4306.3491 
    4000    2.3805968   -4.9195009            0   -1.3494983     5.823847    4270.2648 
    5000    2.4178051   -4.9264482            0   -1.3006472     5.647207    4289.7328 
    6000     2.432539    -4.960061            0   -1.3121646    5.6121041    4278.2684 
    7000    2.3575653   -4.9547725            0   -1.4193086    5.5754623    4261.6827 
    8000    2.4294675   -4.9557209            0   -1.3124307    5.7394291    4266.1439 
    9000    2.3807676   -4.8965955            0   -1.3263368    5.5281309    4314.5548 
   10000    2.3698747   -4.9517905            0   -1.3978671    5.3910365    4296.0888 
Loop time of 2.36954 on 48 procs for 10000 steps with 4000 atoms

Performance: 729255.802 tau/day, 4220.230 timesteps/s
99.6% CPU use with 48 MPI tasks x no OpenMP threads

MPI task timing breakdown:
Section |  min time  |  avg time  |  max time  |%varavg| %total
---------------------------------------------------------------
Pair    | 1.023      | 1.0885     | 1.2117     |   3.1 | 45.94
Neigh   | 0.20239    | 0.21129    | 0.22723    |   1.1 |  8.92
Comm    | 0.66721    | 0.815      | 0.89486    |   4.6 | 34.39
Output  | 0.00024787 | 0.00025259 | 0.00031177 |   0.0 |  0.01
Modify  | 0.21421    | 0.23965    | 0.26886    |   3.3 | 10.11
Other   |            | 0.01485    |            |       |  0.63

Nlocal:        83.3333 ave          93 max          74 min
Histogram: 2 4 3 8 6 9 8 6 1 1
Nghost:        1562.08 ave        1594 max        1531 min
Histogram: 3 3 2 8 6 14 3 5 2 2
Neighs:        8880.54 ave       10001 max        7680 min
Histogram: 3 3 2 7 8 7 4 7 4 3

Total # of neighbors = 426266
Ave neighs/atom = 106.56650
Neighbor list builds = 912
Dangerous builds = 235

# Equilibrate just above the melting temperature to avoid step fn in T

fix 1 all npt temp 1.25 1.25 0.1 iso 5.68 5.68 0.5 mtk yes tchain 5 pchain 5
run 2000
Per MPI rank memory allocation (min/avg/max) = 3.643 | 3.645 | 3.649 Mbytes
Step Temp E_pair E_mol TotEng Press Volume 
   10000    2.3698747   -4.9517905            0   -1.3978671    5.3910365    4296.0888 
   11000    1.2357296   -6.7059839            0   -4.8528529    5.8115182    3464.1684 
   12000    1.2226402   -6.7600398            0   -4.9265379    5.7345259    3452.1691 
Loop time of 0.548239 on 48 procs for 2000 steps with 4000 atoms

Performance: 630381.868 tau/day, 3648.043 timesteps/s
99.6% CPU use with 48 MPI tasks x no OpenMP threads

MPI task timing breakdown:
Section |  min time  |  avg time  |  max time  |%varavg| %total
---------------------------------------------------------------
Pair    | 0.24377    | 0.26462    | 0.2952     |   2.1 | 48.27
Neigh   | 0.036853   | 0.038979   | 0.041559   |   0.6 |  7.11
Comm    | 0.16271    | 0.1944     | 0.21767    |   2.7 | 35.46
Output  | 5.1927e-05 | 5.359e-05  | 6.8522e-05 |   0.0 |  0.01
Modify  | 0.041837   | 0.045445   | 0.049071   |   0.9 |  8.29
Other   |            | 0.004734   |            |       |  0.86

Nlocal:        83.3333 ave          93 max          73 min
Histogram: 1 1 4 10 7 3 11 5 3 3
Nghost:        1812.73 ave        1845 max        1784 min
Histogram: 2 7 5 3 7 12 3 5 3 1
Neighs:        11079.8 ave       12946 max        9358 min
Histogram: 2 4 5 7 7 10 5 4 2 2

Total # of neighbors = 531828
Ave neighs/atom = 132.95700
Neighbor list builds = 143
Dangerous builds = 13

#############################
# L I N E A R  Q U E N C H  #
#############################

# Define solid atoms. This closely follows ten Wolde  Ruiz-Montero and Frenkel  Faraday Discuss  1996  104  93-110
# Compute components of the per-atom q6 vector
compute q6 all orientorder/atom degrees 1 6 components 6 nnn NULL cutoff 1.3 # compute the Q6 parameter.
                                                                             # Use all neighbours within 1.3 unit cell.

# get number of connections
compute coord_number all coord/atom orientorder q6 0.5

# An atom is solid if it has 8 or more connections (of a possible 14)
variable is_solid atom c_coord_number>=8
group solid dynamic all var is_solid    # Must be dynamic to update
dynamic group solid defined

# do clustering
compute cluster solid cluster/atom 1.3 # Create a cluster where all atoms within are solid and max 1.3 units from another member

# define chunks one chunk per cluster
compute clus_chunks solid chunk/atom c_cluster nchunk every compress yes  # Says which atoms are in which chunk

# count the size of each chunk
compute size_chunks solid property/chunk clus_chunks count


# Find the maximum entry in the vector of chunk sizes
variable max_n equal max(c_size_chunks)


# Thermo style which includes this variable
# thermo_style custom step temp pe vol v_max_n

thermo ${N}  # Print the thermo information every 100 steps
thermo 1000  

# Reset the npt fix at a lower temperature (below freezing)
fix 1  all npt temp  ${temp} ${temp}  0.1  iso  5.68  5.68  0.5  mtk yes tchain  5  pchain  5
fix 1  all npt temp  0.45 ${temp}  0.1  iso  5.68  5.68  0.5  mtk yes tchain  5  pchain  5
fix 1  all npt temp  0.45 0.45  0.1  iso  5.68  5.68  0.5  mtk yes tchain  5  pchain  5

dump dmp2 all dcd ${N} traj.dcd
dump dmp2 all dcd 1000 traj.dcd


compute msd all msd com yes
variable twopoint equal c_msd[4]/6/(step*dt+1.0e-6)
fix 9 all vector 10 c_msd[4]
variable fit equal slope(f_9)/6/(10*dt)
thermo_style custom step temp pe c_msd[4] v_twopoint v_fit v_max_n

fix 1 all npt temp 1.25 ${temp} 0.1 iso 5.68 5.68 0.5 mtk yes tchain 5 pchain 5
fix 1 all npt temp 1.25 0.45 0.1 iso 5.68 5.68 0.5 mtk yes tchain 5 pchain 5
run 2000000 # 5000000  # Run for this many steps
Neighbor list info ...
  update every 1 steps, delay 10 steps, check yes
  max neighbors/atom: 2000, page size: 100000
  master list distance cutoff = 3.8
  ghost atom cutoff = 3.8
  binsize = 1.9, bins = 8 8 8
  4 neighbor lists, perpetual/occasional/extra = 1 3 0
  (1) pair lj/cut, perpetual
      attributes: half, newton on
      pair build: half/bin/atomonly/newton
      stencil: half/bin/3d
      bin: standard
  (2) compute orientorder/atom, occasional
      attributes: full, newton on
      pair build: full/bin/atomonly
      stencil: full/bin/3d
      bin: standard
  (3) compute coord/atom, occasional
      attributes: full, newton on
      pair build: full/bin/atomonly
      stencil: full/bin/3d
      bin: standard
  (4) compute cluster/atom, occasional
      attributes: full, newton on
      pair build: full/bin/atomonly
      stencil: full/bin/3d
      bin: standard
Per MPI rank memory allocation (min/avg/max) = 9.802 | 9.810 | 9.819 Mbytes
Step Temp PotEng c_msd[4] v_twopoint v_fit v_max_n 
   12000    1.2226402   -6.7600398 1.5140213e-30 1.0514036e-32 8.3333333e+20            1 
   13000    1.2536306   -6.7354046   0.52349377 0.0033557292  0.043020318            3 
   14000    1.2386103   -6.7419524   0.95851639 0.0057054545  0.039651844            1 
   15000    1.2843292   -6.7496436    1.4236618 0.0079092318  0.038862533            2 
   16000    1.2302717   -6.7597074    1.8886058 0.0098364882  0.038756193            4 
   17000    1.2254955   -6.7608887    2.4160262  0.011843266  0.039105843            1 
   18000    1.2258954   -6.7577338    2.8982094  0.013417636  0.039404697            2 
   19000    1.2343686   -6.7644056     3.354147  0.014711171  0.039666704            2 
   20000    1.2627757   -6.7840728    3.7582098  0.015659207   0.03946776            2 
   21000    1.2434541   -6.7183983    4.2392046   0.01682224  0.039058063            1 
   22000    1.2558245   -6.7889766    4.6878376   0.01775696   0.03895151            4 
   23000    1.2599516   -6.7704639    5.1978714  0.018832867  0.038989262            2 
   24000    1.2587273   -6.7589106    5.6772467  0.019712662   0.03905749            3 
   25000    1.2507785    -6.747881    6.1488928  0.020496309  0.039097823            2 
   26000    1.2666425   -6.8087204    6.6439463  0.021294699  0.039127515            5 
   27000    1.2340909    -6.792569    6.9692791   0.02151012  0.039062323            3 
   28000    1.2202158   -6.8066663    7.3773194  0.021956307  0.038914727            1 
   29000     1.235051   -6.7881149    7.8575198   0.02257908  0.038665481       -1e+20 
   30000    1.2394168   -6.6881716     8.319573  0.023109925  0.038511068            2 
   31000    1.2545721   -6.8288934    8.6833415  0.023342315  0.038320855            2 
   32000    1.2301419   -6.7848053    9.1307892  0.023778096   0.03813117            2 
   33000    1.2496474   -6.7227818    9.5981544  0.024237763  0.037967292            1 
   34000    1.2601522   -6.8060494    10.037696  0.024602195  0.037885579            3 
   35000     1.260558   -6.8139637    10.502864  0.025006818  0.037847381            2 
   36000    1.2292751   -6.7331762    11.159514  0.025832209  0.037876574            2 
   37000    1.2696256   -6.7491354    11.689016  0.026326612  0.037967075            4 
   38000    1.2582976   -6.7765666      12.1494   0.02664342  0.038081096            4 
   39000    1.2414071   -6.7557326    12.561803  0.026841459  0.038153903            2 
   40000    1.2345473   -6.8149749    13.051333  0.027190277  0.038229477            3 
   41000    1.2156145   -6.7523069    13.484675  0.027407876  0.038295562            3 
   42000    1.2472266   -6.8110263    14.053783  0.027884489  0.038406316            3 
   43000     1.207487   -6.7988049    14.598921  0.028292483   0.03850187            3 
   44000    1.2276541   -6.7858835    15.197674  0.028783473  0.038642529            2 
   45000    1.2542229    -6.784474     15.77663  0.029215981  0.038799275            1 
   46000    1.2233211   -6.8076251    16.249949  0.029438314  0.038975869            1 
   47000    1.2390143   -6.8115837    16.656334  0.029532507  0.039103472            1 
   48000    1.2374157   -6.7884222    17.134685  0.029747717  0.039184017            1 
   49000    1.2201187   -6.8110881    17.666623  0.030045276  0.039278466            1 
   50000    1.2323788   -6.7731018    18.223993  0.030373321  0.039384006            1 
   51000    1.2174196   -6.7830898     18.71107  0.030573644  0.039511662            1 
   52000     1.219239   -6.7978049     19.12505  0.030649118  0.039607985            1 
   53000    1.2234183   -6.7830178    19.586533  0.030796435   0.03967592            1 
   54000     1.216613   -6.7713101    20.151882  0.031098583  0.039733573            3 
   55000    1.2469474   -6.8323973    20.498527  0.031058374  0.039785358            2 
   56000    1.2163724   -6.8017894    21.091136  0.031385619  0.039844099            2 
   57000    1.1961251   -6.7792877    21.674473  0.031687826  0.039927337            4 
   58000    1.2118896   -6.7927299     22.24032  0.031954482  0.039997684            2 
   59000    1.2508233   -6.7961428    22.717872   0.03208739  0.040062053            1 
   60000    1.2162649   -6.7852164    23.220055  0.032250077  0.040133697            1 
   61000    1.2463664   -6.8106955    23.740196  0.032431961  0.040197789            1 
   62000    1.2315763   -6.8126695    24.021693  0.032287222  0.040233151            3 
   63000    1.2377124   -6.7777474    24.538187   0.03245792  0.040262245            1 
   64000    1.2493334   -6.7984935    24.980045    0.0325261  0.040281703            3 
   65000    1.2007328   -6.7929122    25.581676  0.032797021  0.040306054            1 
   66000     1.228272   -6.8072766    26.009311  0.032840039  0.040346375            2 
   67000    1.2041165   -6.7453082    26.733211  0.033250262  0.040381896            2 
   68000    1.2373149   -6.7879086    27.178648  0.033307166  0.040415624            2 
   69000     1.242994   -6.7718266    27.478874  0.033187046  0.040437561            3 
   70000    1.1922024   -6.7872132    28.008233  0.033343134  0.040436349            3 
   71000    1.2199812   -6.8056472    28.558314  0.033519147   0.04045575            2 
   72000    1.2333393   -6.8113775    29.166565  0.033757598  0.040486948            2 
   73000    1.2478658   -6.7444332    29.713487  0.033919506  0.040527207            1 
   74000    1.1978132   -6.7906125    30.103515  0.033900355  0.040555367            3 
   75000    1.2496742   -6.8193164     30.57799  0.033975544  0.040579048            2 
   76000    1.2293677   -6.7815968    31.114987   0.03411731  0.040596636            1 
   77000    1.2312246   -6.7550814    31.459719  0.034047314  0.040601636            2 
   78000    1.2245985   -6.8026065     31.94472  0.034128974  0.040602198            1 
   79000    1.2282592     -6.80865    32.402819  0.034180188  0.040606351            2 
   80000    1.2204366   -6.8285033     32.68353  0.034045343   0.04060275            1 
   81000    1.1917534   -6.8257342    33.137252  0.034091823  0.040590851            1 
   82000    1.2160482   -6.8681742    33.697866  0.034245798  0.040580098            2 
   83000    1.2265025   -6.7991001    34.478072  0.034616538  0.040588442            1 
   84000    1.1868554   -6.8226275    34.732717   0.03445706  0.040588691            2 
   85000    1.2256882   -6.8305408    35.175568  0.034485851  0.040588651            1 
   86000    1.2318413   -6.8446242    35.880683  0.034768104  0.040598797            2 
   87000    1.1943813   -6.8230143    36.398064  0.034864046  0.040618895            1 
   88000    1.2397499   -6.8341965    36.891084  0.034934739  0.040632578            1 
   89000    1.2147603   -6.7652938     37.59987  0.035205871  0.040655996            2 
   90000    1.2464281    -6.768626    38.265742  0.035431243   0.04068572            1 
   91000    1.2260747   -6.8109896    38.412474  0.035176258  0.040703311            1 
   92000    1.2075026    -6.813217    38.938863  0.035270709  0.040719292            3 
   93000    1.2062335   -6.8124718    39.328496  0.035240587  0.040732966            1 
   94000    1.2018541   -6.8214721    39.823004  0.035304082  0.040745201            5 
   95000    1.2177976   -6.8255463    40.324116  0.035372031  0.040757569            2 
   96000    1.1891841   -6.8234979     40.86584   0.03547382  0.040769145            3 
   97000    1.2283863   -6.8027793    41.421264  0.035585278  0.040778526            2 
   98000    1.2103993   -6.8397463    41.802541  0.035546378  0.040783846            2 
   99000     1.216718    -6.830832    42.083673  0.035423967  0.040781718            1 
  100000     1.206637   -6.8039871    42.584276  0.035486896  0.040775529            1 
  101000    1.2230698   -6.8760061    43.068269  0.035534876  0.040770774            2 
  102000    1.2208336   -6.8296976    43.457227   0.03550427  0.040759977            2 
  103000    1.1869102   -6.8220933    43.900038   0.03551783  0.040746157            1 
  104000    1.2065823   -6.8398716    44.355068   0.03554092  0.040726161            4 
  105000    1.2033502   -6.8004009    44.824987  0.035575386  0.040703879            1 
  106000     1.212864   -6.8328006    44.958531  0.035344757  0.040678882            2 
  107000    1.1983831   -6.8404698    45.388538  0.035349329  0.040650447            1 
  108000    1.2386153   -6.8546878    45.983634  0.035481199  0.040621827            2 
  109000    1.2329515   -6.7924487    46.314473  0.035408619  0.040589413            2 
  110000    1.2045668   -6.8492984    46.764819  0.035427893  0.040552292            2 
  111000    1.1921713   -6.7928056    47.408311  0.035591825  0.040525487            2 
  112000    1.2266349   -6.8589214    47.716592  0.035503416  0.040494807            1 
  113000    1.2189957   -6.8446211    47.883258  0.035312137  0.040460322            2 
  114000     1.216848   -6.8456262    48.282207  0.035294011  0.040426507            2 
  115000    1.2097791   -6.7744869    48.770756  0.035341128  0.040381345            1 
  116000    1.2162163   -6.7926125    48.950208  0.035165379  0.040328806            1 
  117000     1.205266   -6.8296509    49.512331  0.035265193  0.040275359            3 
  118000    1.2111215   -6.8332942    49.677779  0.035083177  0.040218225            1 
  119000    1.2024654   -6.8247796    50.255918   0.03519322  0.040162401            1 
  120000    1.2093714   -6.8389151    50.758469  0.035248937  0.040109731            1 
  121000    1.2110705   -6.8531152    51.123095  0.035208743  0.040055573            2 
  122000    1.2103006   -6.8177618    51.455814  0.035147414  0.040005861            1 
  123000    1.1999263   -6.8151804    52.007364  0.035235342  0.039953597            2 
  124000    1.2197047   -6.8558765    52.398222  0.035213859  0.039905629            2 
  125000    1.2143213   -6.8594816    52.799577  0.035199718  0.039863406            2 
  126000    1.1839513   -6.8510101    53.301285  0.035252173  0.039812067            2 
  127000    1.2136671   -6.8450304    53.573393  0.035153145  0.039761643            2 
  128000     1.193829    -6.843384    54.281649  0.035339615   0.03971646            1 
  129000    1.2087541   -6.8691807    54.483427  0.035196012   0.03967055            1 
  130000    1.2043168   -6.8611852    54.887763  0.035184463  0.039623429            2 
  131000    1.2066361   -6.8517977    55.563417  0.035345685  0.039575875            1 
  132000    1.2161542   -6.8297838    56.074951  0.035400853  0.039532028            1 
  133000    1.2238265   -6.8435352    56.225362  0.035228923   0.03949034            2 
  134000    1.2042902   -6.8305591    57.124808  0.035525378  0.039451671            2 
  135000    1.2024903   -6.8786766    57.426424   0.03544841  0.039418582            1 
  136000    1.2180784   -6.8604015    58.066156  0.035579752   0.03938796            1 
  137000    1.1859639   -6.8425683    58.407016  0.035527382  0.039361195            2 
  138000    1.2055586   -6.8624869    58.481718  0.035315047  0.039329092            1 
  139000    1.2109581   -6.8255439    58.900325  0.035311945  0.039290238            2 
  140000    1.1995237    -6.865118    59.173215  0.035222152  0.039252812            1 
  141000    1.2100397   -6.8288701    59.829533  0.035360244  0.039215034            1 
  142000    1.1933297   -6.8377189    60.403554  0.035448095  0.039178755            2 
  143000    1.1893729   -6.8506261     60.95621  0.035522267  0.039147416            2 
  144000    1.1810161   -6.8754327    61.504748  0.035593025   0.03911971            1 
  145000    1.1962173   -6.8475518    62.093526  0.035685935    0.0390978            1 
  146000    1.1775099    -6.822326    62.490987  0.035668372  0.039074165            1 
  147000    1.2113179   -6.9077135    62.898143  0.035656543  0.039050626            2 
  148000    1.2029008   -6.8645253    63.430188  0.035715196  0.039028952            1 
  149000    1.1930634   -6.8472531    64.091419  0.035845313  0.039011739            3 
  150000    1.2008188   -6.8631988    64.379014  0.035766119  0.038992879            1 
  151000    1.1948701   -6.8504822    64.854839  0.035791854  0.038973169            2 
  152000    1.2069654   -6.8684529    65.062836  0.035670414   0.03895088            5 
  153000    1.1968514   -6.8714166    65.842529  0.035861944  0.038934728            2 
  154000    1.2084068   -6.8748522      66.2186  0.035832576  0.038920188            5 
  155000    1.1857444   -6.8873349    66.425563  0.035712668  0.038903137            2 
  156000    1.1775861    -6.913777    66.952253  0.035765093  0.038884219            2 
  157000    1.1870643   -6.8553978     67.36695  0.035757405   0.03886689            1 
  158000    1.1903076   -6.8833861    67.638643   0.03567439   0.03884966            2 
  159000    1.1744558   -6.8959729    68.239737  0.035765061   0.03883395            2 
  160000    1.2127945   -6.8648862    68.675247  0.035768358  0.038819723            3 
  161000    1.2183796   -6.8940934     69.27186     0.035855  0.038804364            1 
  162000     1.152932   -6.8727663    69.530477  0.035766706   0.03878829            1 
  163000    1.2096424   -6.8721543    70.420054  0.036002073  0.038773219            3 
  164000    1.1806281   -6.8660353    70.608936  0.035878524  0.038758389            1 
  165000    1.2009391   -6.8555724    71.374448  0.036047701   0.03874718            2 
  166000    1.1593195   -6.8875079    71.312372  0.035799383  0.038737366            1 
  167000    1.2071013   -6.8582524    72.278008   0.03606687   0.03872621            3 
  168000    1.1733197   -6.9166524    72.586854  0.036005384  0.038717901            3 
  169000    1.2005515   -6.8854834    73.026532  0.036009138  0.038710131            2 
  170000    1.1916677   -6.8994035    73.565699  0.036061617  0.038701023            1 
  171000    1.1725832    -6.854067    73.854488  0.035991466  0.038688494            2 
  172000    1.1706485   -6.9263964    74.150501   0.03592563   0.03867768            1 
  173000    1.1774872   -6.9024111    75.182118  0.036214893  0.038670924            1 
  174000    1.1860171    -6.891838    75.667503  0.036239225  0.038665522            2 
  175000     1.186711   -6.8775159    75.700776  0.036047989  0.038656335            1 
  176000    1.1952919   -6.8589396    76.295873   0.03612494  0.038647781            4 
  177000    1.1637567   -6.8537545    76.792971  0.036154882  0.038640231            2 
  178000    1.1838661   -6.8703829    77.060926  0.036077212  0.038633077            4 
  179000    1.1704763    -6.895658    77.379025  0.036023755  0.038623215            1 
  180000    1.1784344   -6.8650479    78.078868  0.036147624  0.038614528            4 
  181000     1.175776   -6.8846834    78.086919   0.03595162   0.03860534            2 
  182000    1.1836385   -6.9011563    78.795475  0.036078514  0.038592202            2 
  183000    1.1815375    -6.902149    79.174894  0.036054141  0.038580252            1 
  184000    1.1795788   -6.8600962    79.242454  0.035888792  0.038565839            2 
  185000    1.1796168   -6.9006083     79.84028   0.03596409  0.038550496            2 
  186000    1.1921477   -6.8748318      80.2729  0.035964561  0.038534246            2 
  187000    1.1610607    -6.833278    80.696746  0.035961117  0.038513372            3 
  188000    1.2075009   -6.9037883    80.614373  0.035733321  0.038492994            2 
  189000    1.1873266   -6.9273254    80.965947  0.035699271   0.03846858            1 
  190000    1.1923218   -6.9387583    81.501553  0.035746295   0.03844817            4 
  191000    1.1712982   -6.9035323    82.153806   0.03584372  0.038428447            1 
  192000     1.157368   -6.9077561    82.364218  0.035748359  0.038407482            1 
  193000    1.1899031     -6.87147    83.074699  0.035869904  0.038385459            3 
  194000    1.1866924   -6.8976447    83.205704  0.035741282   0.03836447            3 
  195000    1.1829697   -6.8978387    83.506246   0.03568643  0.038343759            1 
  196000    1.1958581   -6.9138501    84.244489  0.035818235   0.03832359            1 
  197000    1.1623739   -6.9279431    84.581631  0.035779032  0.038302717            1 
  198000    1.1816468   -6.8716866     85.10067   0.03581678  0.038282198            2 
  199000    1.1497364   -6.9076678     85.73683  0.035903195  0.038265577            1 
  200000    1.1925542   -6.9082269    85.771705   0.03573821  0.038250093            3 
  201000    1.1738398   -6.9111902    86.617611  0.035911116  0.038233809            2 
  202000     1.137585    -6.894403     87.22664  0.035984587  0.038220289            2 
  203000    1.1657574   -6.8841949    87.348376  0.035857297  0.038205841            1 
  204000    1.1415821    -6.902838     87.84532  0.035884526  0.038190368            2 
  205000    1.1782629   -6.9122957     88.62911  0.036028093  0.038176409            2 
  206000    1.1924402   -6.9244435    88.832383   0.03593543  0.038162205            1 
  207000    1.1492117   -6.8644868    89.483582  0.036023986  0.038150365            2 
  208000    1.1796833   -6.9025129    89.746498  0.035956129   0.03813852            1 
  209000    1.1697378   -6.9102392    90.227598  0.035975916  0.038125555            2 
  210000     1.148546   -6.9292058    90.775755  0.036022125  0.038111993            1 
  211000    1.1828785     -6.96463     90.84308  0.035877993  0.038098881            2 
  212000    1.1733518   -6.9590752    91.524774  0.035976719  0.038088496            1 
  213000    1.1793005   -6.9337882    92.294509  0.036108963  0.038079833            1 
  214000     1.183001   -6.9000925    92.545955  0.036038144  0.038069285            2 
  215000    1.1579808   -6.9199935    92.808201  0.035972171  0.038058876            2 
  216000    1.1544648   -6.9416984    93.386554  0.036028763   0.03804672            1 
  217000    1.1608437   -6.9130882    93.695418  0.035981343  0.038035065            2 
  218000    1.1629918   -6.8779395    94.157346  0.035992869   0.03802455            3 
  219000    1.1661356   -6.9161329    94.882121  0.036104308  0.038013525            2 
  220000    1.1754764   -6.8945173     95.23211  0.036072769  0.038001367            1 
  221000    1.1596973   -6.9248161    95.558209  0.036032507  0.037990108            1 
  222000    1.1582631   -6.9475716    95.590073   0.03588216  0.037978147            1 
  223000     1.142749    -6.939195    96.356912  0.036007815  0.037967056            2 
  224000    1.1641455   -6.9058506    96.745194  0.035991516  0.037956446            2 
  225000    1.1432723   -6.8927255    97.691673  0.036182101  0.037947696            2 
  226000    1.1809033   -6.9481761    97.467677  0.035939409  0.037937377            2 
  227000    1.1627118   -6.9452666    98.032501  0.035988436  0.037925633            4 
  228000    1.1399561   -6.9465419    98.613293   0.03604287  0.037914803            1 
  229000    1.1518328   -6.8910789    99.218785  0.036105817  0.037904127            2 
  230000    1.1439846   -6.9301428    99.073874  0.035896331  0.037892052            1 
  231000    1.1326159    -6.942722    99.751299  0.035985317  0.037880405            2 
  232000    1.1489803   -6.9186092    99.968296  0.035908152  0.037867429            1 
  233000    1.1369588   -6.9403984    100.67354  0.036006273  0.037853979            1 
  234000     1.137423   -6.8854351    101.23472  0.036052251  0.037841865            2 
  235000    1.1654513   -6.9318113    101.21503  0.035891854  0.037829605            4 
  236000    1.1732082   -6.9433343    101.74006  0.035925163  0.037815524            2 
  237000     1.165375   -6.8961119    101.65787  0.035744679  0.037801669            1 
  238000    1.1942037   -6.9510895     101.9218  0.035686904  0.037785352            1 
  239000    1.1737481   -6.9584916    103.02067  0.035920736  0.037770046            4 
  240000    1.1393003    -6.937074    102.90707   0.03573162  0.037754694            1 
  241000    1.1526393   -6.9773723    103.03489  0.035627555  0.037737855            3 
  242000    1.1644241   -6.9075811    103.40662  0.035608341  0.037719541            1 
  243000    1.1552161   -6.9101517    104.35524  0.035787119  0.037702718            1 
  244000     1.172958    -6.922939    104.39242  0.035653148  0.037685402            2 
  245000    1.1537618   -6.9066941    104.89076  0.035677128  0.037669569            2 
  246000    1.1638809   -6.9852114    105.07663  0.035595063  0.037652304            2 
  247000    1.1693516   -6.9434405    105.40297  0.035561055  0.037633312            1 
  248000    1.1481681   -6.9627086    105.46745  0.035439332  0.037613414            2 
  249000    1.1621686    -6.948232    105.70791  0.035377478  0.037593754            1 
  250000    1.1722256   -6.9397008    106.83025  0.035610084  0.037572821            1 
  251000    1.1170487   -6.9808362    106.70772  0.035427529  0.037553943            2 
  252000    1.1498508   -6.9176363    107.85928   0.03566775  0.037534593            2 
  253000    1.1651492   -6.9604618    107.94051  0.035553527     0.037516            2 
  254000    1.1482469     -6.94244    108.58693  0.035625634  0.037497408            3 
  255000    1.1272244   -6.9260962    108.95749  0.035607024   0.03748018            1 
  256000    1.1651932   -6.9466284    109.28679  0.035575126  0.037462336            1 
  257000    1.1338611    -6.966402    109.96218    0.0356557  0.037447604            1 
  258000    1.1787336   -6.9409992    110.31806  0.035632447  0.037432383            2 
  259000    1.1631046   -6.9748363    110.27074  0.035479645  0.037415746            2 
  260000     1.127333   -6.9264947    111.07901  0.035602247  0.037397793            3 
  261000    1.1369191   -6.9846619    110.95184  0.035425235  0.037379371            1 
  262000    1.1476524   -6.9426234    111.65722  0.035514381  0.037361505            3 
  263000     1.111705   -6.9273558    112.07646  0.035512185  0.037343619            2 
  264000    1.1582753   -6.9458713    112.58772  0.035539053  0.037326075            2 
  265000     1.135623    -6.943328    112.96189  0.035522606   0.03730866            4 
  266000    1.1513077   -6.9521131    112.80156  0.035338834  0.037288907            1 
  267000    1.1557451   -6.9403164    113.72522  0.035494763  0.037269418            3 
  268000    1.1563648   -6.9306489    113.58073   0.03531739  0.037248806            2 
  269000    1.1461982   -6.9720518    113.75938  0.035241445  0.037226751            2 
  270000    1.1534856   -6.9943247    114.10831  0.035218614  0.037203636            3 
  271000    1.1395592    -6.963662    114.51628  0.035214108  0.037181265            1 
  272000    1.1335627   -6.9788041    115.04059  0.035245278  0.037159264            2 
  273000    1.1458502   -6.9515465    115.45546  0.035242815  0.037137873            1 
  274000    1.1328619   -6.9851427     115.4147  0.035101793  0.037115365            2 
  275000    1.1698789   -6.9307803    116.45691  0.035289973  0.037093852            2 
  276000    1.1359304   -6.9667668    116.72454  0.035242916   0.03707421            1 
  277000    1.1331116   -6.9616817    117.23335  0.035268759  0.037054613            1 
  278000    1.1289335   -7.0099371    116.91575  0.035046689   0.03703409            2 
  279000    1.1307861   -6.9912242    117.55097  0.035110804  0.037012765            2 
  280000    1.1473571   -6.9565487    118.13511  0.035159259  0.036990167            2 
  281000     1.172219   -6.9506489    118.23573  0.035063977  0.036967882            2 
  282000    1.1230632   -6.9654291    118.57442  0.035039721   0.03694411            1 
  283000     1.132806   -6.9472847    118.88223  0.035006545  0.036921666            2 
  284000    1.1575913   -6.9663134    119.32541  0.035013325  0.036899331            1 
  285000    1.1652825   -7.0263203    119.45748  0.034929086  0.036876616            3 
  286000    1.1480554   -6.9834375    119.65597  0.034864793  0.036853692            2 
  287000    1.1335456   -6.9808116    120.29396  0.034928561  0.036828336            2 
  288000    1.1332924   -6.9758488    120.26171  0.034797948   0.03680198            1 
  289000    1.1561645   -7.0009098    120.24907  0.034673896  0.036774107            4 
  290000    1.1394838   -6.9712572    120.40021   0.03459776  0.036745651            1 
  291000    1.1390257   -6.9722098    121.04171  0.034662575  0.036717077            1 
  292000    1.1109387   -6.9879854    121.61295  0.034706892  0.036690888            2 
  293000    1.1405763   -6.9996479    121.69185  0.034610878  0.036663995            2 
  294000    1.1240844    -6.957311    122.50457  0.034723518  0.036637369            3 
  295000    1.1396921   -7.0063571    122.47126    0.0345964  0.036610246            7 
  296000     1.126016   -6.9914864    122.41542  0.034463802  0.036582019            2 
  297000    1.1563965   -6.9665083     122.9058  0.034485352  0.036553031            2 
  298000    1.1422746   -7.0017189    122.89669  0.034367083  0.036523045            2 
  299000    1.1220744   -7.0190412    123.74431  0.034488382  0.036493854            2 
  300000    1.1587899    -6.998592    123.90762  0.034418784  0.036465463            1 
  301000    1.1518218   -6.9529463    124.20926  0.034387946  0.036436945            1 
  302000    1.1420401   -6.9913241    124.96341  0.034482176  0.036408255            3 
  303000    1.1349942   -6.9585843    125.10252  0.034406635   0.03637937            2 
  304000    1.1478452   -6.9453666    125.15131  0.034306828  0.036349185            1 
  305000    1.1357546   -7.0054439    125.42968  0.034270406  0.036319643            1 
  306000    1.1342615   -6.9728428    125.92595  0.034293561  0.036290925            2 
  307000    1.1290553   -6.9615867      126.215  0.034260314  0.036262301            2 
  308000     1.108585   -7.0199556    126.94381  0.034346269  0.036234622            3 
  309000    1.1305624   -6.9932864    127.23767  0.034314365   0.03620749            3 
  310000     1.119878    -7.011321    127.53573  0.034283798  0.036180811            2 
  311000    1.1296231   -7.0169619    128.12036  0.034330215  0.036154731            2 
  312000    1.1374645   -7.0103908    127.98592  0.034184275  0.036127873            3 
  313000    1.1169512   -7.0436059    128.41502  0.034189302  0.036101588            1 
  314000    1.1381017   -7.0003793    129.46411   0.03435884  0.036075857            1 
  315000    1.1243593   -6.9795866    129.70729  0.034314098  0.036050814            1 
  316000    1.0990237   -7.0333262    129.96298  0.034272938  0.036025976            2 
  317000    1.1309509   -6.9792011     130.3928  0.034277812  0.036001504            1 
  318000    1.1493939   -6.9834166    130.76116  0.034266551  0.035977016            1 
  319000    1.1428876   -7.0040485    131.56086  0.034368039  0.035952794            1 
  320000    1.0892584   -7.0793913    131.29769  0.034192106  0.035928269            1 
  321000    1.1632567   -6.9792332    131.77319  0.034209031  0.035903605            1 
  322000     1.140044   -7.0253165    131.97995  0.034156302  0.035880003            3 
  323000    1.1576668   -7.0323121    132.45199   0.03417234  0.035856062            1 
  324000     1.135684   -7.0004835    132.96739  0.034199431  0.035831898            1 
  325000    1.1029543   -7.0211519    133.41608   0.03420925  0.035807938            2 
  326000    1.1017976   -7.0592192    133.38477  0.034096311  0.035784033            2 
  327000    1.1026193   -6.9976528    134.08714  0.034171034  0.035759971            2 
  328000     1.113987   -7.0189446    134.67752   0.03421685  0.035737105            2 
  329000    1.1175496   -7.0318931    134.77814  0.034138332  0.035714697            2 
  330000    1.1016745    -6.991803    135.70357  0.034268579  0.035692451            2 
  331000    1.1371713   -7.0258706    135.77168  0.034182195  0.035669922            2 
  332000    1.1323564   -6.9986289    136.28248   0.03420745   0.03564854            2 
  333000    1.0949177   -6.9540824    137.16076  0.034324515  0.035628104            6 
  334000    1.1055232   -7.0292711    136.81008   0.03413425  0.035608238            3 
  335000    1.1341509   -6.9976032    137.35716  0.034168449  0.035587756            2 
  336000    1.1370424   -6.9775613    138.46532  0.034341598  0.035569735            2 
  337000    1.1143274   -7.0606335    138.75769  0.034311991  0.035551939            2 
  338000    1.0984038   -7.0213048    139.61966  0.034422993   0.03553546            1 
  339000    1.1343016   -7.0571974    139.04725  0.034180739  0.035517772            2 
  340000    1.1142096      -7.0344    139.71713  0.034244395  0.035498234            1 
  341000    1.1126342   -7.0383363    139.71849  0.034144303  0.035479624            4 
  342000    1.1082231   -7.0183733    140.24235  0.034172112  0.035460212            3 
  343000    1.1316163   -7.0585804    140.09733  0.034037253  0.035439469            1 
  344000    1.0891015   -6.9814594    141.00391  0.034157924  0.035419042            2 
  345000     1.100222   -7.0297369    141.30508  0.034131663  0.035399246            2 
  346000    1.1318438   -7.0576933    141.10056  0.033983757  0.035378335            1 
  347000    1.1188304   -7.0179429    140.90499  0.033838854  0.035357298            3 
  348000    1.1235826   -7.0522196    141.97615  0.033998121  0.035336023            3 
  349000    1.1358993   -7.0303402    142.02149   0.03391153  0.035315474            2 
  350000    1.1038907   -7.0573527    142.28908  0.033878353  0.035293653            3 
  351000    1.1244164   -7.0120192    142.75831  0.033893236  0.035272428            1 
  352000    1.1014308   -7.0439247    142.79718   0.03380615  0.035250793            1 
  353000    1.1115061   -7.0422577    143.15538  0.033794943  0.035229075            2 
  354000    1.1273095   -7.0373746    143.42467  0.033762869  0.035207408            1 
  355000    1.1077567     -6.99349    144.35457  0.033886049  0.035185842            1 
  356000    1.1145678   -6.9870714    144.70117  0.033871998  0.035164167            1 
  357000    1.1304421   -7.0581718    144.90592  0.033824912   0.03514312            1 
  358000    1.1207151   -7.0477585    145.21691  0.033802818  0.035122041            2 
  359000    1.1012645   -7.0172753    145.18334  0.033700868  0.035100558            1 
  360000    1.1066265   -7.0472442    145.55779  0.033693932  0.035079302            2 
  361000    1.1050061   -7.0558113    146.34293  0.033781839  0.035057876            2 
  362000    1.1007709   -7.0286386     146.3192  0.033683058  0.035036698            2 
  363000    1.1241644   -6.9981567    146.91637  0.033727357  0.035015114            3 
  364000    1.1081162   -7.0082182     147.1651  0.033691643  0.034993111            3 
  365000    1.0938752   -7.0604804    147.62225  0.033703711  0.034970742            3 
  366000    1.1063348   -7.0459565    147.30763  0.033539988  0.034947915            1 
  367000    1.0953788   -7.0396136    147.90443  0.033584112  0.034924609            2 
  368000    1.1098363   -7.0588709    148.06775  0.033529835  0.034901889            2 
  369000    1.1127743   -7.0453309    148.11027  0.033448569  0.034879926            1 
  370000    1.1163535   -7.0686679    148.50606  0.033447311  0.034857019            3 
  371000    1.0958005   -7.0026059    149.37377  0.033552059  0.034834711            2 
  372000      1.10235   -7.0741321    149.36798  0.033460569  0.034812587            2 
  373000    1.0911385   -6.9979267    149.73286  0.033452382  0.034790374            1 
  374000    1.1149045   -7.1050975     150.0468  0.033432887  0.034768106            2 
  375000    1.1129707   -7.0692811    150.73517  0.033496703  0.034746335            1 
  376000    1.1042518   -7.0291033    151.04589  0.033476482   0.03472551            2 
  377000    1.0660594   -7.0514763    152.13383  0.033628167  0.034705611            2 
  378000    1.1017013   -7.0233987     151.7305  0.033450288  0.034685305            1 
  379000     1.095015   -7.0738107    151.55884  0.033324283  0.034663964            2 
  380000    1.1225438   -7.0336232     152.0819  0.033351293  0.034641751            1 
  381000    1.1073313   -7.0381657    152.32986  0.033317992  0.034619423            1 
  382000    1.0968491    -7.046971    153.04996  0.033387862  0.034597652            1 
  383000    1.1126551   -7.0563449    152.92783  0.033274114  0.034576044            2 
  384000    1.1160296   -7.0906828    153.08341  0.033221227  0.034554127            4 
  385000    1.0881532   -7.0986341    153.28858  0.033179345  0.034531316            1 
  386000      1.11532   -7.0722726    153.63006  0.033167111  0.034508628            2 
  387000    1.0961827   -7.0783165    154.43436    0.0332546  0.034485888            2 
  388000    1.1326891   -7.0580399    154.50286  0.033183603  0.034462902            2 
  389000     1.106524   -7.0391599    154.62481  0.033124424   0.03444079            1 
  390000    1.1002023   -7.0598136    155.39733  0.033204559  0.034418168            2 
  391000    1.1165783   -7.0528491     155.7214  0.033188703   0.03439644            2 
  392000    1.1131259   -7.0613868    156.51335  0.033272395  0.034375371            1 
  393000    1.0912803   -7.0705205    157.04505  0.033300478  0.034354613            3 
  394000    1.0966503   -7.1150796    156.69406  0.033141722  0.034332876            5 
  395000    1.0985552   -7.1062843    157.01883  0.033126335  0.034312384            1 
  396000    1.1222906   -7.0596722    157.87849  0.033223588  0.034292897            2 
  397000    1.1058904    -7.045542     158.3345  0.033235622  0.034274005            3 
  398000    1.0678188   -7.0993836    158.14996  0.033113476   0.03425445            5 
  399000    1.0996405   -7.1086946    158.34494  0.033071207  0.034234815            4 
  400000    1.1160286   -7.0779327    159.29942   0.03318738  0.034215118            2 
  401000     1.092265   -7.0421314    159.16848  0.033077406  0.034194671            3 
  402000    1.0877736    -7.112572    159.59279  0.033083082  0.034173989            5 
  403000      1.12764   -7.1103584    159.62521  0.033007694  0.034152917            3 
  404000     1.082984   -7.1136328    160.03716  0.033010965  0.034132026            4 
  405000    1.0951324    -7.059921    160.40606  0.033005361  0.034111749            2 
  406000    1.0912044   -7.0599624    160.75824  0.032996355  0.034090689            2 
  407000    1.0697871   -7.0633009    160.79898  0.032923624  0.034069794            1 
  408000    1.0789697   -7.0916815    160.79466  0.032842046  0.034048142            1 
  409000    1.0784873   -7.0418753    161.64061   0.03293411  0.034025836            1 
  410000    1.0944327   -7.0722826    161.58041  0.032841546  0.034003274            1 
  411000    1.0902246   -7.1219596    161.67093  0.032779993   0.03398105            1 
  412000    1.0815212   -7.0359527    161.79399  0.032725322  0.033959219            2 
  413000    1.1019762   -7.0819495    161.64903  0.032616835  0.033936594            3 
  414000    1.0780434   -7.0927274    162.10466  0.032629763  0.033913687            2 
  415000    1.0727539   -7.0792326    162.38586  0.032607603  0.033890315            1 
  416000    1.0927885   -7.1152979    162.60097   0.03257231  0.033866867            4 
  417000    1.1175641   -7.0762776    163.05383  0.032584698  0.033843969            2 
  418000    1.0829188   -7.0717282     164.0049  0.032696352  0.033821289            2 
  419000     1.091768   -7.0612317    163.60913  0.032539605  0.033798999            2 
  420000    1.1033072   -7.0703037    164.28471  0.032596173  0.033777021            2 
  421000    1.0815842     -7.09665    164.27806   0.03251743  0.033753841            2 
  422000    1.0625511   -7.0754942    165.13544  0.032609684  0.033730659            2 
  423000    1.1006813   -7.1013749    164.90608  0.032487407  0.033707146            4 
  424000    1.0880085   -7.0934668    165.32319  0.032492765  0.033684352            2 
  425000    1.0766852   -7.0918664    165.97662  0.032544434  0.033661806            2 
  426000    1.0789088    -7.079715    166.11473  0.032495056  0.033639191            1 
  427000    1.0746968    -7.100971    165.99221  0.032395045  0.033616779            1 
  428000    1.0811449   -7.0926225    167.05573  0.032526428  0.033594678            2 
  429000     1.069503   -7.0693549    166.97154  0.032434253  0.033572463            1 
  430000    1.0636369   -7.1155234    167.16014  0.032395377  0.033550621            3 
  431000    1.1085327   -7.1055915    167.46052  0.032378291  0.033528691            2 
  432000    1.0874879   -7.1277879    167.89782  0.032387696  0.033506689            1 
  433000    1.0818558   -7.0974099    167.97718  0.032328172  0.033484998            2 
  434000    1.0813291   -7.1028973    168.89071  0.032429092  0.033462892            2 
  435000    1.0500612   -7.1141016    168.77338  0.032332065  0.033441065            4 
  436000    1.0732404   -7.1082177    169.03367  0.032307659  0.033418352            3 
  437000    1.0673344   -7.0886122    169.65041  0.032351337  0.033396214            2 
  438000    1.0658249     -7.11231    169.91983  0.032328735  0.033375038            1 
  439000    1.0626742   -7.0761006    170.54451  0.032373673  0.033353451            2 
  440000    1.0735099   -7.0874498    170.67123  0.032324096  0.033332217            1 
  441000    1.0912797   -7.1366202    170.64198  0.032245272  0.033310593            5 
  442000    1.0801113   -7.1167887    171.16776  0.032271448  0.033290149            2 
  443000    1.0703102   -7.0872311    171.67561  0.032294134  0.033269562            1 
  444000    1.0601136   -7.1075671    172.05179  0.032292002  0.033249725            1 
  445000    1.0692985   -7.1346148    172.07949  0.032224624  0.033229245            1 
  446000    1.1040774   -7.0867293    172.21937  0.032178508    0.0332086            3 
  447000    1.0618534   -7.1420933    172.03218  0.032071622  0.033187203            3 
  448000    1.0572603    -7.129851    172.32104  0.032053765  0.033164355            4 
  449000    1.0846544   -7.1221033    173.11402   0.03212955  0.033141893            5 
  450000    1.0709535   -7.1041467    173.36375  0.032104398  0.033120286            3 
  451000    1.0783943    -7.065601    174.47386  0.032238333  0.033099276            2 
  452000    1.0717731   -7.1118276    174.00034   0.03207971  0.033077605            2 
  453000    1.0636055   -7.0973382    174.37662  0.032078112   0.03305612            1 
  454000     1.055944    -7.091572    173.43907  0.031835365  0.033033928            2 
  455000    1.0775016   -7.1160888      173.799  0.031831318  0.033010752            3 
  456000    1.0363128   -7.1311251    174.53592  0.031896184    0.0329874            1 
  457000    1.0712983   -7.1465995    174.32029   0.03178707  0.032963619            2 
  458000    1.0795972   -7.1091139    174.89823  0.031822822  0.032940207            1 
  459000    1.0662253   -7.0988128    175.58321  0.031877852  0.032916667            1 
  460000     1.074297   -7.1108539    175.31668  0.031760268  0.032892453            2 
  461000     1.079662   -7.1445476    174.86886  0.031610423  0.032868383            3 
  462000    1.0697182    -7.133159    175.34524  0.031627929  0.032843805            2 
  463000    1.0555111   -7.0872853    175.68257  0.031620333  0.032818531            1 
  464000    1.0569553   -7.1322633    175.77324  0.031568471  0.032793415            2 
  465000    1.0693473   -7.1511638    175.96813  0.031535508  0.032768242            2 
  466000    1.0922711   -7.1195186    176.25619  0.031519348  0.032743781            1 
  467000    1.0647774   -7.1364156    177.11423  0.031604966  0.032719253            2 
  468000    1.0653729   -7.1245311    177.17618  0.031548465  0.032695726            1 
  469000    1.0694134   -7.1400392    177.31821  0.031506434  0.032672127            2 
  470000     1.064652   -7.1322701    177.62026  0.031492953  0.032647937            1 
  471000     1.073611   -7.1447027    177.75249  0.031449484  0.032623725            3 
  472000     1.089047   -7.1438685    177.88808  0.031406794  0.032598704            1 
  473000    1.0510749   -7.1533856    178.20811  0.031396778  0.032574167            2 
  474000    1.0729143   -7.1221121    178.74584  0.031425077  0.032550008            3 
  475000    1.0654057   -7.1268576    178.52382  0.031319969  0.032526207            2 
  476000     1.046318   -7.1383052    179.47247  0.031420249  0.032502544            1 
  477000    1.0508508   -7.1231026    179.83781  0.031418206  0.032478529            2 
  478000    1.0415055   -7.1378681    180.12594  0.031402708  0.032454479            1 
  479000    1.0570046    -7.135661    179.75171  0.031272043   0.03242993            1 
  480000    1.0601131   -7.1425034    180.11675  0.031270269  0.032405476            3 
  481000    1.0609515   -7.1146357    180.71528  0.031308954  0.032381168            1 
  482000    1.0878486   -7.1766352    180.27303  0.031167535  0.032356887            1 
  483000    1.0328345   -7.1387567    181.73556  0.031355342  0.032332505            3 
  484000    1.0521648   -7.1112659    181.34242  0.031222868  0.032308821            2 
  485000    1.0617865   -7.1175544    182.11477  0.031291198  0.032285127            3 
  486000    1.0685009      -7.1143    182.53547  0.031298949  0.032261889            2 
  487000    1.0776853    -7.096141    182.55858  0.031238635  0.032239153            3 
  488000    1.0531355   -7.1412351    182.12817  0.031101122  0.032216056            1 
  489000    1.0554869   -7.1471607    182.95543  0.031178499  0.032192378            2 
  490000    1.0619996   -7.1545149    183.18613  0.031154103    0.0321685            3 
  491000     1.068041    -7.174747    183.70485  0.031178691  0.032144835            3 
  492000    1.0360302   -7.1856274    183.46108  0.031074032  0.032121303            4 
  493000    1.0697202   -7.1398357    183.43835  0.031007159  0.032097975            2 
  494000    1.0516336   -7.1796023    183.84743  0.031013399  0.032074048            1 
  495000    1.0509978   -7.1606988    183.70877  0.030927402  0.032049564            1 
  496000    1.0617664   -7.1590499     184.3492  0.030972647  0.032024999            3 
  497000    1.0371137   -7.1336534    184.92231  0.031006423  0.032000539            3 
  498000    1.0532987   -7.1395937     185.0591  0.030967051  0.031976522            1 
  499000    1.0467461    -7.170751    184.41999  0.030798262  0.031952143            2 
  500000    1.0339686   -7.1931029    183.91323  0.030652205  0.031927165            3 
  501000    1.0386052   -7.1402633    184.24021  0.030645411  0.031902101            4 
  502000    1.0481724   -7.1724615    185.06117  0.030720646  0.031877006            1 
  503000      1.05726   -7.1891247    185.31782  0.030702091  0.031851348            5 
  504000    1.0390791   -7.1179535    186.09207  0.030769191  0.031826569            2 
  505000    1.0684098   -7.1499822    185.89507  0.030675754  0.031801657            4 
  506000    1.0926073   -7.1215568    187.08279  0.030810737  0.031777445            2 
  507000    1.0653869   -7.1390544    187.28783  0.030783666  0.031753345            3 
  508000    1.0289016   -7.1797301    186.90565  0.030660375  0.031728811            1 
  509000    1.0257569   -7.1768913    187.27844  0.030661172   0.03170448            1 
  510000    1.0476218   -7.1847512    187.19283  0.030587064  0.031680588            4 
  511000    1.0599567   -7.1844805    188.03602  0.030664713  0.031657221            2 
  512000     1.050937   -7.1762559    188.18454  0.030628994  0.031633893            2 
  513000    1.0549933    -7.176501    188.51345  0.030622718  0.031610701            2 
  514000    1.0731754   -7.1687472    188.77283  0.030605193  0.031587541            3 
  515000    1.0504847   -7.1706401    189.50898  0.030664884  0.031564438            2 
  516000    1.0548598   -7.2020786    189.36394  0.030582032  0.031541504            2 
  517000    1.0342689   -7.1695772     189.7624  0.030587105  0.031518651            3 
  518000    1.0471812   -7.1402384    190.07534    0.0305784  0.031495525            1 
  519000    1.0409473   -7.1553308    190.75798  0.030629091  0.031473239            2 
  520000    1.0357168   -7.1829839    190.08231  0.030461909  0.031450566            1 
  521000    1.0588697   -7.1665821    190.99669  0.030549695  0.031427446            2 
  522000    1.0391378   -7.2121776    190.23206  0.030369103  0.031404451            2 
  523000    1.0546554   -7.1814784    191.22561  0.030469345  0.031381649            2 
  524000     1.032879   -7.1520573    192.15377  0.030558805  0.031358659            2 
  525000    1.0594404   -7.1668703    192.33495  0.030529356  0.031335739            2 
  526000    1.0419213    -7.174859    191.65343  0.030363345  0.031312361            3 
  527000    1.0160797   -7.1671235    192.42747  0.030428125  0.031289702            1 
  528000       1.0236   -7.1745585    193.15941  0.030486018   0.03126746            2 
  529000     1.049138   -7.1414573    193.33334  0.030455788  0.031245485            2 
  530000    1.0641042   -7.2175333    193.15439  0.030370187  0.031223627            2 
  531000    1.0407886   -7.1932479    193.56089  0.030376788  0.031201986            1 
  532000    1.0388376   -7.1606079    193.57261  0.030321524  0.031180176            2 
  533000    1.0381992    -7.171748    194.39528  0.030393258  0.031157861            3 
  534000    1.0272635   -7.1638784    194.32283  0.030325035   0.03113574            2 
  535000    1.0407689   -7.2011849    194.49626  0.030295367  0.031113398            2 
  536000    1.0533987   -7.1729871     195.4123  0.030381265  0.031091271            5 
  537000     1.020723   -7.1939516    195.19137  0.030290405  0.031069688            3 
  538000    1.0314706   -7.1733574    196.14064   0.03038114  0.031048085            2 
  539000    1.0350654   -7.1756599     196.0497  0.030310714  0.031026429            7 
  540000    1.0376983   -7.2235661    196.01739  0.030249597  0.031004835            1 
  541000    1.0332077   -7.1659185    197.00547  0.030345882  0.030983468            3 
  542000    1.0258924   -7.1723826    197.19673    0.0303193  0.030962504            1 
  543000    1.0433467   -7.1656101    197.11229  0.030250505  0.030941558            4 
  544000    1.0542076   -7.1781332    197.85405  0.030308525  0.030920689            1 
  545000    1.0364493   -7.1631765    197.85055  0.030252377  0.030899896            1 
  546000    1.0652048   -7.1534464    197.96528  0.030214481  0.030879309            3 
  547000    1.0224779    -7.173867    198.25441  0.030203291  0.030858658            5 
  548000    1.0065609   -7.1681259    198.64388  0.030207403  0.030837531            2 
  549000    1.0179431   -7.1797847    198.29212  0.030098986  0.030816461            1 
  550000    1.0093884   -7.2037508    198.18127  0.030027465  0.030795021            2 
  551000    1.0370622   -7.2187222    198.61766  0.030038969  0.030773664            1 
  552000    1.0179148   -7.1868156    199.53212  0.030122602  0.030752504            1 
  553000    1.0177152   -7.1850863    199.66451  0.030088082  0.030731994            2 
  554000    1.0449775   -7.2061627     199.7471  0.030046194  0.030710842            3 
  555000    1.0364275   -7.2000502    200.68371   0.03013269  0.030690367            2 
  556000    1.0369747   -7.1922285    199.96052  0.029970102  0.030669879            1 
  557000    1.0398663   -7.2216314    199.94918  0.029914599  0.030648905            4 
  558000    1.0464473   -7.1580506    201.62862    0.0301118  0.030628708            2 
  559000    1.0112092   -7.2347327    201.11272  0.029981025  0.030608666            3 
  560000    1.0257845   -7.2079574    201.45332  0.029978173  0.030588426            2 
  561000    1.0235651   -7.1686519    202.29287  0.030049446  0.030568417            2 
  562000    1.0162238   -7.2083773    201.78821  0.029921146  0.030548443            2 
  563000    1.0414531   -7.2040686    202.48159  0.029970632  0.030528518            2 
  564000    1.0238808   -7.2178794    202.74256  0.029956052  0.030508455            3 
  565000    1.0341801   -7.2223441    202.71634  0.029899166  0.030488604            2 
  566000    1.0084864   -7.1717362    203.34842  0.029939403  0.030469241            2 
  567000     1.020074    -7.208473    203.43221  0.029898914    0.0304495            2 
  568000    1.0270949   -7.2026249    203.67352  0.029881679  0.030429256            5 
  569000    1.0287856   -7.2123387    203.85306  0.029855457   0.03040897            2 
  570000    1.0305844   -7.2206663    203.89002  0.029808482  0.030388552            1 
  571000    1.0106406   -7.1989688    203.88071   0.02975492  0.030367851            1 
  572000    1.0512461   -7.2017648    204.61389  0.029809716  0.030347135            3 
  573000    1.0068873   -7.2199937    204.00722  0.029669461  0.030326445            2 
  574000     1.045828   -7.2475453    204.16018   0.02963998  0.030305622            2 
  575000    1.0431022   -7.2246673    204.53046  0.029642096  0.030284898            2 
  576000   0.99662827   -7.1844631     205.0302  0.029662933  0.030263912            2 
  577000     1.025633   -7.2217411    205.25079  0.029643383  0.030243406            2 
  578000    1.0171407   -7.2301371    205.50089  0.029628155  0.030222942            2 
  579000   0.99617444   -7.2141932     204.8983  0.029490257  0.030202129            2 
  580000    1.0147769   -7.2316517    205.75117   0.02956195  0.030181216            2 
  581000    1.0107102   -7.2211319    206.28795  0.029588059  0.030160708            1 
  582000    1.0051447   -7.2256499    206.26165  0.029533455  0.030140389            4 
  583000     1.026131   -7.2449303    205.91013  0.029432551  0.030119485            2 
  584000    1.0476693   -7.2226246    206.82931  0.029513314  0.030098921            3 
  585000    1.0364459    -7.219241    206.92398  0.029476351  0.030078696            2 
  586000    1.0123316    -7.238038    207.58179  0.029519595  0.030058137            1 
  587000    1.0037411   -7.2255985      207.292  0.029428166  0.030037774            1 
  588000    1.0318212   -7.2019151    208.43309  0.029539836  0.030017494            2 
  589000     1.010419   -7.2328536    207.64372  0.029378002  0.029997375            3 
  590000    1.0267196   -7.2177544    208.35812  0.029429114  0.029977213            2 
  591000    1.0073071   -7.2608061    208.07964  0.029340051  0.029957001            2 
  592000    1.0046129   -7.2852054    208.94021  0.029411629  0.029936483            1 
  593000    1.0224607   -7.2267161    209.34177  0.029418461  0.029915993            2 
  594000    1.0222308   -7.2221638    209.26896  0.029358721  0.029896009            1 
  595000    1.0176674   -7.2437718    209.07294  0.029281924   0.02987564            2 
  596000    1.0123082   -7.2152285    209.74061  0.029326148   0.02985532            4 
  597000    1.0478198   -7.2178573    210.20637  0.029342039  0.029835218            2 
  598000    1.0066507   -7.2380621     210.2566  0.029299972  0.029815389            2 
  599000     1.030595   -7.2320841    210.70603  0.029313582  0.029795665            2 
  600000    1.0151528   -7.2413651    210.36573  0.029217463   0.02977601            2 
  601000    1.0149754   -7.2478962    211.70161  0.029354078  0.029756487            1 
  602000    1.0096074   -7.2557989    211.11591   0.02922424  0.029736995            2 
  603000    1.0306884   -7.2767637     211.6344  0.029247429  0.029717407            2 
  604000   0.99258686   -7.2556431    211.89885  0.029235493   0.02969774            2 
  605000    1.0350526   -7.2585825    212.21238  0.029230355  0.029678065            1 
  606000    1.0086992   -7.2413605    212.79717  0.029262537  0.029658681            1 
  607000    1.0357741    -7.230836    212.12585  0.029122165  0.029639643            2 
  608000    1.0059138   -7.2605607    212.30417  0.029098708   0.02962036            3 
  609000   0.99806932   -7.2486078    212.93665  0.029137472  0.029600669            4 
  610000     1.008567   -7.2404166    212.94288  0.029090557  0.029580859            1 
  611000    1.0162868    -7.244053    213.56837  0.029128255  0.029561284            2 
  612000    1.0093394   -7.2497619    213.72254  0.029101653  0.029541952            2 
  613000    1.0135972   -7.2688308    213.27347  0.028993131  0.029522462            2 
  614000   0.99262589   -7.2509188    214.24881  0.029078286  0.029502886            3 
  615000    1.0025946   -7.2690725     214.2958  0.029037372  0.029483453            2 
  616000    1.0284735   -7.2393007    215.16625  0.029107988  0.029464264            2 
  617000    1.0186684   -7.2407794    215.54614   0.02911212  0.029444855            3 
  618000    1.0079297   -7.2692598    214.85047  0.028971207  0.029425451            4 
  619000    1.0042446   -7.2864926    214.87441  0.028927626  0.029406277            3 
  620000    1.0220963   -7.2856461    215.11653  0.028913512   0.02938703            2 
  621000    1.0053372   -7.2618878    216.55475  0.029059951  0.029367908            1 
  622000   0.98355853   -7.2666412    215.93518  0.028930222   0.02934878            5 
  623000    1.0123599   -7.2321495    216.04581  0.028898583  0.029329384            3 
  624000   0.98524666   -7.2524657    217.16526  0.029001771  0.029310089            2 
  625000   0.98808999    -7.287536    216.46315  0.028861753  0.029290654            1 
  626000     1.009182   -7.2524926    216.59517  0.028833223  0.029271129            2 
  627000    1.0041226   -7.2677686    216.57033  0.028783935  0.029251536            2 
  628000    1.0059187   -7.2714086    216.96025  0.028789843  0.029231994            2 
  629000   0.98196735    -7.252927    217.24537  0.028781846  0.029212703            2 
  630000    0.9873083   -7.2906509    217.37503  0.028753311  0.029193162            3 
  631000    1.0042368   -7.2668257    217.41444  0.028712947   0.02917359            4 
  632000    1.0131598   -7.2783138    217.30528  0.028653122  0.029153744            1 
  633000   0.99508966   -7.2620063    217.47655  0.028630404  0.029134015            2 
  634000    1.0094988   -7.2240378    218.06167  0.028662155  0.029114327            1 
  635000   0.98480538    -7.264537    217.91794  0.028598154  0.029094484            4 
  636000    1.0088417   -7.2764837    218.11737   0.02857932  0.029074673            1 
  637000    1.0002649   -7.2766281    218.29151  0.028557236  0.029054686            1 
  638000    1.0136874   -7.2620532    218.45672  0.028534054  0.029034567            2 
  639000   0.99495363     -7.28836    218.98072  0.028557736  0.029014542            3 
  640000    1.0034733   -7.3045185    218.63116  0.028467599  0.028994444            1 
  641000    1.0057215   -7.2329602    219.75409  0.028569174  0.028974505            2 
  642000   0.98457188   -7.2689634    219.53635  0.028496411  0.028954948            5 
  643000   0.97328556   -7.3009331    219.29168  0.028420383  0.028935373            2 
  644000    1.0116972   -7.2832468    220.41398  0.028521478  0.028915999            2 
  645000   0.99065334   -7.2614548     221.1452  0.028571731  0.028896702            2 
  646000   0.98448705   -7.2587795    221.54431  0.028578987  0.028877671            3 
  647000    1.0016762   -7.2850037    220.73104  0.028430067  0.028858342            2 
  648000   0.98734667   -7.2539722    221.73264     0.028515  0.028838977            1 
  649000   0.98651214   -7.3041818    220.58201   0.02832332  0.028819386            4 
  650000    1.0058856    -7.292016    222.30272  0.028500348   0.02880033            1 
  651000    1.0012844    -7.285995    221.84018   0.02839736  0.028781398            3 
  652000    1.0012041    -7.319563    222.16601  0.028395451  0.028762218            3 
  653000    1.0229451   -7.2466967    222.31556  0.028371052  0.028742881            2 
  654000    1.0274422    -7.318085    221.85416  0.028268879  0.028723899            1 
  655000   0.98368435   -7.3173832    222.21028  0.028271029  0.028704444            1 
  656000   0.98589441   -7.3282488    222.80364  0.028303309   0.02868498            3 
  657000   0.99377071   -7.2865107     223.1903  0.028309272  0.028665775            3 
  658000   0.98126731   -7.2747838    222.70877  0.028205265  0.028646192            3 
  659000   0.98985797   -7.2983632    223.46074  0.028257554  0.028627069            1 
  660000    1.0049792   -7.2914118    223.46886  0.028215765  0.028607937            3 
  661000   0.97669198   -7.2948943    223.68832  0.028200746  0.028588858            3 
  662000    0.9679643   -7.3144051    224.60349   0.02827335  0.028569918            3 
  663000   0.99157685   -7.3200713    224.07523  0.028164307  0.028550605            4 
  664000    1.0036856   -7.3147119    224.67128  0.028196697  0.028531354            4 
  665000   0.96974642   -7.3364108    224.11426  0.028084494  0.028512297            2 
  666000   0.98158362   -7.3180385    224.97566  0.028150108  0.028493306            2 
  667000   0.99332261    -7.310823    224.59019  0.028059743   0.02847461            2 
  668000   0.97411833   -7.2960941    225.03257  0.028072925  0.028455717            3 
  669000   0.98103554   -7.3159067    225.11061  0.028040684  0.028436445            2 
  670000   0.97964549   -7.3484989    225.20007  0.028009959  0.028417111            3 
  671000   0.97290778   -7.3117623    226.23373  0.028096588   0.02839813            2 
  672000   0.97579909   -7.3116582    226.05007  0.028032002    0.0283793            2 
  673000    1.0000872   -7.3041861    226.33132  0.028025176  0.028360319            2 
  674000    0.9761378   -7.3347181    226.49163  0.028003417  0.028341221            2 
  675000   0.95769639   -7.3545226    226.31101  0.027939631  0.028322109            1 
  676000   0.98462584   -7.3381543    226.68298  0.027944155  0.028303098            3 
  677000   0.97697001   -7.3245488    227.15924  0.027961501  0.028284433            2 
  678000   0.94905068   -7.3076997     227.6001  0.027974447  0.028266045            1 
  679000    1.0111777   -7.3303924    227.46555  0.027916735  0.028247746            2 
  680000    1.0020181   -7.3310178     228.3511  0.027984204  0.028229123            3 
  681000   0.99415354   -7.3642371    228.06095  0.027907605  0.028210591            1 
  682000   0.98650479     -7.31791    228.27056  0.027892297  0.028191988            1 
  683000   0.98387445    -7.331061    228.74247  0.027909037  0.028173212            3 
  684000   0.97082785   -7.2947835    228.92632  0.027890633  0.028154466            2 
  685000   0.97951704   -7.3387429    228.30261  0.027774041  0.028135429            2 
  686000    1.0055313   -7.2978807    228.50992  0.027758737   0.02811629            1 
  687000   0.98502854   -7.3192591    228.84256   0.02775868  0.028097466            3 
  688000    1.0037662   -7.3288389    228.87098  0.027721776  0.028078609            1 
  689000   0.98347389   -7.3134604     229.7571  0.027788716  0.028059698            1 
  690000   0.97256046   -7.3115849    229.90239  0.027765989  0.028041226            1 
  691000   0.95803333   -7.3342692    229.19854  0.027640924  0.028022718            1 
  692000   0.98105315    -7.312262    230.71817   0.02778398  0.028004454            2 
  693000   0.95523224   -7.3034859    231.42036  0.027828327   0.02798614            3 
  694000    1.0014122   -7.3399574    230.77399  0.027710614  0.027968135            1 
  695000   0.97057783   -7.3172607    231.53662  0.027762185  0.027950443            3 
  696000   0.96130383     -7.32056    231.30758  0.027694873  0.027932504            1 
  697000   0.98507187   -7.3474892    232.23709  0.027766271  0.027914506            3 
  698000    0.9603777   -7.3497107    231.93221  0.027690092  0.027896624            2 
  699000   0.95924203   -7.3288751    231.94028   0.02765144  0.027878564            3 
  700000   0.97833595    -7.327822    232.39449  0.027666011  0.027860529            2 
  701000   0.99639997   -7.3113474    232.66206  0.027658352  0.027842544            3 
  702000   0.97680224   -7.3150403    233.30206  0.027694927  0.027824739            1 
  703000   0.97576743     -7.40158    231.76944  0.027473854  0.027806643            2 
  704000   0.97617642   -7.3760762    232.50639  0.027522063  0.027788251            2 
  705000   0.97405469   -7.3231435    232.95176  0.027535669  0.027770122            2 
  706000   0.96255493   -7.3679276    232.98506  0.027500597  0.027752236            3 
  707000   0.96209101   -7.3363956    233.12532  0.027478232  0.027734265            2 
  708000    0.9739364   -7.3244159    233.94115  0.027535446  0.027716165            4 
  709000   0.97429732   -7.3451728    233.97978   0.02750115  0.027698144            2 
  710000   0.96640668   -7.3323619     234.9189  0.027572641  0.027680318            2 
  711000   0.97625432   -7.3868275    233.81341  0.027404291  0.027662366            6 
  712000   0.97011155   -7.3425306    234.44463   0.02743968  0.027644428            1 
  713000   0.99190337   -7.3706471    234.70316  0.027431411   0.02762662            2 
  714000   0.97940588   -7.3309373    235.37127   0.02747097  0.027609052            2 
  715000   0.96796065   -7.3541604    234.88079  0.027375384  0.027591372            2 
  716000   0.96241611   -7.3383415    234.75882  0.027322954  0.027573579            1 
  717000   0.96614727   -7.3504549    235.28051   0.02734548  0.027555626            2 
  718000   0.94815651   -7.3637566    235.40851  0.027322251  0.027537969            1 
  719000     0.974858   -7.3613081    236.47475  0.027407829  0.027520103            2 
  720000   0.95973222   -7.3274373    236.32081  0.027351945  0.027502327            2 
  721000   0.95685652    -7.355135    236.48862  0.027333405  0.027484452            3 
  722000   0.95024033   -7.3255645    236.77041  0.027328072  0.027466967            1 
  723000   0.96235362   -7.3419843    236.52488  0.027261973  0.027449263            1 
  724000   0.96345874   -7.3843782    236.50918  0.027222512  0.027431104            2 
  725000    0.9656502    -7.341818    236.88541  0.027228208  0.027412919            1 
  726000    0.9636052   -7.3353404    237.46547  0.027257285  0.027394983            1 
  727000   0.95294781   -7.3664187    237.05534  0.027172781  0.027377121            2 
  728000   0.93555069   -7.3250346    237.69148  0.027208274  0.027359227            2 
  729000   0.96980554   -7.3623754    237.73278  0.027175672  0.027341159            1 
  730000   0.96558686   -7.4099733    237.02646  0.027057816  0.027323285            2 
  731000   0.96548232   -7.3544291    237.27463  0.027049092   0.02730533            4 
  732000   0.95693639   -7.3759269    238.28558  0.027127229  0.027287312            3 
  733000   0.96880764   -7.3561168    238.58572  0.027124343  0.027269248            2 
  734000   0.96153373    -7.408943    237.28897  0.026940165  0.027251078            3 
  735000    0.9520077   -7.3659782    238.62695   0.02705521  0.027233011            3 
  736000   0.95441483   -7.3426962    238.41519  0.026994473   0.02721519            3 
  737000   0.95071629    -7.325554    239.46287  0.027076308  0.027197363            9 
  738000     0.940505    -7.382857    238.74792  0.026958889  0.027179432            3 
  739000   0.96692217   -7.3712629    239.13198  0.026965718  0.027161429            5 
  740000   0.98124679   -7.3768955    239.19573  0.026936456  0.027143449            4 
  741000   0.96321087   -7.3813406     239.6653  0.026952912  0.027125211            3 
  742000   0.94801609   -7.3801244    239.38645   0.02688527  0.027107026            3 
  743000   0.96684867   -7.3838308    239.61922  0.026875193  0.027088879            1 
  744000   0.95892238   -7.3793162    239.90167  0.026870707  0.027070776            2 
  745000   0.96113795   -7.3327551    239.94881  0.026839912  0.027052442            3 
  746000   0.95697717   -7.3749865    240.22485  0.026834769  0.027034037            2 
  747000   0.96718225   -7.3698209    240.58933  0.026839506  0.027015888            2 
  748000   0.94256773     -7.36562    239.96559  0.026734135  0.026997529            2 
  749000   0.92255856   -7.3654381    240.51914  0.026760029  0.026979092            1 
  750000   0.95574674   -7.3587232    240.79863  0.026755403  0.026960872            1 
  751000   0.96716908    -7.386919    240.95638  0.026737281  0.026942443            5 
  752000   0.96453144   -7.3897797    241.58465  0.026771349  0.026924173            4 
  753000   0.95147796   -7.3765642    241.34732   0.02670953  0.026905966            2 
  754000   0.95158218   -7.3765527    241.11756  0.026648713  0.026887604            3 
  755000    0.9551702   -7.3807591    241.03757  0.026604588  0.026869012            1 
  756000    0.9543152   -7.4048498    241.39129  0.026608387  0.026850619            2 
  757000   0.95770052    -7.371656    241.67033  0.026603956   0.02683233            3 
  758000    0.9541758   -7.3576174    242.38126  0.026647016  0.026814178            2 
  759000   0.94699481   -7.4369765    241.88015   0.02655689  0.026795907            3 
  760000   0.92719639   -7.3784249    242.34614  0.026573041  0.026777734            3 
  761000   0.94161382   -7.4030072    242.60563  0.026566538  0.026759596            3 
  762000   0.95150924   -7.3770004    242.42465  0.026511882   0.02674128            1 
  763000   0.94953763   -7.3595956    243.70861  0.026617367  0.026723106            2 
  764000    0.9479703   -7.3764731    243.55412  0.026565676  0.026705234            2 
  765000   0.95931859   -7.3693827     242.8187  0.026450838  0.026687295            2 
  766000   0.97257825   -7.3735295     243.5492  0.026495779  0.026669472            2 
  767000    0.9452972   -7.4067398      244.201  0.026532051   0.02665164            2 
  768000   0.96415182   -7.3999608     243.5482  0.026426671  0.026633727            2 
  769000   0.95309526   -7.3780511    244.30111  0.026473895  0.026615945            2 
  770000   0.94738229   -7.3760444    243.71557  0.026376144  0.026597832            5 
  771000   0.93236997   -7.4033357    244.12466   0.02638615  0.026579663            2 
  772000   0.92991762     -7.36231    244.33017  0.026374155  0.026561533            3 
  773000   0.94262451   -7.4235242    243.76487  0.026279093   0.02654353            3 
  774000    0.9414626   -7.3859628    244.19172  0.026291099  0.026525268            4 
  775000   0.93624872    -7.396325    245.58118  0.026406579  0.026507456            3 
  776000   0.94576457   -7.3943256    245.82053  0.026398253  0.026489716            1 
  777000   0.94475113   -7.4277574    245.99668   0.02638317  0.026472062            2 
  778000   0.93386036   -7.3823135    246.57476  0.026411178  0.026454608            4 
  779000   0.94796771   -7.3865843    246.53821  0.026373364  0.026437117            2 
  780000    0.9637998   -7.4181259    245.66899  0.026246687  0.026419787            2 
  781000   0.95336945   -7.4325254    246.61353  0.026313864    0.0264022            2 
  782000   0.93470905   -7.3917738    246.69663  0.026289069  0.026384508            2 
  783000   0.93627025   -7.4095074    246.77859  0.026264217  0.026367143            2 
  784000   0.93562522   -7.3965154       246.52  0.026203231  0.026349453            2 
  785000   0.95260204    -7.434494    246.72361  0.026191466  0.026331807            1 
  786000    0.9162419   -7.4377204    246.75649  0.026161629  0.026314083            1 
  787000   0.94380579    -7.411435    246.66424  0.026118619  0.026296302            1 
  788000   0.95280306    -7.401197     247.3345  0.026156356  0.026278531            2 
  789000   0.91260473   -7.4235569    247.33113  0.026122848  0.026260822            1 
  790000   0.91790598   -7.4449151    247.87342  0.026146985  0.026243028            3 
  791000   0.94170984   -7.4441192    247.94216  0.026121171  0.026225259            4 
  792000   0.93383778    -7.429504    247.61908  0.026054197  0.026207331            2 
  793000    0.9354361   -7.4303768     248.1929  0.026081641  0.026189415            2 
  794000   0.96952366   -7.4140027    247.90919  0.026019016  0.026171519            5 
  795000   0.92316686   -7.4074749    247.59964  0.025953841  0.026153744            2 
  796000   0.93543847   -7.4244707    248.39043  0.026004023  0.026135973            2 
  797000   0.94240105   -7.4267357    248.52183  0.025985135  0.026118181            2 
  798000   0.95292557   -7.4206839    248.38035  0.025937798   0.02610028            2 
  799000   0.92272371    -7.454421    248.74594  0.025943465  0.026082561            1 
  800000   0.94497761   -7.4161566    248.87704  0.025924692  0.026064797            2 
  801000   0.94866656   -7.4440579    249.09796  0.025915309  0.026046902            2 
  802000    0.9410359   -7.3540611    250.20774   0.02599831   0.02602926            2 
  803000   0.94051331   -7.4165616    249.46159  0.025888501  0.026011542            2 
  804000   0.93771306   -7.4297347    249.91893  0.025903703  0.025993705            2 
  805000   0.93428336   -7.4224348    249.57976  0.025836414  0.025975998            2 
  806000   0.94759022   -7.4099566    249.28808  0.025774202  0.025958246            2 
  807000   0.92682917   -7.4115177    250.17284  0.025833626  0.025940538            1 
  808000   0.93675985   -7.4360035    249.65332  0.025748074  0.025922871            3 
[...]
 1800000   0.52854983   -8.3660446    285.38762   0.01321239  0.011792732            5 
 1801000   0.52934297   -8.3532078    285.37446  0.013204445  0.011782885            6 
 1802000   0.53003886   -8.3563624    285.22018  0.013189982  0.011773035            5 
 1803000   0.52581318   -8.3539959    285.31416   0.01318701  0.011763209            4 
 1804000   0.52481763   -8.3740062    285.26697  0.013177521  0.011753389            3 
 1805000   0.52741791   -8.3721089    285.56615  0.013184033  0.011743577            3 
 1806000   0.54091268   -8.3705898    285.23433  0.013161422  0.011733779            3 
 1807000   0.53228742   -8.3662778    285.26166  0.013155399   0.01172399            2 
 1808000   0.53276893   -8.3639696    285.24082  0.013147162  0.011714204            4 
 1809000   0.52077314    -8.360131    285.93531  0.013171887  0.011704428            4 
 1810000   0.52500501   -8.3651105    285.53466  0.013146163   0.01169466            2 
 1811000   0.53149493   -8.3566114    285.47012  0.013135934  0.011684915            6 
 1812000   0.53387108   -8.3643767    285.57762  0.013133628  0.011675183            5 
 1813000   0.53332775   -8.3662833    285.54689  0.013124972  0.011665455            3 
 1814000    0.5280194   -8.3702491    284.73332  0.013080362  0.011655745            3 
 1815000   0.53949157   -8.3716678    285.32835  0.013100475   0.01164602           10 
 1816000   0.52754668   -8.3740075    284.74062  0.013066291  0.011636314            7 
 1817000   0.52999982   -8.3832157    285.10106  0.013075631  0.011626617            3 
 1818000   0.52984848   -8.3831519    285.21583    0.0130737  0.011616919            3 
 1819000   0.51689574   -8.3847042    285.34911  0.013072618  0.011607232            2 
 1820000   0.52625604   -8.3860391    285.28632   0.01306256   0.01159755            3 
 1821000   0.53139533   -8.3642072    284.82485  0.013034269  0.011587886            2 
 1822000   0.53337559   -8.3740672    285.38881  0.013052909  0.011578227            4 
 1823000   0.52902012   -8.3673185    284.85027  0.013021131  0.011568575            4 
 1824000   0.53426915   -8.3702666    285.76053   0.01305558  0.011558943            3 
 1825000   0.52566998     -8.37819    285.39452  0.013031713   0.01154931            4 
 1826000   0.53833761   -8.3773132     285.7021  0.013038614  0.011539688            5 
 1827000    0.5096954   -8.3870996    285.20914  0.013008992  0.011530071            5 
 1828000   0.51587114   -8.3775133    285.44504  0.013012629   0.01152047            3 
 1829000   0.51734853   -8.3757866    285.06862  0.012988364  0.011510876            5 
 1830000   0.53245843   -8.3707378    284.99611  0.012977965  0.011501281            6 
 1831000     0.532209    -8.379667      285.287  0.012984116  0.011491708            3 
 1832000   0.52100462   -8.3809682    285.25036  0.012975362  0.011482147            3 
 1833000   0.51742379   -8.3695261    284.90905  0.012952766  0.011472588            2 
 1834000   0.52494451   -8.3677699    285.28031  0.012962573  0.011463039            3 
 1835000   0.51567236   -8.3764427    285.30935  0.012956828    0.0114535            2 
 1836000   0.53415954   -8.3611145    284.89626  0.012931021  0.011443971            3 
 1837000   0.53001699   -8.3936821    284.84592  0.012921698  0.011434455            2 
 1838000   0.52466271    -8.386797    285.01615  0.012922386  0.011424937            3 
 1839000   0.52451405   -8.3881387    284.94498  0.012912134  0.011415437            4 
 1840000   0.51757491   -8.3903113    284.94784  0.012905246  0.011405955            3 
 1841000   0.51996187   -8.3755108    285.15582  0.012907651   0.01139648            3 
 1842000   0.52715913   -8.4008935    285.36059  0.012909907  0.011387009            3 
 1843000   0.51878157   -8.3874786    285.24165  0.012897524   0.01137754            4 
 1844000   0.52139786    -8.396506    285.21275  0.012889224  0.011368085            4 
 1845000   0.51368993   -8.3827261    285.23873  0.012883411  0.011358645            3 
 1846000   0.51643499   -8.3971776    285.04597  0.012867731  0.011349209            3 
 1847000   0.52063636   -8.3842722    285.01745  0.012859477  0.011339781            2 
 1848000   0.50853904    -8.399708    285.53625  0.012875913  0.011330361            3 
 1849000   0.50100991    -8.397856    284.78769  0.012835212  0.011320954            2 
 1850000    0.5192719   -8.3942232    284.63517  0.012821404  0.011311561            4 
 1851000   0.50820682   -8.4077599     284.8629   0.01282473  0.011302176            4 
 1852000   0.51286482   -8.4008376    284.81135  0.012815485  0.011292795            4 
 1853000   0.50787608   -8.4014892    284.84002  0.012809859  0.011283415            2 
 1854000    0.5022388   -8.3899359    285.25879  0.012821772  0.011274063            2 
 1855000   0.51142447   -8.3769602    284.73588  0.012791369  0.011264712            3 
 1856000   0.51507586   -8.3959934    285.13153  0.012802242  0.011255378            3 
 1857000   0.50485634   -8.3922572    285.03484  0.012791009  0.011246052            3 
 1858000   0.52441431   -8.4088343    284.60762  0.012764963  0.011236734            7 
 1859000   0.51067788   -8.3969548     284.9924  0.012775345  0.011227429            5 
 1860000   0.50693949   -8.4028583    284.99823  0.012768738  0.011218139            4 
 1861000   0.51030033   -8.3909858    284.71295  0.012749102  0.011208855            4 
 1862000   0.52273243   -8.3895218    285.08072  0.012758715  0.011199584            2 
 1863000   0.52135649   -8.3994109    284.79224  0.012738962  0.011190322            1 
 1864000   0.50172515   -8.3890954    284.94493  0.012738954  0.011181065            4 
 1865000   0.51549954   -8.3984814    284.79145  0.012725266  0.011171812            4 
 1866000   0.50361304   -8.3968392    285.15306  0.012734595  0.011162573            2 
 1867000   0.50805093   -8.4045135    284.91346   0.01271708  0.011153357            2 
 1868000   0.51950225   -8.3955869    284.53532  0.012693403  0.011144138            5 
 1869000   0.50605817   -8.3965743    284.92816  0.012704127  0.011134934            2 
 1870000   0.49900402   -8.4172223    285.25634  0.012711958  0.011125736            4 
 1871000   0.50623579   -8.3871533    284.77942  0.012683922  0.011116558            4 
 1872000   0.49823203   -8.3897113    284.62219  0.012670147  0.011107389            5 
 1873000   0.50651614   -8.3954202    284.89401  0.012675477  0.011098224            3 
 1874000   0.50737189    -8.403626    284.96103  0.012671693  0.011089075            6 
 1875000    0.5066754   -8.4000734    284.97628  0.012665613  0.011079923            2 
 1876000   0.49799085    -8.412573    285.28517  0.012672582  0.011070789            7 
 1877000   0.50842564    -8.410657    284.82711  0.012645494   0.01106165            4 
 1878000   0.50720905    -8.411709    284.53346   0.01262573  0.011052528            4 
 1879000   0.50814388     -8.42569    285.16812  0.012647158  0.011043417            5 
 1880000   0.49928722   -8.4191789    284.85088  0.012626369  0.011034315            3 
 1881000   0.50383057   -8.4190119    285.09947  0.012630669  0.011025215            4 
 1882000   0.51560228   -8.3979097    285.03266     0.012621  0.011016138            4 
 1883000   0.50517294    -8.409553     285.1035  0.012617432  0.011007067            5 
 1884000   0.49910662   -8.4049729    284.86205  0.012600055  0.010998002            4 
 1885000   0.50485427   -8.4122539    285.13508  0.012605441   0.01098894            8 
 1886000   0.48323461   -8.3981137    284.52327  0.012571725  0.010979885            3 
 1887000    0.4924162   -8.4135263    284.85138  0.012579552  0.010970848            2 
 1888000   0.49878462    -8.411493    284.62759  0.012563012  0.010961823            7 
 1889000   0.51251159   -8.4252336    284.97123  0.012571521  0.010952799            3 
 1890000    0.4996223   -8.4181112    284.62795  0.012549733  0.010943792            5 
 1891000   0.50789072    -8.420988    284.38277  0.012532292   0.01093479            4 
 1892000   0.50190034   -8.4234193    284.88206  0.012547659  0.010925796            4 
 1893000   0.49913592   -8.4193192     285.0447  0.012548191  0.010916806            4 
 1894000   0.49219057   -8.4024232    284.72959  0.012527701   0.01090784            3 
 1895000   0.49456483   -8.4162126    284.56501  0.012513852  0.010898879            4 
 1896000   0.50929504   -8.4273837    284.51689  0.012505138  0.010889927            4 
 1897000   0.49054371   -8.4170734    284.76536   0.01250946  0.010880972            3 
 1898000   0.49676896   -8.4301593    284.56819  0.012494213  0.010872043            4 
 1899000   0.48726344   -8.4359101    284.36498  0.012478716   0.01086311            3 
 1900000   0.49435886   -8.4404239    284.88901  0.012495132  0.010854195            4 
 1901000   0.48757215   -8.4323984    284.79285  0.012484344  0.010845281            3 
 1902000   0.49854874   -8.4132885    284.63809     0.012471  0.010836377            4 
 1903000   0.49412845   -8.4274682    284.42291  0.012455023  0.010827493            4 
 1904000   0.49811094   -8.4260834    285.10199  0.012478204  0.010818616            6 
 1905000   0.49224949   -8.4072021    284.36723  0.012439511   0.01080974            6 
 1906000    0.4896726   -8.4180386    284.62027  0.012444048  0.010800877            5 
 1907000    0.4865305   -8.4321297    284.48207  0.012431483   0.01079203            5 
 1908000   0.49022948   -8.4100803    284.84107  0.012440648  0.010783194            3 
 1909000   0.50287749   -8.4258931    284.98011    0.0124402  0.010774359            5 
 1910000   0.48811972   -8.4202878    284.45044  0.012410578  0.010765543            4 
 1911000   0.47984537   -8.4209033     284.7583  0.012417508  0.010756732            4 
 1912000   0.48692458   -8.4262201    284.97587  0.012420497  0.010747929            3 
 1913000     0.487828   -8.4167795    284.63383  0.012399104  0.010739132            4 
 1914000   0.49173627   -8.4324898    285.02587  0.012409695  0.010730345            6 
 1915000   0.48140159   -8.4443752    284.68042  0.012388182  0.010721565            4 
 1916000   0.48876532   -8.4184821    284.48302  0.012373131  0.010712791            3 
 1917000   0.49279332   -8.4320338    284.54849  0.012369522  0.010704026            3 
 1918000   0.48736642   -8.4373503    284.32112  0.012353194  0.010695263            2 
 1919000   0.48478129   -8.4356627    284.40922  0.012350583  0.010686519            1 
 1920000   0.48428652   -8.4402473    284.41197  0.012344269  0.010677789            3 
 1921000   0.48335248   -8.4432756    284.54238  0.012343501  0.010669055            2 
 1922000   0.49132965   -8.4279411    284.15477  0.012320273  0.010660326            6 
 1923000   0.48153555   -8.4431351    284.46906  0.012327486   0.01065161            3 
 1924000   0.49168286   -8.4459692    284.43191   0.01231947  0.010642903            3 
 1925000    0.4730468   -8.4450753    284.36291  0.012310082  0.010634204            3 
 1926000   0.49059652   -8.4371917    284.42265  0.012306276  0.010625515            3 
 1927000   0.48495848   -8.4434918    284.15651  0.012288381  0.010616833            2 
 1928000   0.48111098    -8.458922    284.62207   0.01230213  0.010608154            5 
 1929000   0.48945213   -8.4528602    284.55495  0.012292853  0.010599499            3 
 1930000   0.47823364   -8.4315317    284.48172  0.012283321  0.010590841            4 
 1931000   0.48158108   -8.4334498    284.68849  0.012285884   0.01058219            3 
 1932000   0.48206493   -8.4515971    284.59381   0.01227544  0.010573546            5 
 1933000   0.48361461   -8.4572831    284.21165  0.012252615  0.010564907            3 
 1934000   0.48337379   -8.4336218    284.52802  0.012259911  0.010556283            3 
 1935000   0.47839051   -8.4523653    284.53684  0.012253955  0.010547664            2 
 1936000   0.48663223   -8.4448386    284.34806    0.0122395  0.010539056            3 
 1937000   0.48762767   -8.4487221    284.11636  0.012223213  0.010530453            6 
 1938000   0.48401529   -8.4520936     284.4986  0.012233342  0.010521863            1 
 1939000   0.48633683   -8.4527799    284.14932  0.012212022  0.010513279            2 
 1940000   0.47961802   -8.4481097    283.54904  0.012179942  0.010504707            3 
 1941000   0.48761983   -8.4450259    284.38478  0.012209548  0.010496148            2 
 1942000   0.46876223   -8.4560879    284.11826  0.012191824  0.010487587            3 
 1943000   0.47447574   -8.4397472    284.24477  0.012190975  0.010479028            3 
 1944000   0.47464185   -8.4641486     284.5812  0.012199126  0.010470484            2 
 1945000   0.47695258   -8.4657869    284.45213  0.012187323  0.010461945            4 
 1946000   0.47232874   -8.4500001    284.33089  0.012175869  0.010453414            4 
 1947000   0.45569374   -8.4528278    284.62435  0.012182175  0.010444889            4 
 1948000   0.46505161   -8.4461447    284.00512  0.012149432   0.01043638            4 
 1949000   0.48750516   -8.4428174    284.37329   0.01215894  0.010427888            2 
 1950000   0.47830514   -8.4571574    284.12384  0.012142044  0.010419405            5 
 1951000   0.46763553   -8.4527789    284.52021  0.012152751  0.010410917            3 
 1952000    0.4768764   -8.4612832    284.17247   0.01213168  0.010402448            2 
 1953000   0.47202626   -8.4551842    284.19689   0.01212651  0.010393981            3 
 1954000   0.47396243   -8.4416483    283.96085  0.012110238  0.010385524            4 
 1955000   0.47610214   -8.4526285    284.12991  0.012111249   0.01037707            2 
 1956000   0.47216371   -8.4589541    284.00918  0.012099914  0.010368627            5 
 1957000   0.46601526   -8.4537522    284.15489  0.012099936  0.010360202            3 
 1958000   0.48009277   -8.4506456    284.14852  0.012093485  0.010351777            3 
 1959000   0.46871419   -8.4493844    284.51022  0.012102698  0.010343361            5 
 1960000   0.47568822   -8.4621495    284.06862  0.012077747  0.010334947            4 
 1961000   0.46905457   -8.4582166    284.40107  0.012085716  0.010326549            2 
 1962000    0.4603622   -8.4685758    284.10923  0.012067161   0.01031816            5 
 1963000   0.46974916   -8.4616578    283.90609   0.01205239  0.010309773            2 
 1964000   0.47165062   -8.4684624    284.18333  0.012058016  0.010301402            4 
 1965000   0.47069428   -8.4667873    284.08986  0.012047916  0.010293043            3 
 1966000   0.47488311   -8.4739573     284.0935  0.012041942  0.010284689            3 
 1967000   0.46792971   -8.4552875    283.47046  0.012009424  0.010276348            2 
 1968000   0.46235924   -8.4671785    284.05134  0.012027919  0.010268016            5 
 1969000   0.46933328   -8.4682567    284.37227  0.012035393  0.010259688            3 
 1970000   0.46014084   -8.4716363    284.24383  0.012023851  0.010251359            2 
 1971000   0.47083044   -8.4896623    283.94698    0.0120052  0.010243047            5 
 1972000   0.45754473   -8.4645189    284.04507  0.012003257  0.010234738            3 
 1973000   0.47034259   -8.4869443    284.41512  0.012012803   0.01022644            3 
 1974000   0.46789107   -8.4753903    283.56497  0.011970828  0.010218147            6 
 1975000   0.46121979   -8.4783118    283.81556   0.01197534  0.010209867            4 
 1976000    0.4707526    -8.464672     283.9881  0.011976556  0.010201596            4 
 1977000   0.46164286   -8.4816905     283.8338  0.011963994  0.010193334            5 
 1978000   0.46306166   -8.4697127    284.08289   0.01196844  0.010185081            2 
 1979000    0.4591417   -8.4792571    284.10561  0.011963349  0.010176835            2 
 1980000   0.46578196   -8.4837819    283.96073  0.011951209  0.010168596            2 
 1981000   0.46176539   -8.4829241    284.14305  0.011952846  0.010160367            2 
 1982000   0.45134326   -8.4755229    283.91839  0.011937369  0.010152142            3 
 1983000    0.4643969   -8.4854176    283.54195   0.01191553  0.010143925            3 
 1984000   0.45798154   -8.4670891    284.23893  0.011938799  0.010135724            4 
 1985000   0.45031458   -8.4584975    283.90435  0.011918738  0.010127525            3 
 1986000   0.46983513   -8.4787141    283.41953  0.011892394  0.010119334            4 
 1987000    0.4617112   -8.4646447    283.98918  0.011910299  0.010111149            3 
 1988000   0.45579063    -8.477573    283.83703   0.01189793  0.010102968            3 
 1989000   0.46508209   -8.4826628    283.76578  0.011888963  0.010094794            5 
 1990000   0.45910961   -8.4825777    283.95382  0.011890864  0.010086642            2 
 1991000   0.45529939   -8.4859393     284.1107  0.011891457  0.010078489            3 
 1992000   0.46579407   -8.4801134    283.52359  0.011860926  0.010070344            4 
 1993000   0.44937607   -8.4842423    283.80914  0.011866915  0.010062213            4 
 1994000   0.44820774   -8.4846284    283.64986  0.011854307   0.01005408            3 
 1995000   0.45620132   -8.4853276    283.83259  0.011855998  0.010045965            4 
 1996000    0.4506021    -8.495447    284.07012  0.011859975  0.010037852            3 
 1997000   0.44821379   -8.4979158    283.87906  0.011846063  0.010029749            2 
 1998000   0.46027495   -8.4667381    283.99524   0.01184498  0.010021657            2 
 1999000    0.4459024   -8.4957658    284.14875  0.011845454  0.010013569            2 
 2000000   0.46229508   -8.4879009    283.70496   0.01182104  0.010005492            2 
 2001000   0.45654719     -8.49894    283.55354  0.011808826 0.0099974249            2 
 2002000   0.44994448    -8.496352    283.97545   0.01182049 0.0099893658            4 
 2003000   0.45773712   -8.4843782    284.22575  0.011825002 0.0099813086            2 
 2004000   0.45480736   -8.4881104    283.59878   0.01179303 0.0099732667            5 
 2005000   0.44155525   -8.4883172    283.99384  0.011803568 0.0099652307            3 
 2006000    0.4580714   -8.4816513    284.14123  0.011803806 0.0099572037            4 
 2007000   0.45233773   -8.4897363    283.57681   0.01177449 0.0099491816            3 
 2008000   0.45892376   -8.4954297    283.90137  0.011782095 0.0099411739            5 
 2009000   0.44114887   -8.4936793    283.65808  0.011766139 0.0099331703            5 
 2010000   0.45259124   -8.4887628    283.66512  0.011760577 0.0099251729            5 
 2011000   0.44427782   -8.4872719    284.08843  0.011772271 0.0099171856            2 
 2012000   0.44841742   -8.4841403    283.59613  0.011746029 0.0099092075            5 
Loop time of 4690.94 on 48 procs for 2000000 steps with 4000 atoms

Performance: 73674.005 tau/day, 426.354 timesteps/s
99.4% CPU use with 48 MPI tasks x no OpenMP threads

MPI task timing breakdown:
Section |  min time  |  avg time  |  max time  |%varavg| %total
---------------------------------------------------------------
Pair    | 280.56     | 309.27     | 328.27     |  63.0 |  6.59
Neigh   | 30.526     | 32.09      | 33.936     |  11.6 |  0.68
Comm    | 289.7      | 311.77     | 343.24     |  72.8 |  6.65
Output  | 4.1587     | 4.1607     | 4.1926     |   0.2 |  0.09
Modify  | 3984.2     | 3994.1     | 4002       |   7.0 | 85.15
Other   |            | 39.53      |            |       |  0.84

Nlocal:        83.3333 ave          89 max          76 min
Histogram: 2 1 3 4 3 11 15 4 2 3
Nghost:        1999.65 ave        2012 max        1979 min
Histogram: 2 2 3 3 3 2 14 8 4 7
Neighs:        12897.7 ave       14151 max       11346 min
Histogram: 1 4 1 2 9 8 8 12 2 1
FullNghs:      25794.9 ave       27613 max       23426 min
Histogram: 2 2 4 3 6 9 10 5 3 4

Total # of neighbors = 1238155
Ave neighs/atom = 309.53875
Neighbor list builds = 107309
Dangerous builds = 1

#clear
#
#next RN
#
#jump SELF
Total wall time: 1:18:14
