
units lj                  # Use reduced LJ style units
atom_style atomic         # Uncharged point particles
atom_modify map hash      # Needed for indexing of clusters etc
                          # Used to be able to find where atoms are in relation to each other.

# Define a lattice with which to populate the simulation cell. With units
# set to 'lj' the second argument to the lattice command is the reduced
# density rho* and the spacings are multiples of that required to acheive
# that density. Also define a simulation cell called 'box' in lattice units
# and fill it with atoms. Here we're creating a box which is ten lattice
# constants in each direction.
lattice fcc 1.0 spacing 1 1 1                 # All equal sizes - gives the right reduced density.
Lattice spacing in x,y,z = 1.5874011 1.5874011 1.5874011

region box block 0 10 0 10 0 10 units lattice # Defines a region, "box", in lattice units
create_box 1 box                              # Creates a simulation box as specified above,
Created orthogonal box = (0.0000000 0.0000000 0.0000000) to (15.874011 15.874011 15.874011)
  2 by 3 by 3 MPI processor grid
                                              # with one type of atom
create_atoms 1 box                            # Creates particles on lattice points
Created 4000 atoms
  using lattice units in orthogonal box = (0.0000000 0.0000000 0.0000000) to (15.874011 15.874011 15.874011)
  create_atoms CPU = 0.002 seconds


# Set the mass of the first (and only) atom type.
mass 1 1.0

# Lennard-Jones interactions between particles, 3.5 sigma cut-off. Apply
# long range tail corrections to energy and pressure and set all coefficients
# to unity since we work in reduced units here. Note that this doesn't shift
# the potential such that it goes to zero at the cutoff. That would require
# pair_modify('shift', 'yes').
pair_style lj/cut  3.5      # non-GPU version
pair_modify tail  yes
pair_coeff 1  1  1.0  1.0   # Intearaction between 1 and 1 set with epsilon = 1 and sigma = 1

write_data data.*
System init for write_data ...
Neighbor list info ...
  update every 1 steps, delay 10 steps, check yes
  max neighbors/atom: 2000, page size: 100000
  master list distance cutoff = 3.8
  ghost atom cutoff = 3.8
  binsize = 1.9, bins = 9 9 9
  1 neighbor lists, perpetual/occasional/extra = 1 0 0
  (1) pair lj/cut, perpetual
      attributes: half, newton on
      pair build: half/bin/atomonly/newton
      stencil: half/bin/3d
      bin: standard

#############################
#   M E L T   S Y S T E M   #
#############################

velocity all create 2.4 8172548 mom yes dist gaussian # Assign velocities
                                                    # Temperature 2.4, random number seed, zero linear momentum
						                                                        # Gaussian distribution

timestep 0.002   # simulation timestep
thermo 100       # output thermodynamic data every 100 steps

# Define a fix  in this case with index 1 applied to all
# particles in the simulation. This fix is for simulations
# in the anisotropic NPT ensemble. Note that we use the MTK
# correction.
fix 1 all npt temp 2.4 2.4 0.1 iso 5.68 5.68 0.5 mtk yes tchain 5 pchain 5 # Use NPT ensemble
                                                                         # Set temperature and pressure and damping
                                                                         # Numbers of thermostats in chain and in barostat
run 1000         # run for 10000 steps
Per MPI rank memory allocation (min/avg/max) = 3.680 | 3.683 | 3.691 Mbytes
Step Temp E_pair E_mol TotEng Press Volume 
       0          2.4   -8.3859253            0   -4.7868253   -2.2405722         4000 
     100    1.2521358   -6.5115055            0   -4.6337712    5.4508644    4089.6042 
     200    1.4689284   -6.2983762            0   -4.0955344    6.0837578    4137.2801 
     300    1.5740251   -6.0110759            0   -3.6506285    5.8428293    4272.3887 
     400    1.7007621   -5.7248177            0   -3.1743123    5.9311621    4395.3486 
     500    1.8066394   -5.4467078            0   -2.7374262    5.7861894     4545.589 
     600    1.8844107   -5.1406616            0   -2.3147521    5.8323888    4700.1474 
     700    2.0254849   -4.9242047            0    -1.886737    5.8268404    4833.6959 
     800    2.1385093   -4.7031284            0   -1.4961664    5.8326966    4964.1584 
     900    2.2562357   -4.5439597            0   -1.1604522    5.8538779    5071.7859 
    1000    2.3669211   -4.4724005            0  -0.92290647    5.7399528    5154.5285 
Loop time of 0.557687 on 18 procs for 1000 steps with 4000 atoms

Performance: 309851.259 tau/day, 1793.121 timesteps/s
99.7% CPU use with 18 MPI tasks x no OpenMP threads

MPI task timing breakdown:
Section |  min time  |  avg time  |  max time  |%varavg| %total
---------------------------------------------------------------
Pair    | 0.31672    | 0.34431    | 0.36457    |   2.4 | 61.74
Neigh   | 0.061958   | 0.064992   | 0.06846    |   0.7 | 11.65
Comm    | 0.10013    | 0.12002    | 0.14746    |   4.0 | 21.52
Output  | 0.00022382 | 0.00023283 | 0.00029592 |   0.0 |  0.04
Modify  | 0.022139   | 0.025187   | 0.028964   |   1.4 |  4.52
Other   |            | 0.00294    |            |       |  0.53

Nlocal:        222.222 ave         234 max         214 min
Histogram: 2 3 0 3 1 4 2 2 0 1
Nghost:        2030.39 ave        2051 max        2008 min
Histogram: 1 1 1 2 3 4 3 1 1 1
Neighs:        19703.8 ave       21135 max       18594 min
Histogram: 1 3 3 1 1 4 2 2 0 1

Total # of neighbors = 354669
Ave neighs/atom = 88.667250
Neighbor list builds = 86
Dangerous builds = 10

# Equilibrate just above the melting temperature to avoid step fn in T

fix 1 all npt temp 1.25 1.25 0.1 iso 5.68 5.68 0.5 mtk yes tchain 5 pchain 5
run 1000
Per MPI rank memory allocation (min/avg/max) = 3.680 | 3.684 | 3.691 Mbytes
Step Temp E_pair E_mol TotEng Press Volume 
    1000    2.3669211   -4.4724005            0  -0.92290647    5.7399528    5154.5285 
    1100    1.9578949   -4.6918684            0   -1.7557603    5.6487477    4991.6913 
    1200    1.7396677   -4.9813711            0   -2.3725219    5.5906411    4811.1244 
    1300    1.5731527   -5.2038437            0   -2.8447047    5.7283734     4660.157 
    1400    1.4617969   -5.4064956            0   -3.2143485    5.7429155    4548.2287 
    1500    1.3856267   -5.5768053            0   -3.4988849    5.5616911    4480.7352 
    1600    1.2965183   -5.6686791            0   -3.7243878    5.5183337    4437.4897 
    1700    1.2706454   -5.7482266            0   -3.8427351     5.587581    4391.7293 
    1800    1.2485176   -5.8146125            0   -3.9423043    5.4355018     4375.335 
    1900    1.2452702    -5.820016            0   -3.9525776    5.6724499    4352.6927 
    2000     1.271515   -5.8429821            0   -3.9361864    5.6243904    4346.3347 
Loop time of 0.54011 on 18 procs for 1000 steps with 4000 atoms

Performance: 319934.928 tau/day, 1851.475 timesteps/s
99.8% CPU use with 18 MPI tasks x no OpenMP threads

MPI task timing breakdown:
Section |  min time  |  avg time  |  max time  |%varavg| %total
---------------------------------------------------------------
Pair    | 0.32907    | 0.34401    | 0.35857    |   1.4 | 63.69
Neigh   | 0.055597   | 0.057113   | 0.058949   |   0.4 | 10.57
Comm    | 0.094205   | 0.10958    | 0.12201    |   2.3 | 20.29
Output  | 0.00022084 | 0.00023021 | 0.00029267 |   0.0 |  0.04
Modify  | 0.022965   | 0.025901   | 0.031205   |   1.6 |  4.80
Other   |            | 0.003276   |            |       |  0.61

Nlocal:        222.222 ave         228 max         215 min
Histogram: 1 0 1 3 2 3 5 0 0 3
Nghost:        2236.78 ave        2249 max        2225 min
Histogram: 2 1 1 2 2 5 1 1 2 1
Neighs:        23340.2 ave       24347 max       22415 min
Histogram: 1 1 3 2 3 2 3 1 0 2

Total # of neighbors = 420123
Ave neighs/atom = 105.03075
Neighbor list builds = 75
Dangerous builds = 7


# Small amount of linear quench

fix 1 all npt temp 1.25 ${temp} 0.1 iso 5.68 5.68 0.5 mtk yes tchain 5 pchain 5
fix 1 all npt temp 1.25 1.3 0.1 iso 5.68 5.68 0.5 mtk yes tchain 5 pchain 5
run 2000
Per MPI rank memory allocation (min/avg/max) = 3.680 | 3.684 | 3.691 Mbytes
Step Temp E_pair E_mol TotEng Press Volume 
    2000     1.271515   -5.8429821            0   -3.9361864    5.6243904    4346.3347 
    2100    1.2277373   -5.8442105            0   -4.0030649    5.6243209    4347.0249 
    2200    1.2718263   -5.8420044            0   -3.9347419    5.7081076    4342.7378 
    2300    1.2651178   -5.8300148            0   -3.9328126     5.564496     4359.297 
    2400     1.255667   -5.8252482            0   -3.9422185    5.2905686    4384.3931 
    2500    1.2624029   -5.8437497            0   -3.9506187    5.3271688    4372.0927 
    2600    1.2599462   -5.8618896            0   -3.9724427    5.4840806    4352.8942 
    2700    1.2841314   -5.8213976            0    -3.895682    5.6470265    4357.6118 
    2800    1.2860303   -5.8124667            0   -3.8839036    5.9476547     4338.314 
    2900    1.2919167   -5.8299639            0   -3.8925734    5.9956356     4325.178 
    3000     1.278298   -5.8168597            0    -3.899892    5.6994611    4355.9187 
    3100    1.2651634   -5.7591991            0   -3.8619284    5.6409542    4382.8925 
    3200    1.2711283   -5.7359851            0   -3.8297694    5.6512997    4390.5072 
    3300    1.2973976   -5.7900734            0   -3.8444634    5.6181396    4374.5639 
    3400    1.2723891   -5.7790069            0   -3.8709004    5.6151075    4376.7267 
    3500    1.2987685   -5.7773667            0   -3.8297009    5.6667297    4374.0661 
    3600    1.2842905   -5.7907981            0   -3.8648439    5.9276101    4344.8529 
    3700    1.2917508   -5.8142961            0   -3.8771543    5.6558747    4358.3585 
    3800    1.2869925   -5.7820192            0    -3.852013    5.6356009    4373.1001 
    3900    1.2769687   -5.7927931            0   -3.8778189    5.5129146     4380.161 
    4000    1.2547711    -5.806774            0    -3.925088    5.5727544    4368.0934 
Loop time of 1.10128 on 18 procs for 2000 steps with 4000 atoms

Performance: 313815.566 tau/day, 1816.062 timesteps/s
99.8% CPU use with 18 MPI tasks x no OpenMP threads

MPI task timing breakdown:
Section |  min time  |  avg time  |  max time  |%varavg| %total
---------------------------------------------------------------
Pair    | 0.68034    | 0.719      | 0.75131    |   2.4 | 65.29
Neigh   | 0.10138    | 0.10427    | 0.10742    |   0.5 |  9.47
Comm    | 0.19219    | 0.21948    | 0.25087    |   3.4 | 19.93
Output  | 0.00042652 | 0.00044192 | 0.00054617 |   0.0 |  0.04
Modify  | 0.044457   | 0.050978   | 0.06221    |   2.5 |  4.63
Other   |            | 0.007122   |            |       |  0.65

Nlocal:        222.222 ave         229 max         214 min
Histogram: 1 0 3 3 0 2 2 1 5 1
Nghost:        2247.06 ave        2260 max        2230 min
Histogram: 1 0 0 4 2 1 5 2 1 2
Neighs:        23291.4 ave       24714 max       21621 min
Histogram: 2 0 1 1 2 7 0 2 1 2

Total # of neighbors = 419245
Ave neighs/atom = 104.81125
Neighbor list builds = 133
Dangerous builds = 0

#############################
# F R E E Z E  S Y S T E M  #
#############################

# Define solid atoms. This closely follows ten Wolde  Ruiz-Montero and Frenkel  Faraday Discuss  1996  104  93-110
# Compute components of the per-atom q6 vector
compute q6 all orientorder/atom degrees 1 6 components 6 nnn NULL cutoff 1.3 # compute the Q6 parameter.
                                                                             # Use all neighbours within 1.3 unit cell.

# get number of connections
compute coord_number all coord/atom orientorder q6 0.5

# An atom is solid if it has 8 or more connections (of a possible 14)
variable is_solid atom c_coord_number>=8
group solid dynamic all var is_solid    # Must be dynamic to update
dynamic group solid defined

# do clustering
compute cluster solid cluster/atom 1.3 # Create a cluster where all atoms within are solid and max 1.3 units from another member

# define chunks one chunk per cluster
compute clus_chunks solid chunk/atom c_cluster nchunk every compress yes  # Says which atoms are in which chunk

# count the size of each chunk
compute size_chunks solid property/chunk clus_chunks count


# Find the maximum entry in the vector of chunk sizes
variable max_n equal max(c_size_chunks)


# Thermo style which includes this variable
thermo_style custom step temp pe vol v_max_n

thermo ${N}  # Print the thermo information every 100 steps
thermo 100  

# Reset the npt fix at a lower temperature (below freezing)
fix 1  all npt temp  ${temp} ${temp}  0.1  iso  5.68  5.68  0.5  mtk yes tchain  5  pchain  5
fix 1  all npt temp  1.3 ${temp}  0.1  iso  5.68  5.68  0.5  mtk yes tchain  5  pchain  5
fix 1  all npt temp  1.3 1.3  0.1  iso  5.68  5.68  0.5  mtk yes tchain  5  pchain  5

dump dmp2 all dcd ${N} traj_${rand}.dcd
dump dmp2 all dcd 100 traj_${rand}.dcd
dump dmp2 all dcd 100 traj_462431.dcd


# fix rnuntil all halt ${N} v_max_n >= 3980 error soft message no   # Stop when solidified


run 100000 # 5000000  # Run for this many steps
Neighbor list info ...
  update every 1 steps, delay 10 steps, check yes
  max neighbors/atom: 2000, page size: 100000
  master list distance cutoff = 3.8
  ghost atom cutoff = 3.8
  binsize = 1.9, bins = 9 9 9
  4 neighbor lists, perpetual/occasional/extra = 1 3 0
  (1) pair lj/cut, perpetual
      attributes: half, newton on
      pair build: half/bin/atomonly/newton
      stencil: half/bin/3d
      bin: standard
  (2) compute orientorder/atom, occasional
      attributes: full, newton on
      pair build: full/bin/atomonly
      stencil: full/bin/3d
      bin: standard
  (3) compute coord/atom, occasional
      attributes: full, newton on
      pair build: full/bin/atomonly
      stencil: full/bin/3d
      bin: standard
  (4) compute cluster/atom, occasional
      attributes: full, newton on
      pair build: full/bin/atomonly
      stencil: full/bin/3d
      bin: standard
Per MPI rank memory allocation (min/avg/max) = 9.487 | 9.490 | 9.493 Mbytes
Step Temp PotEng Volume v_max_n 
    4000    1.2547711    -5.806774    4368.0934            1 
    4100    1.2976349   -5.8080905    4376.5454            2 
    4200    1.3121595   -5.7724507    4384.4122            3 
    4300    1.3062489   -5.7585826    4369.3669            1 
    4400    1.2993931   -5.7768468     4361.475            7 
    4500     1.319426    -5.792986    4383.8405            4 
    4600    1.2895531    -5.726132    4400.0955            3 
    4700    1.2799172   -5.7441835    4384.7763            3 
    4800    1.2942964   -5.7650941     4379.544            2 
    4900    1.3113189   -5.7252903     4402.424            2 
    5000    1.2832832   -5.7327605    4392.9918            4 
    5100    1.3007824   -5.7557046    4379.6623            4 
    5200    1.2863492   -5.7858766    4371.8652            3 
    5300     1.301693   -5.7459637    4392.9853            4 
    5400    1.3273901   -5.7643853    4387.8313            3 
    5500    1.2946208   -5.7746525    4371.5987            3 
    5600    1.2964384   -5.7600469    4387.3021            2 
    5700    1.2870826   -5.7532928     4399.894            4 
    5800    1.2956061   -5.7451175    4388.8234            2 
    5900    1.3127949   -5.7777151    4368.4339            4 
    6000    1.2916781   -5.7627103    4378.8758            2 
    6100    1.3292323   -5.7428056    4394.0593            3 
    6200    1.3131736   -5.7639035    4394.3676            2 
    6300    1.2907146   -5.7748209    4392.4466            4 
    6400    1.2649616   -5.7631897    4383.4439            5 
    6500     1.322117   -5.7618446    4368.1297            3 
    6600    1.3037429   -5.7580065    4374.5009            2 
    6700    1.3052771   -5.7612928    4371.6379            3 
    6800    1.3165257   -5.7321873    4378.9553            2 
    6900    1.2990223   -5.7369107    4383.2339            4 
    7000      1.30518   -5.7775576    4366.7847            3 
    7100    1.2984156    -5.790251     4365.169            2 
    7200    1.3118301   -5.7398276    4372.2446            1 
    7300    1.2787575   -5.7440831    4390.1194            1 
    7400    1.3042746   -5.7599177    4396.5795            4 
    7500    1.2779307   -5.7282256    4376.7829            1 
    7600    1.3001584   -5.7804477    4365.8383            4 
    7700     1.323093   -5.7534716    4382.4833            8 
    7800    1.2962824   -5.7749213    4392.3093            1 
    7900    1.3086198    -5.767115    4391.8862            4 
    8000    1.3039731   -5.7234937    4393.2539            2 
    8100    1.2973711   -5.7568933    4369.6231            3 
    8200    1.2960094     -5.71936    4367.2883            2 
    8300    1.3141408   -5.7360248    4393.2369            1 
    8400    1.2891643   -5.7383395    4410.3506            2 
    8500    1.2795586   -5.7565452    4393.8909            1 
    8600    1.3102679   -5.7391547    4388.8006            1 
    8700    1.3021967   -5.7578731    4384.7799            4 
    8800    1.2735341   -5.7868576    4377.1016            4 
    8900    1.2937248    -5.771025    4384.0272            5 
    9000     1.312749   -5.7425965    4381.4993            2 
    9100     1.312805   -5.7294399    4372.4207            2 
    9200    1.2704586     -5.74423    4375.3083            4 
    9300    1.3096745   -5.7774859    4375.0985            2 
    9400    1.3002195   -5.7791903     4367.436            2 
    9500    1.3207024   -5.7799778    4392.3372            2 
    9600    1.2801931   -5.7740041    4391.2381            3 
    9700    1.3109043   -5.7564854    4397.5041            3 
    9800    1.3010616   -5.7174288    4392.2394            3 
    9900    1.3307995   -5.7826377    4368.6597            7 
   10000    1.2789648   -5.7655773    4363.4806            3 
   10100    1.2867438   -5.7519921    4367.8661            4 
   10200    1.3296661   -5.7662522    4378.9161            2 
   10300    1.2845934    -5.753278    4388.6321            2 
   10400    1.2678816   -5.7664098     4386.095            4 
   10500    1.2960041   -5.7616347    4384.7926            2 
   10600    1.3265155   -5.7360544    4362.2907            2 
   10700    1.3084207   -5.7697069     4365.279            3 
   10800    1.2822065   -5.7870649    4361.3185            2 
   10900    1.3092642   -5.8192106    4376.8126            2 
   11000    1.3230281   -5.7912566     4399.275            1 
   11100    1.2953373   -5.7731643    4408.3806            3 
   11200    1.2989371   -5.7590724    4378.6008            2 
   11300    1.3192066   -5.7783026    4361.3789            5 
   11400    1.2891823   -5.7595963    4375.6115            2 
   11500    1.2965116   -5.7529254    4390.4885            3 
   11600    1.2833617   -5.7867933     4385.094            1 
   11700     1.306894   -5.7913405    4373.0015            3 
   11800    1.3074213   -5.7862964    4376.5641            5 
   11900    1.2631278   -5.7876994    4365.0759            3 
   12000    1.2942346   -5.7801671    4393.2391            4 
   12100    1.3061174   -5.7578037    4392.1736            1 
   12200     1.287013   -5.7916513    4372.2622            3 
   12300    1.2717335   -5.7802403    4381.1012            1 
   12400    1.3132765   -5.7728014    4373.6001            3 
   12500    1.3158097   -5.7723411    4365.6665            2 
   12600    1.2744821   -5.7675237    4363.2164            4 
   12700    1.3082404    -5.759402    4374.1021            3 
   12800    1.2989361   -5.7500669    4382.0492            2 
   12900    1.2971231   -5.7637117     4382.911            2 
   13000    1.2843132   -5.7577983    4368.6217            3 
   13100      1.31381   -5.8059915    4361.9632            1 
   13200    1.2948076   -5.7682979    4343.2342            2 
   13300    1.3297466   -5.7701672    4378.1539            4 
   13400    1.2828883   -5.7408242    4391.4542            2 
   13500    1.3166021   -5.7720406    4398.1714            2 
   13600    1.2773309   -5.7741186    4392.6493            2 
   13700    1.2927579   -5.7224657    4382.5716            4 
   13800     1.345677   -5.7471723    4385.1408            2 
   13900    1.2944687   -5.7545008    4389.5818            4 
   14000    1.3039804   -5.7809958    4385.9697            6 
   14100    1.2931305   -5.7389133    4375.8426            3 
   14200    1.2651146   -5.7386219    4374.5246            2 
   14300    1.3294188   -5.7920599    4368.5946            4 
   14400    1.3048712   -5.7329355    4385.4734            2 
   14500      1.29643   -5.7553734    4394.5757            3 
   14600    1.3067847   -5.8055225    4387.4614            5 
   14700    1.2981779   -5.7826217     4380.822            3 
   14800    1.3318522   -5.7543403    4378.9853            3 
   14900    1.2844538   -5.7235156    4380.5917            3 
   15000    1.2843634    -5.765075    4377.0365            3 
   15100     1.292844   -5.8273679    4358.5108            3 
   15200    1.2930056   -5.7805541    4372.4611            3 
   15300    1.3127867   -5.7755242    4395.5641            4 
   15400    1.2977802     -5.76234    4393.3308            3 
   15500    1.3081697   -5.7723052    4383.2558            2 
   15600    1.3042225   -5.7526629    4393.8525            3 
   15700    1.2968896   -5.7408807    4385.5059            2 
   15800    1.3090727   -5.7759616    4359.5386            2 
   15900     1.305138   -5.7675741    4349.1701            3 
   16000    1.3111187   -5.7668817    4383.3094            3 
   16100    1.2931848   -5.7716712    4393.4066            2 
   16200    1.3136037   -5.7379963     4406.688            2 
   16300    1.3058445   -5.7451887    4398.3038            1 
   16400    1.2904702   -5.7271724    4392.8831            3 
   16500    1.2736201   -5.7690159    4386.2614            4 
   16600    1.3227873   -5.7614119    4368.8455            3 
   16700    1.3051534   -5.7368767    4378.2745            3 
   16800    1.3243421   -5.7837476    4372.6161            3 
   16900    1.2804494   -5.7484909    4379.5829            3 
   17000    1.3053627    -5.756408    4390.2387            3 
   17100    1.2829954   -5.7798137    4372.2588            2 
   17200    1.3300846   -5.7761261      4366.47            3 
   17300    1.3332941   -5.7103448    4372.3913            4 
   17400    1.2869139   -5.7164075    4382.4122            1 
   17500    1.2862437   -5.7461237    4390.7146            2 
   17600    1.2907416   -5.7664221    4388.9059            3 
   17700    1.3071208   -5.7745074    4379.0807            3 
   17800    1.3314377   -5.7604054    4402.6785            2 
   17900    1.2963723   -5.7704598    4387.3902            3 
   18000     1.301322   -5.7933001       4375.9            3 
   18100    1.2707729   -5.7701654    4358.9709            2 
   18200     1.302844     -5.74447    4366.8905            2 
   18300    1.2962649   -5.7159841    4377.4266            3 
   18400    1.3235138   -5.7577285    4385.9152            2 
   18500     1.272867   -5.7604219    4412.9526            3 
   18600    1.2829647   -5.7491264    4408.2272            3 
   18700    1.2792925   -5.7488289    4385.4998            2 
   18800    1.2998985   -5.7508629    4365.5162            2 
   18900     1.288305   -5.6944722      4387.76            3 
   19000    1.3111827   -5.7142423    4384.1225            3 
   19100    1.3161124   -5.7586968    4394.3834            4 
   19200    1.2861131   -5.7737348    4406.1647            3 
   19300    1.2972264   -5.7282681    4409.3204            2 
   19400    1.2903261   -5.7200637    4399.0797           10 
   19500    1.2922124   -5.7541351    4372.5126            2 
   19600    1.3111842   -5.7777906    4367.3993            3 
   19700    1.3008704   -5.7526477    4384.0548            3 
   19800    1.2854592   -5.7519239      4390.32            9 
   19900    1.2988564   -5.7492204    4382.7791            7 
   20000    1.3038029   -5.7380761    4383.9551            2 
   20100     1.300575   -5.7773808    4368.4504            2 
   20200    1.3157646    -5.777095    4376.8533            4 
   20300    1.2815338   -5.7343305    4385.9699            1 
   20400    1.2682449   -5.7345535    4390.2557            1 
   20500    1.3208444   -5.7332877    4372.8148            2 
   20600    1.3161781   -5.7599305    4375.3431            2 
   20700    1.2546674   -5.7265445    4383.7484            3 
   20800    1.2699024   -5.8008243    4367.9073            4 
   20900    1.2807236   -5.7565113    4375.8133            4 
   21000    1.3066369   -5.7546041    4387.6234            3 
   21100    1.3068588    -5.708261    4385.2091            2 
   21200     1.297014   -5.7587477    4375.4767            4 
   21300     1.313725   -5.7683998    4377.3538            4 
   21400    1.3319074   -5.7396611    4407.3968            1 
   21500    1.2806568   -5.7255368    4401.9562            1 
   21600    1.2951633   -5.7094522    4401.4785            3 
   21700    1.3219462   -5.7332084    4404.0036            2 
   21800    1.3039897    -5.743052    4385.4417            2 
   21900    1.2776538   -5.7646439    4378.2308            3 
   22000    1.2943458    -5.754306    4370.9165            1 
   22100    1.3145073   -5.7860426    4385.2764            2 
   22200     1.321816   -5.7538516    4407.3859            3 
   22300    1.2704977   -5.7283256     4397.383            4 
   22400    1.3018773   -5.7795373    4375.7591            2 
   22500    1.3046104   -5.7800047    4367.1713            3 
   22600    1.3003614   -5.7498221    4384.1547            3 
   22700    1.3221234   -5.7327157    4393.2116            2 
   22800    1.3074496   -5.7327427    4422.8469            5 
   22900    1.3055447   -5.7824875    4408.2776            2 
   23000    1.3176912   -5.7823736    4381.9366            2 
   23100    1.3154061   -5.7503499    4349.7613            3 
   23200    1.2938008   -5.7875213    4370.5961            5 
   23300    1.2904131   -5.7705138    4383.9439            4 
   23400    1.3265298   -5.7999471    4385.5585            2 
   23500    1.2752489   -5.7723031    4382.7633            4 
   23600    1.2892528    -5.730415     4387.808            2 
   23700    1.2971007   -5.7698178    4369.2063            3 
   23800    1.2917571   -5.7517086    4352.9534            3 
   23900    1.3234229   -5.7485947    4363.0061            2 
   24000    1.2937335   -5.7112541    4388.3484            4 
   24100    1.2736766   -5.7435537    4381.7152            2 
   24200    1.3199532   -5.7653306    4386.7242            3 
   24300    1.2973757   -5.7918552    4369.7042            3 
   24400    1.2974034   -5.7665915    4382.0987            4 
   24500    1.3044112   -5.7696562    4388.2232            2 
   24600     1.289431   -5.7544593    4381.9603            2 
   24700    1.3173949   -5.7769922    4376.4579            2 
   24800     1.293115   -5.7520108    4382.0138            4 
   24900    1.3116234   -5.7414209    4401.6793            5 
   25000    1.3055531   -5.7808872    4369.6469            2 
   25100    1.2938128   -5.7876931    4378.4255            3 
   25200    1.3040467   -5.7583527      4391.59            3 
   25300    1.2857808   -5.7512905    4390.1197            3 
   25400    1.2945617   -5.7466921    4384.6095            3 
   25500    1.2833594   -5.7597513    4368.0388            5 
   25600    1.3188526   -5.7830136    4365.4659            3 
   25700    1.2880672     -5.76487    4382.8062            1 
   25800    1.2699453   -5.7423212    4376.5282            2 
   25900    1.2957584   -5.7553756    4358.0346            6 
   26000    1.3144122   -5.7306418    4373.0705            7 
   26100    1.3288617   -5.7738353    4378.2339            2 
   26200    1.2825996   -5.7957287    4400.6942            2 
   26300     1.296132   -5.7848764    4399.0815            7 
   26400    1.2972547   -5.7919448    4393.4372            3 
   26500    1.3208315    -5.765362    4371.8308            4 
   26600    1.2878848   -5.7540574    4360.0572            2 
   26700    1.3377336   -5.7902536    4351.2324            2 
   26800    1.3013072   -5.7918907    4362.9301            2 
   26900    1.2736841   -5.7348193    4403.1208            2 
   27000    1.3102415   -5.7692536    4396.2432            2 
   27100    1.2935259   -5.7851132    4385.3074            5 
   27200    1.3063434   -5.7352026    4400.3632            3 
   27300    1.2877897   -5.7068976    4385.1368            4 
   27400    1.3073321   -5.7673515    4369.0733            1 
   27500    1.3101005   -5.7699723     4367.176            2 
   27600     1.297478   -5.7774246    4386.3506            2 
   27700    1.2596431   -5.7563185     4380.394            3 
   27800    1.3019315   -5.7873237    4369.4669            3 
   27900    1.3204795   -5.7574229    4375.0649            2 
   28000    1.3294969   -5.7350932    4404.2232            5 
   28100    1.2797215   -5.7424159    4394.7045            2 
   28200    1.2772108   -5.7465051    4401.9455            6 
   28300    1.2991322   -5.7304622    4385.4088            2 
   28400    1.3347966    -5.755698    4354.8109            3 
   28500    1.2816634   -5.7463088    4368.3048            3 
   28600    1.3178607    -5.753515    4360.3134            2 
   28700    1.3040862   -5.7666432    4368.8381            4 
   28800    1.2887696   -5.7896387    4373.5362            4 
   28900    1.3137975   -5.7861745    4375.1074            2 
   29000    1.2825394   -5.7593176     4384.896            2 
   29100    1.2796433   -5.6855997     4402.899            4 
   29200    1.3348036   -5.6996045    4392.5377            5 
   29300    1.2988461    -5.699435    4383.7508            3 
   29400    1.2566467   -5.7181785    4404.6651            2 
   29500    1.3005397   -5.7750168    4389.8086            3 
   29600    1.3023315   -5.7580193    4378.7337            3 
   29700    1.3018908   -5.7308115    4374.4644            2 
   29800     1.331622   -5.7451971    4387.6372            2 
   29900    1.2938449   -5.7446137    4403.9276            2 
   30000     1.296563   -5.7671783    4377.1206            6 
   30100    1.3190575   -5.7664727    4380.1105            4 
   30200    1.2903795   -5.7548382     4385.952            2 
   30300    1.2885685   -5.7841628    4363.7616            3 
   30400    1.3159611   -5.7729344    4378.7192            2 
   30500    1.3054012   -5.7620884    4364.7223            3 
   30600    1.2928973   -5.7975057    4370.9048            3 
   30700    1.2897746   -5.7578541    4399.2977            1 
   30800     1.295468   -5.7383637    4392.2425            2 
   30900     1.285835    -5.756485    4367.9155            2 
   31000    1.3114145    -5.744396    4386.1208            2 
   31100    1.2847859   -5.7322581    4396.1219            2 
   31200    1.3003122   -5.7721423    4398.6088            3 
   31300    1.2855043   -5.7887984    4374.8167            2 
   31400    1.2971519   -5.7783454    4366.6301            4 
   31500     1.330872    -5.787558    4380.1119            3 
   31600    1.2780962   -5.7897684    4369.8602            2 
   31700    1.2764899   -5.7457194    4384.7061            2 
   31800    1.3264718   -5.7734811    4371.1075            2 
   31900    1.3297585   -5.8166616     4379.609            3 
   32000    1.2928746   -5.7921281    4394.8116            4 
   32100    1.2732873   -5.7827956    4400.5969            3 
   32200    1.3005109   -5.7566991    4378.1225            3 
   32300    1.3331939   -5.7524465    4372.2809            4 
   32400    1.2973108   -5.7634526    4366.8467            2 
   32500     1.306224   -5.7635019    4382.2763            3 
   32600    1.3017728   -5.7375587    4398.8969            3 
   32700    1.2888687   -5.7604437    4383.2213            3 
   32800    1.2963131   -5.7988028    4366.9158            4 
   32900    1.3036597   -5.7986162    4359.7675            1 
   33000    1.3295583   -5.8137646    4365.1687            5 
   33100    1.2731511   -5.7573782    4380.4219            3 
   33200     1.289983   -5.7455237      4406.07            2 
   33300    1.2860759   -5.7777364    4391.5748            2 
   33400    1.3047704   -5.7851998    4371.9864            2 
   33500    1.3313418   -5.7451383    4366.7774            1 
   33600    1.3107717   -5.7675328    4368.5165            1 
   33700    1.2823738   -5.8154289    4382.2053            2 
   33800    1.3054084   -5.7829588    4395.5555            3 
   33900    1.3335974   -5.7696524    4385.0518            3 
   34000    1.2955802   -5.7465171    4375.3163            3 
   34100     1.323055   -5.8208269    4379.0674            6 
   34200    1.2788259   -5.7762194    4392.8328            2 
   34300    1.2885126   -5.7653979    4392.4154            2 
   34400    1.3016261   -5.7177354     4392.662            2 
   34500    1.2904569   -5.7396509    4383.8793            3 
   34600    1.2839277   -5.7580064    4378.2209            3 
   34700    1.2927904   -5.7300943    4390.1804            5 
   34800    1.3023626    -5.733484    4384.7211            2 
   34900    1.2836276   -5.7600326     4363.507            6 
   35000    1.3141488   -5.7538561    4374.0608            2 
   35100    1.2916584   -5.7687865    4385.5654            5 
   35200    1.2752458   -5.7920408    4380.7137            3 
   35300    1.2944606   -5.7557014    4365.9458            2 
   35400    1.3002296   -5.7580415    4380.6428            5 
   35500    1.3081535   -5.7514494    4372.4025            3 
   35600    1.2917451   -5.7635249    4362.8736            2 
   35700    1.2843545   -5.7584908    4381.7437            2 
   35800    1.2961908   -5.7588395    4388.5832            3 
   35900    1.2861625   -5.7640488    4373.7965            2 
   36000    1.3207494   -5.7946317    4361.3503            3 
   36100    1.3143037   -5.7640164    4380.8455            5 
   36200     1.301476   -5.7804212    4407.3729            3 
   36300    1.2769099    -5.792495     4386.634            2 
   36400     1.309289   -5.7888147    4369.5728            3 
   36500    1.2969642   -5.6987185    4372.3598            3 
   36600     1.305979   -5.7324836    4371.9369            3 
   36700    1.2837219   -5.7749707     4375.772            4 
   36800    1.3212409   -5.7857137    4386.5292            2 
   36900    1.3008164   -5.7615195    4389.3566            4 
   37000    1.2876391   -5.7698461    4382.0441            2 
   37100    1.2990127   -5.7534497    4396.3253            4 
   37200    1.2943175   -5.7568835    4389.1754            4 
   37300    1.3298209   -5.7676986    4374.3533            3 
   37400    1.2778324   -5.7573738    4368.2263            3 
   37500    1.3277816   -5.7606375     4380.154            6 
   37600    1.2890751   -5.7576263    4384.7884            4 
   37700    1.2985159   -5.7838026    4382.9812            3 
   37800    1.2858778   -5.7556819    4392.5705            1 
   37900    1.2984958   -5.7580322    4391.0272            3 
   38000    1.2849907   -5.7466227    4372.7514            3 
   38100    1.3135534   -5.7705995    4367.1685            3 
   38200    1.2758036   -5.7809831    4349.8177            3 
   38300    1.2986016   -5.7787814    4371.7852            5 
   38400    1.3195134   -5.7746048    4377.2025            6 
   38500    1.2852602   -5.7819157    4393.2985            2 
   38600     1.288178   -5.7631217    4384.3497            4 
   38700    1.2986342   -5.8224074    4370.2914            2 
   38800    1.2728332   -5.7676004    4361.5557            2 
   38900    1.2942338   -5.7445336     4367.533            5 
   39000     1.337178   -5.7956492    4377.9245            4 
   39100    1.2647582   -5.7654403    4371.7982            5 
   39200    1.3011639   -5.7580797    4380.5937            2 
   39300    1.2865036   -5.7691788    4383.4803            5 
   39400    1.2918407   -5.7637363    4375.7906            4 
   39500    1.3437286   -5.7779527    4373.4304            3 
   39600    1.3079722   -5.7901853     4382.173            1 
   39700    1.2842604   -5.7923862    4389.8107            2 
   39800    1.3186563   -5.7819442    4370.2793            1 
   39900    1.3052018   -5.7960428    4355.7073            4 
   40000    1.2899587    -5.798876    4347.4746            3 
   40100    1.2903802   -5.7521309    4378.1511            3 
   40200    1.2954668   -5.7698741    4395.2423            2 
   40300    1.2937462   -5.7708687    4392.9846            2 
   40400    1.3169186    -5.792177    4378.9023            5 
   40500    1.3039978    -5.727692    4384.8933            4 
   40600    1.3444624   -5.7337143    4392.6437            3 
   40700    1.2898275   -5.7439023    4402.5309            2 
   40800    1.2799733   -5.7669244    4392.9737            5 
   40900    1.2972074    -5.777592    4387.0821            4 
   41000    1.3132849   -5.7607363    4398.2779            2 
   41100    1.3131342   -5.7372937    4399.6162            2 
   41200    1.2965901   -5.7466453    4385.5355            4 
   41300    1.2823416   -5.7916257    4376.2929            3 
   41400    1.3001897   -5.7712654    4377.0823            2 
   41500    1.2940777   -5.7738019    4376.3561            2 
   41600    1.3055924   -5.7367374    4377.3251            2 
   41700    1.3080193   -5.7532039    4381.6122            3 
   41800    1.2669034   -5.7678246    4387.4397            2 
   41900    1.3113024    -5.762318    4394.4597            2 
   42000    1.3334827   -5.7803572    4380.7566            2 
   42100    1.2860726   -5.7866737    4372.0685            5 
   42200     1.315866   -5.7848862    4389.1052            1 
   42300     1.298482   -5.7384462    4390.8319            1 
   42400    1.3033427    -5.759108    4369.2286            2 
   42500    1.2952544   -5.7859358    4352.8488            4 
   42600    1.3047758   -5.7777751    4376.0703            3 
   42700    1.2802106   -5.7168323    4391.3841            6 
   42800    1.2805925   -5.7656259    4386.6326            6 
   42900    1.3067545   -5.7831373    4353.5719            2 
   43000    1.3027251   -5.7610228    4376.9828            2 
   43100    1.2900416   -5.7335587    4391.4842            3 
   43200    1.3077661   -5.7392863    4387.1507            2 
   43300    1.2984347   -5.7693533    4366.8791            1 
   43400    1.3182012   -5.7384651    4385.7974            3 
   43500    1.2940351   -5.7549582    4379.3082            2 
   43600    1.2932896   -5.7717503    4380.6629            3 
   43700    1.3131726   -5.7423411    4401.1179            2 
   43800    1.3180508   -5.7576553    4392.1065            2 
   43900    1.2849046   -5.7643552    4363.8055            3 
   44000    1.3065686   -5.7468311    4379.5149            2 
   44100    1.2940394   -5.7299546    4409.0265            2 
   44200    1.3093997   -5.7618009     4410.126            3 
   44300    1.3101624    -5.796735     4373.707            4 
   44400    1.3194352   -5.7791472    4364.8814            2 
   44500     1.315639   -5.7398226    4381.5996            2 
   44600    1.3093066   -5.7682419    4384.7634            4 
   44700    1.2765541   -5.7444367     4386.353            6 
   44800    1.3180037    -5.767315    4370.0956            3 
   44900    1.2985297   -5.7659694    4369.6392            2 
   45000    1.2930793    -5.755865    4366.6505            3 
   45100    1.2768551   -5.7777121    4350.0954            3 
   45200     1.300855   -5.7510636    4364.9663            8 
   45300    1.2898061   -5.7312711    4377.6231            1 
   45400    1.3247832   -5.7438643    4394.8529            3 
   45500    1.3021736    -5.761902    4390.4733            3 
   45600    1.2804885   -5.7730036    4384.3069            3 
   45700    1.3509474   -5.8117997    4381.7009            3 
   45800    1.2621657   -5.7469962    4382.2482            3 
   45900    1.3122785   -5.7695647    4375.6276            6 
   46000    1.2986643   -5.7412721    4376.4861            3 
   46100     1.299849   -5.7270896      4378.91            2 
   46200     1.271705   -5.7666684     4379.283            4 
   46300     1.301582   -5.7659601    4379.8769            7 
   46400    1.2930623   -5.7394105    4366.3789            2 
   46500    1.3195786    -5.732827    4372.1821            2 
   46600    1.2723219   -5.7105395    4391.6671            3 
   46700    1.3271462   -5.7347596     4396.705            4 
   46800    1.3080113   -5.7583525    4378.9503            7 
   46900    1.2871861   -5.7858414     4372.602            1 
   47000    1.2848476   -5.7569593    4380.5165            2 
   47100    1.3027037   -5.7251748    4391.7923            3 
   47200    1.3089123   -5.7510532    4369.7982            4 
   47300    1.3047812   -5.7793872    4383.2279            3 
   47400    1.2962958   -5.7657403     4377.686            4 
   47500     1.281622   -5.7222379    4376.3484            2 
   47600    1.2905933   -5.7119324    4408.3498            2 
   47700    1.2997542   -5.7586478    4391.2108            2 
   47800    1.2915149   -5.7555392     4368.772            2 
   47900    1.3190484   -5.7446327    4371.2986            3 
   48000     1.295377   -5.7487339    4377.1135            3 
   48100    1.2946172   -5.7493938    4395.3057            2 
   48200    1.3270036   -5.7944475    4391.1849            6 
   48300    1.2914748   -5.8007852      4395.88            2 
   48400    1.3013365   -5.7678456    4391.5627            6 
   48500    1.3018334   -5.7214656    4373.1556            3 
   48600    1.3002713   -5.6926646    4368.3102            5 
   48700    1.3199423   -5.7501477    4392.1435            2 
   48800    1.2630378   -5.7248553    4410.7659            4 
   48900    1.3174718    -5.738138    4393.8428            4 
   49000    1.2820679   -5.7427759    4380.3287            2 
   49100    1.2758794   -5.7532438    4381.6272            3 
   49200    1.2981633   -5.7113208    4389.6447            2 
   49300    1.3075291   -5.7014705    4377.2078            3 
   49400    1.2910839   -5.7466074    4375.2714            2 
   49500    1.2884737   -5.7822119    4380.6105            3 
   49600    1.2923632   -5.7919639    4379.4193            3 
   49700    1.3205241   -5.7784535    4386.2497            2 
   49800    1.2920967   -5.7977217    4359.6368            3 
   49900    1.3112649   -5.7748937    4360.6536            3 
   50000    1.2787874   -5.7680984    4372.8441            2 
   50100    1.2911556   -5.7358817    4389.7932            3 
   50200    1.2957069   -5.7270377    4390.9314            2 
   50300    1.3027121   -5.7456214    4372.3513            3 
   50400    1.3027733   -5.7748235    4357.3725            4 
   50500    1.3007336   -5.7590463    4381.5117            2 
   50600    1.2913712   -5.7642248    4406.9332            3 
   50700    1.3302259   -5.7513855    4411.1389            1 
   50800    1.2979229   -5.7411434    4391.0196            1 
   50900    1.2940661   -5.7798626    4371.5136            2 
   51000    1.2883502   -5.7805766    4350.1896            2 
   51100    1.2991766   -5.7712431    4364.5652            3 
   51200    1.2862086   -5.7568454    4372.8725            3 
   51300    1.3198689   -5.7612994    4390.3963            3 
   51400    1.2896143   -5.7545196    4375.7085            5 
   51500     1.286823   -5.7511963     4393.453            2 
   51600    1.2805942   -5.7718677    4399.4259            2 
   51700    1.3195147   -5.7652874    4370.5856            5 
   51800    1.3089502   -5.7512857    4362.4672            5 
   51900    1.2860328   -5.7437834    4397.7165            3 
   52000    1.3062294   -5.7357253    4412.0713            4 
   52100    1.3022725   -5.7733209     4401.579            3 
   52200     1.316131   -5.7944645    4379.3217            1 
   52300     1.323049   -5.7805019    4375.3906            4 
   52400    1.2806424   -5.7733866     4364.533            7 
   52500    1.3052275   -5.7826976    4367.6923            5 
   52600    1.3134472   -5.7613811    4382.8413            2 
   52700    1.3050035   -5.7265576    4389.6956            3 
   52800     1.299587   -5.7121731    4394.5428            2 
   52900    1.2754473   -5.7202673    4390.1107            2 
   53000    1.3275185   -5.7411135    4393.1855            2 
   53100    1.2786345   -5.7392162    4398.0665            6 
   53200    1.3067545   -5.7653476    4395.0711            2 
   53300    1.3011423   -5.7824508    4372.7408            2 
   53400    1.3202915    -5.771572     4367.242            3 
   53500    1.3086698   -5.7618786     4368.557            4 
   53600    1.2894788    -5.768534    4367.4574            2 
   53700     1.285498   -5.7844014    4362.5907            2 
   53800    1.2880668   -5.7398022    4386.3453            2 
   53900    1.2913282   -5.7469929    4374.4731            2 
   54000    1.2799793   -5.7547711    4361.7374            2 
   54100    1.3137549   -5.7827686    4372.4337            5 
   54200        1.298   -5.7544208    4393.3238            2 
   54300    1.2947355   -5.7783159    4396.0503            2 
   54400    1.2976622   -5.8042079    4370.9005            2 
   54500    1.2903414   -5.7840557    4373.0336            2 
   54600    1.3040303   -5.7567962     4374.382            3 
   54700    1.3028488   -5.7559433    4379.5889            3 
   54800    1.3145302   -5.7612809    4401.7175            4 
   54900    1.2866101   -5.7535928    4395.9098            3 
   55000    1.2901659    -5.760604    4369.7911            2 
   55100    1.2896929   -5.7739826     4371.964            3 
   55200    1.3155289   -5.7493756    4378.0575            3 
   55300    1.2903329   -5.7386088    4380.5744            1 
   55400    1.2796453   -5.7563118    4386.5886            1 
   55500    1.3185876   -5.7605492    4376.2546            5 
   55600    1.2762008    -5.745995    4373.4275            4 
   55700    1.3044414   -5.7726217    4382.7252            2 
   55800    1.2820783   -5.7546959    4384.8423            3 
   55900    1.3361721   -5.7434763    4365.7786            2 
   56000    1.3096553    -5.744466    4357.4096            5 
   56100     1.290665   -5.7479475    4366.6018            3 
   56200    1.3054192   -5.7576515    4397.0794            2 
   56300    1.2734133   -5.7369691    4404.3429            4 
   56400    1.3249609   -5.7546357    4397.0864            3 
   56500    1.3030925   -5.7497784    4399.0053            2 
   56600    1.2941362   -5.7644133    4369.9436            4 
   56700     1.280597   -5.7572617    4363.9808            2 
   56800    1.3164691   -5.7539643    4389.5951            2 
   56900    1.2788982   -5.7555669    4387.5444            2 
   57000    1.3029573      -5.7618    4379.9994            8 
   57100    1.3020152   -5.7636026    4385.0217            2 
   57200    1.2898216    -5.813429    4383.3233            4 
   57300    1.3046382   -5.7905744    4376.8634            1 
   57400    1.3158354   -5.7432556    4398.4751            2 
   57500     1.317015   -5.7736933    4388.8521            4 
   57600    1.2835638   -5.7701811    4388.5723            3 
   57700    1.3072566   -5.7829465    4390.6199            3 
   57800      1.29006   -5.7747011    4374.6056            3 
   57900    1.2833122   -5.7502576    4365.9708            3 
   58000    1.2929795   -5.7255416    4376.1742            2 
   58100    1.3271899   -5.7408678    4375.8132            7 
   58200     1.295938   -5.7670819    4373.9941            4 
   58300    1.3028877   -5.7805923    4406.6234            3 
   58400    1.2854078   -5.7395771    4415.3154            2 
   58500    1.2902948   -5.7374777    4386.5533            2 
   58600     1.315481   -5.7780016    4352.0051            3 
   58700    1.2552215   -5.7257622    4356.8243            4 
   58800    1.3081066   -5.7701123     4376.668            3 
   58900    1.2960446   -5.7606405    4387.3236            2 
   59000    1.2824889   -5.7173955    4400.6336            2 
   59100    1.3120683   -5.7201725    4391.8899            4 
   59200    1.3176795   -5.7586585    4369.5702            2 
   59300    1.2993863   -5.7685578    4382.8793            2 
   59400    1.2883875   -5.7715449    4394.8823            2 
   59500    1.3258784   -5.7618402    4387.4637            2 
   59600    1.2978016   -5.7252235    4394.6469            4 
   59700    1.3039401    -5.776131    4360.7527            1 
   59800    1.2967607    -5.745979     4389.583            3 
   59900    1.3065423    -5.741592    4393.1683            2 
   60000    1.2902219   -5.7849079    4377.5595            2 
   60100    1.2879574   -5.7682929    4376.1739            1 
   60200    1.3081811   -5.7584067    4393.8353            2 
   60300    1.2788503    -5.746027    4377.4477            2 
   60400     1.301916   -5.7888682    4374.2805            3 
   60500    1.3129421   -5.7446141    4399.1238            3 
   60600    1.3011567   -5.6915532     4395.722            3 
   60700    1.2890432   -5.7383629    4377.6334            2 
   60800    1.3169802   -5.7755755    4376.9188            4 
   60900    1.2667624   -5.7779707    4368.0596            3 
   61000    1.2937499    -5.768961    4383.3744            2 
   61100     1.324145   -5.7526044    4385.3526            2 
   61200    1.3284967   -5.7227919    4386.2853            3 
   61300    1.3032998   -5.7652569    4384.8101            2 
   61400    1.2560745   -5.7692977    4394.7622            3 
   61500    1.3176776   -5.7811234    4382.2928            2 
   61600    1.3294134   -5.7494264    4376.3105            2 
   61700    1.2880316   -5.7775723    4383.4369            4 
   61800     1.267776   -5.7467282    4388.1837            7 
   61900    1.3007431   -5.7416353    4386.5913            3 
   62000    1.3388976   -5.7419057    4398.3803            3 
   62100    1.2893329   -5.7078311    4395.9035            2 
   62200    1.2981384   -5.7613664    4385.2372            5 
   62300    1.2712217   -5.7971632    4373.7367            5 
   62400    1.3097799    -5.808316    4386.3029            4 
   62500    1.3150293   -5.7901972     4388.092            1 
   62600    1.2685254   -5.7908436    4373.2503            4 
   62700    1.3140021   -5.7860746    4373.3149            2 
   62800     1.322411   -5.7415175     4380.959            1 
   62900    1.2796422   -5.7274628    4381.2245            3 
   63000    1.2877471   -5.7721128    4365.0555            3 
   63100    1.2943117   -5.7496152    4377.0135            3 
   63200    1.2978902   -5.7634903    4390.8549            4 
   63300    1.2944496   -5.7608294    4379.4972            7 
   63400    1.3192997   -5.7479218    4388.3059            4 
   63500    1.2817268   -5.7303689    4392.3254            3 
   63600    1.2996311   -5.7430421    4375.3409            7 
   63700    1.2718528   -5.7363335    4370.0827            2 
   63800    1.3072974   -5.7329573    4384.6196            4 
   63900    1.3055928   -5.7813585    4367.0342            2 
   64000    1.2931751     -5.76981    4374.9956            3 
   64100    1.3047515    -5.752636    4384.2869            2 
   64200    1.3010584   -5.7654562    4378.2733            6 
   64300    1.3396854    -5.778296    4363.1597            2 
   64400    1.2859604   -5.7709884    4363.4933            6 
   64500     1.306017   -5.7867831    4393.1727            4 
   64600    1.2983584   -5.7925251    4390.7751            3 
   64700    1.2872831   -5.7839895     4377.808            3 
   64800    1.3386849   -5.7561884     4372.271            1 
   64900    1.3171565   -5.7584797    4372.2214            3 
   65000    1.2673165   -5.7546201     4379.399            1 
   65100    1.3397463   -5.7930802    4353.3151            3 
   65200    1.3271787   -5.7938734     4358.498            5 
   65300    1.3109058   -5.7871567    4386.7133            4 
   65400    1.3088226   -5.7918743    4393.2728            3 
   65500    1.2858076   -5.8069354    4377.2595            2 
   65600    1.3181016    -5.785466     4382.296            6 
   65700    1.2990048   -5.7221908    4376.6647            2 
   65800    1.2908258   -5.7493295    4382.7224            3 
   65900    1.3017743   -5.7763688    4390.1925            6 
   66000    1.2917488   -5.7097358    4402.0081            2 
   66100     1.289712   -5.7483629    4391.6063            3 
   66200    1.3077659    -5.778239    4374.6867            3 
   66300    1.2897486    -5.810878    4349.0924            5 
   66400    1.2833735   -5.7935603    4370.0426            2 
   66500    1.3052601   -5.7796115    4397.2789            1 
   66600    1.2945292   -5.7936254    4397.5584            4 
   66700    1.2918775   -5.8114723    4370.4928            2 
   66800    1.3047235   -5.7595963    4363.6136            5 
   66900    1.3156036     -5.77912    4369.1643            5 
   67000    1.2815577   -5.7663114    4371.8684            3 
   67100    1.3282947   -5.7789545    4376.8339            2 
   67200    1.2736499   -5.7309648    4390.3131            3 
   67300    1.3067708   -5.7613133    4380.3146            3 
   67400    1.2858094   -5.7527691    4365.6053            1 
   67500    1.2928066   -5.7154576    4380.6161            3 
   67600    1.2830717   -5.7102182    4388.9028            3 
   67700    1.3082701   -5.7355949    4394.0222            3 
   67800    1.2805379    -5.747461    4374.2847            1 
   67900    1.3013025   -5.7529321    4367.8716            5 
   68000    1.3005003   -5.7421967     4379.601            2 
   68100    1.3244065   -5.7337414     4387.413            5 
   68200     1.275965   -5.7378144    4394.4205            4 
   68300    1.2960229   -5.7816793    4378.9304            4 
   68400    1.3049102   -5.7782455    4348.6434            2 
   68500    1.2918518   -5.8005758     4355.458            4 
   68600    1.2996901   -5.7745841    4403.0614            4 
   68700    1.2762027   -5.7594687    4405.9923            1 
   68800    1.3060907   -5.7217556    4393.2423            4 
   68900     1.329199   -5.7535546    4392.7245            6 
   69000    1.2950207   -5.7652747    4386.7975            6 
   69100    1.2864152   -5.7717089    4374.8402            3 
   69200    1.3108623   -5.8303465     4372.474            6 
   69300    1.2927997    -5.779812    4376.8381            5 
   69400    1.3346161   -5.7539519    4377.7507            4 
   69500     1.299272   -5.7403293    4363.2144            3 
   69600    1.2868612   -5.7549598    4376.3716            2 
   69700    1.3050129   -5.7469282    4377.7385            3 
   69800    1.2777578   -5.7506892    4385.0266            4 
   69900    1.2926437     -5.76851    4386.6809            4 
   70000    1.2941727   -5.7304274    4390.4158            9 
   70100    1.3045625   -5.7413385    4379.1686            3 
   70200    1.3279638   -5.7522085    4394.4434            4 
   70300    1.2897044   -5.7738717    4383.6458            5 
   70400    1.2937316   -5.7865556    4370.2011            4 
   70500    1.2748921   -5.7812258    4373.1049            3 
   70600    1.2959948   -5.7432055    4388.6425            5 
   70700    1.2948774   -5.7808197    4398.8095            2 
   70800    1.2623595   -5.7698415    4374.4682            4 
   70900    1.2988077   -5.7594698    4372.0489            3 
   71000    1.3096268   -5.8025783    4355.7511            5 
   71100    1.2937699   -5.8024846    4365.4447            9 
   71200    1.3005699   -5.7957367    4372.6974            4 
   71300    1.3083946   -5.7810918    4391.4757            3 
   71400    1.3011349   -5.7591402    4403.0128            4 
   71500    1.2790341   -5.7886586    4385.5426            5 
   71600    1.2925823   -5.7341983    4372.5684            2 
   71700      1.32712   -5.7242073    4378.9042            3 
   71800    1.3176598   -5.7471548    4381.5779            2 
   71900    1.2970609   -5.7754763    4370.8104            5 
   72000    1.2951266   -5.7729521    4382.8334            3 
   72100    1.3005279   -5.7708873    4375.2097            2 
   72200    1.3063944   -5.7721453    4372.2818            6 
   72300    1.3271332   -5.7308781    4383.7781            5 
   72400    1.3137162   -5.7693692    4387.0982            4 
   72500    1.2894829   -5.7616216    4387.6505            3 
   72600    1.3146863   -5.7350812    4406.5724            6 
   72700    1.3110448   -5.7235748    4386.9131            2 
   72800    1.3160356    -5.738592    4360.1734            2 
   72900    1.2828289   -5.7260792     4377.108            1 
   73000    1.2906699   -5.7331872    4418.0923            1 
   73100    1.2946545   -5.7653808    4402.0414            2 
   73200    1.3091698   -5.7723702     4380.338            2 
   73300      1.30581   -5.8100562    4363.8113            4 
   73400    1.3092191   -5.8070619    4367.0611            3 
   73500    1.2798792   -5.8117773    4364.7215            4 
   73600    1.3190251   -5.8126944    4365.6176            5 
   73700     1.293696   -5.7499336    4369.0948            6 
   73800    1.3145337   -5.7719098    4378.8657            4 
   73900    1.3132748   -5.7244508    4394.4497            4 
   74000    1.2985933   -5.7605699    4392.3678            2 
   74100    1.2793554   -5.7508372    4388.9614            2 
   74200     1.299849   -5.7176172    4393.1405            2 
   74300    1.3470602   -5.7594751    4372.3942            4 
   74400    1.3060635   -5.7614717     4383.064            2 
   74500    1.2737327   -5.7615618    4379.9413            3 
   74600     1.331986   -5.7849832     4363.922            3 
   74700    1.3127298   -5.7757146    4372.7959            2 
   74800    1.2937656   -5.8176334    4373.6314            3 
   74900    1.2860602   -5.7899818    4387.9789            4 
   75000    1.3014325   -5.7415003    4374.3072            3 
   75100    1.3260139   -5.7141436     4378.589            5 
   75200    1.3107458   -5.7241336     4378.751            3 
   75300    1.3004434   -5.7435595    4379.1165            5 
   75400     1.278357   -5.7868859    4378.7393            7 
   75500    1.3059324   -5.8112154    4376.2555            3 
   75600    1.3145115   -5.7698611    4376.0792            3 
   75700    1.2864537   -5.7484042    4379.6915            3 
   75800    1.2710722   -5.7899738     4350.465            3 
   75900    1.3033677   -5.7751382    4365.5789            3 
   76000    1.3100324   -5.7417334    4385.5617            2 
   76100    1.2894847   -5.7355756     4394.604            3 
   76200    1.3135265   -5.7464815    4387.5617            5 
   76300    1.2830486    -5.699395    4404.6326            6 
   76400    1.3166797   -5.7252334    4412.5982            4 
   76500    1.2977413   -5.7488597    4394.3974            3 
   76600    1.3036796    -5.732401    4390.5093            2 
   76700    1.3297488   -5.7659156    4395.2619            5 
   76800    1.2931563   -5.7888992    4388.1282            2 
   76900    1.2851899     -5.76484    4382.5946            4 
   77000    1.3223534   -5.7398337    4379.8182            2 
   77100    1.2853394   -5.7230767    4389.1862            3 
   77200    1.3310457   -5.7323401    4399.3074            3 
   77300    1.3026455   -5.7409635    4381.6303            4 
   77400    1.3083772   -5.7341543    4384.9163            2 
   77500    1.2855982   -5.7197192    4392.7593            3 
   77600    1.3198595   -5.7593022    4390.6029            1 
   77700    1.2712033   -5.7659623     4386.526            3 
   77800    1.2976937   -5.7866598     4391.658            5 
   77900    1.3115435   -5.7471057    4401.1335            3 
   78000    1.3181616   -5.7569459    4383.3377            2 
   78100    1.2887351   -5.7577559    4353.9961            3 
   78200    1.3050827   -5.7826725    4366.5607            3 
   78300    1.2978516    -5.744095     4413.057            4 
   78400    1.2902968   -5.7707139    4387.6552            3 
   78500    1.3171427   -5.8060978    4369.8483            2 
   78600    1.3147943   -5.7888325    4369.6463            3 
   78700     1.266257   -5.7292163    4392.9574            4 
   78800    1.3071627     -5.73884    4386.8035            3 
   78900    1.2906575   -5.7685845    4366.7635            2 
   79000    1.3077395   -5.7580291    4380.4924            1 
   79100    1.3136758   -5.7346882    4400.0322            1 
   79200    1.2827465   -5.7407435    4391.8375            2 
   79300    1.2923215   -5.7597829    4373.1326            7 
   79400    1.3149291   -5.7888663    4362.0372            6 
   79500    1.2917691   -5.7743756    4356.3959            5 
   79600    1.2785938   -5.7347553    4379.3701            2 
   79700    1.3096701   -5.7479579    4393.2294            1 
   79800    1.2960341   -5.7880578     4378.676            4 
   79900    1.2673071   -5.7746034    4392.1229            3 
   80000    1.3061856   -5.7682641    4383.0784            6 
   80100     1.314082   -5.8031086    4368.6057            4 
   80200    1.2848042   -5.7787851    4374.4146            8 
   80300    1.3028905   -5.7650427    4378.0987            3 
   80400    1.3083033   -5.7731252     4371.947            6 
   80500    1.2982293   -5.7449641    4379.0356            4 
   80600    1.3006108   -5.7943865    4375.1561            3 
   80700      1.30769   -5.7654273    4393.4309            3 
   80800    1.2912185   -5.7474612    4404.0564            6 
   80900    1.2771813   -5.7537026    4372.6454            2 
   81000    1.3314391   -5.7569675    4368.3159            2 
   81100    1.3021402   -5.7672425    4381.2206            3 
   81200    1.2586687   -5.7776779    4374.7746            2 
   81300    1.2750343   -5.7663683    4380.7081            3 
   81400    1.2979426   -5.7540268    4382.0102            3 
   81500    1.3163516   -5.7132319    4374.0258            5 
   81600    1.2937895   -5.7476468    4361.6152            2 
   81700    1.3109229   -5.7520624     4389.829            3 
   81800     1.308095   -5.7426773    4409.5847            4 
   81900    1.2803433   -5.7586069    4401.6346            3 
   82000    1.2928187   -5.7499159    4396.1278            2 
   82100    1.2931426   -5.7208262    4382.2025            2 
   82200    1.2987885   -5.7455767    4357.8898            3 
   82300    1.2906137   -5.7716466    4363.7836            2 
   82400    1.2908363   -5.7510635    4367.2229            1 
   82500    1.3126689   -5.7389547    4376.8147            2 
   82600    1.3052583   -5.7650655    4388.1321            3 
   82700    1.3105248   -5.7670684    4380.6758            2 
   82800    1.3008674   -5.8099733    4361.5693            4 
   82900     1.304058   -5.7857859    4390.3089            2 
   83000    1.3001423   -5.7908997    4392.1422            4 
   83100    1.3070744    -5.805934    4380.0666            2 
   83200     1.295509   -5.7413477    4375.1152            6 
   83300    1.3460847    -5.768259    4388.7778            5 
   83400    1.2793841   -5.7527486    4397.5579            2 
   83500    1.2762229   -5.7810181    4371.5648            2 
   83600    1.3237752   -5.8054122    4359.6001            4 
   83700    1.3086895   -5.7631981    4369.8131            2 
   83800    1.3022098   -5.7450934    4399.4282            4 
   83900    1.2889064   -5.7753581    4396.1142            4 
   84000    1.3105079   -5.7918649    4364.5433            2 
   84100    1.2962631   -5.7775085    4349.6061            3 
   84200    1.3089475   -5.7560552    4388.7601            2 
   84300    1.2992023   -5.7568985    4397.2073            2 
   84400    1.2833397    -5.767623    4379.7916            2 
   84500     1.313091   -5.7464526    4385.9982            3 
   84600    1.3138801   -5.7386095    4381.6081            2 
   84700    1.2858279   -5.7534939    4392.3525            3 
   84800    1.2842368   -5.7352706    4385.3272            4 
   84900    1.3128996   -5.7367515    4391.2637            8 
   85000    1.3415608    -5.737741    4383.2006            3 
   85100    1.3086336   -5.7653577    4372.1568            3 
   85200    1.2842681   -5.7779217    4381.8255            3 
   85300    1.2971639   -5.7341402    4396.6204            4 
   85400    1.2778741   -5.7314894    4372.6777            3 
   85500    1.3014715   -5.7635899    4365.5534            3 
   85600    1.3047605   -5.7113857    4396.1355            6 
   85700    1.3085474   -5.7338012    4384.3257            2 
   85800    1.3095679    -5.752305    4370.9745            4 
   85900    1.2836824   -5.7739916    4376.1007            3 
   86000    1.3180036   -5.8066576    4385.8128            1 
   86100     1.314976   -5.7611606    4410.5985            3 
   86200    1.3299521   -5.7254551    4405.8245            2 
   86300    1.2988424   -5.7438632    4381.7258            2 
   86400    1.3313954   -5.7348886    4372.9025            5 
   86500    1.2916366   -5.7599337    4382.7662            3 
   86600    1.2609943   -5.7742504     4390.147            3 
   86700    1.2678771    -5.794831    4379.5183            3 
   86800    1.2861897   -5.7468104    4397.8469            8 
   86900     1.321357   -5.7825308    4381.4993            2 
   87000    1.3078906   -5.7855344    4369.8067            2 
   87100    1.3189051   -5.7450912    4384.4088            6 
   87200    1.3040086   -5.7583447    4372.2232            5 
   87300    1.2937901   -5.8102988    4376.0328            2 
   87400    1.2861725   -5.7773608     4372.817            3 
   87500    1.3049866   -5.7324895    4378.1505            4 
   87600    1.3250806   -5.7123625    4381.0076            6 
   87700    1.2876723   -5.7297705    4372.1718            1 
   87800    1.3033282    -5.781034    4385.1049            2 
   87900    1.3281472   -5.7609836    4408.8423            4 
   88000    1.3032742   -5.7454182    4402.3954            3 
   88100    1.2876437   -5.7832764    4384.6274            3 
   88200    1.3142953   -5.7562037    4370.4022            6 
   88300    1.3136806   -5.7321189    4380.2003            2 
   88400    1.3157386   -5.7579006    4390.6512            3 
   88500    1.2767196   -5.7687615    4389.9844            3 
   88600    1.2974198   -5.7312557    4394.0828            5 
   88700     1.308389   -5.7647242    4356.2401            3 
   88800    1.3054933   -5.7610942    4364.5723            3 
   88900    1.3244559   -5.7368255    4398.8892            2 
   89000    1.2981897   -5.7450793    4392.8309            4 
   89100    1.2998162    -5.766653    4397.9758            3 
   89200    1.3282372   -5.7499955    4401.1136            6 
   89300    1.3208934    -5.722256    4382.1474            3 
   89400    1.3013381   -5.7652643     4375.891            1 
   89500    1.2934188   -5.7187955    4387.6181            3 
   89600    1.2988257   -5.7416853      4404.87            2 
   89700    1.3161817   -5.7403877    4395.0345            1 
   89800    1.3021468   -5.7521895    4367.3678            2 
   89900    1.3238919   -5.7949391     4372.483            1 
   90000    1.2746458   -5.7568343    4399.0116            3 
   90100    1.2835096   -5.7770482    4398.3359            3 
   90200    1.2992392   -5.7650734    4374.4342            2 
   90300    1.3466196    -5.775111    4383.8242            2 
   90400    1.3026233   -5.7858941    4381.7971            4 
   90500    1.2947346   -5.7930341    4376.5486            4 
   90600    1.3097684   -5.7949248    4375.5997            2 
   90700    1.2879601   -5.7963672    4368.8461            1 
   90800    1.2885003   -5.7910497    4368.4597            4 
   90900    1.2921918   -5.7602714    4368.9681            2 
   91000    1.3357841   -5.7951519    4354.9371            2 
   91100    1.2920033   -5.7915751    4357.6262            2 
   91200    1.2909386   -5.7483756    4396.8335            2 
   91300    1.3065999   -5.7361509    4391.0183            2 
   91400    1.3037657   -5.7790052    4367.1063            1 
   91500    1.2937341   -5.7749361    4367.4355            2 
   91600    1.2896018   -5.7351083    4393.0592            2 
   91700    1.3260597   -5.7446703     4400.507            2 
   91800    1.3000855   -5.7485383    4404.4883            3 
   91900    1.2817075   -5.7583276    4406.7931            4 
   92000    1.3070388   -5.7541689    4382.9182            2 
   92100    1.3228331   -5.7786284    4370.3061            2 
   92200    1.2992086   -5.7847309    4373.6395            2 
   92300    1.2651194   -5.7529229    4391.2852            3 
   92400    1.2970376   -5.7982052    4369.2642            2 
   92500    1.3159502   -5.7739731    4370.5581            4 
   92600     1.334749   -5.7338854    4391.0891            2 
   92700    1.2909244   -5.7189527     4392.203            2 
   92800    1.2997569   -5.7417976    4378.7867            3 
   92900    1.3270104    -5.732922    4373.0648            2 
   93000    1.3034012   -5.7592241    4385.9826            1 
   93100    1.2719363   -5.7872778     4391.731            1 
   93200     1.300811   -5.7927398    4395.7629            3 
   93300     1.319653   -5.7549413    4393.5916            1 
   93400    1.3141208   -5.7978468    4376.0044            2 
   93500     1.284972   -5.7800586    4374.4637            2 
   93600    1.3252899   -5.7684442    4383.5204            4 
   93700    1.2994362   -5.7511316     4377.665            2 
   93800    1.2845425   -5.7956301    4344.2643            5 
   93900    1.2804924   -5.7664032    4371.9925            4 
   94000     1.304993    -5.765367    4371.3219            3 
   94100    1.3085327   -5.7690462    4384.6355            2 
   94200    1.2706831   -5.7316231    4412.9314            2 
   94300    1.3030964   -5.7132115    4412.6032            2 
   94400    1.3202707   -5.7264909    4371.4267            1 
   94500    1.3064891   -5.7446035    4367.4518            4 
   94600    1.2905579   -5.7563695     4375.008            2 
   94700    1.3175971   -5.7658705    4405.8986            2 
   94800    1.2797998   -5.7704087     4385.461            5 
   94900    1.2916002   -5.7727761    4386.5679            4 
   95000    1.3224184   -5.7648845    4390.9831            2 
   95100    1.3002419   -5.7307763    4383.6637            4 
   95200    1.2795918   -5.7477428     4377.811            5 
   95300    1.2896206   -5.7411579    4382.7815            2 
   95400    1.3096649   -5.7710795    4386.0958            2 
   95500     1.313685    -5.801476    4375.8883            2 
   95600    1.2904681   -5.7564427    4393.1658            4 
   95700    1.2911865   -5.7281636    4408.3565            3 
   95800    1.2818523   -5.7505306    4395.5757            3 
   95900    1.3037744   -5.7645871    4366.4901            2 
   96000    1.3017586   -5.7482807     4363.462            4 
   96100    1.3055709    -5.737523    4383.4297            3 
   96200    1.2875088    -5.765871    4392.4364            7 
   96300    1.2566374     -5.78922    4377.2059            7 
   96400     1.323586    -5.805061    4368.1312            2 
   96500    1.3173238   -5.7817166    4362.5257            3 
   96600    1.2834025   -5.7508373     4380.771            3 
   96700    1.3031195   -5.7571596    4407.5115            3 
   96800    1.3298748   -5.7473312    4400.9267            2 
   96900    1.2744462    -5.720828     4372.934            1 
   97000    1.3199291   -5.7164372    4376.0148            4 
   97100    1.3364611   -5.7250484    4380.6954            3 
   97200    1.2895296   -5.7451247    4392.6991            1 
   97300    1.2986695   -5.7636157    4388.2403            3 
   97400    1.2928561   -5.7967292    4376.9314            3 
   97500    1.3254815   -5.7826293    4381.0812            4 
   97600    1.3194839   -5.8283776    4362.7795            2 
   97700    1.2868018   -5.7749954       4370.1            1 
   97800    1.2818731   -5.7353909    4377.1177            5 
   97900    1.3536752   -5.8019629    4380.1521            3 
   98000    1.2706642   -5.7646185    4391.6074            2 
   98100    1.2977696   -5.7589983     4401.394            3 
   98200    1.3292831   -5.7576516    4391.2389            2 
   98300     1.295329   -5.7513235    4372.3399            4 
   98400    1.3025501   -5.7572623    4369.7505            2 
   98500     1.279939    -5.764171    4384.3004            3 
   98600    1.2859826    -5.753376    4401.9002            3 
   98700    1.3330669    -5.741258    4397.2525            2 
   98800    1.3175653   -5.7542735    4376.4382            2 
   98900    1.2937543    -5.744168    4361.2887            3 
   99000    1.3145638   -5.7731222    4366.5831            4 
   99100    1.3137557   -5.7392692    4395.6825            2 
   99200    1.3063321    -5.792305    4372.3406            3 
   99300    1.2898979   -5.7751357    4375.5335            2 
   99400    1.2992854   -5.7382742    4395.9764            3 
   99500    1.3430451   -5.7303167    4399.8221            5 
   99600    1.3015414   -5.7370505    4378.1675            2 
   99700    1.3057283   -5.7544988    4380.5484            1 
   99800    1.3080298   -5.7407328     4401.732            3 
   99900    1.3104925   -5.7205365    4396.2117            2 
  100000    1.2994867   -5.7675521    4378.5396            1 
  100100    1.2850093   -5.7354455    4373.9013            2 
  100200    1.3344071   -5.7409813    4383.6341            3 
  100300    1.2873905   -5.7204972    4374.2546            3 
  100400     1.305812   -5.7161117    4396.9408            4 
  100500     1.281212   -5.7041224    4401.1917            4 
  100600    1.3239617   -5.7670493    4385.3978            3 
  100700    1.2873449   -5.7419723    4381.5077            2 
  100800    1.3374132   -5.7723989    4380.5454            1 
  100900    1.2965045   -5.7946078    4369.0682            1 
  101000    1.2818335   -5.7420001    4368.8077            5 
  101100    1.3180855   -5.7451025    4399.8405            5 
  101200    1.3021971   -5.7447359    4390.1177            3 
  101300    1.2921685   -5.7354163    4390.9874            3 
  101400     1.293614   -5.7627754    4381.6847            4 
  101500    1.2956507   -5.7613952    4364.1159            3 
  101600    1.3404461    -5.755198    4374.5727            3 
  101700    1.2786056   -5.7389051    4380.0333            3 
  101800    1.2889428   -5.7677303    4391.3967            2 
  101900    1.3161972   -5.7735479    4383.3794            2 
  102000    1.3042603   -5.7794617     4341.253            2 
  102100    1.3031355   -5.7703581    4370.2792            4 
  102200    1.2990505   -5.7573344    4385.5712            3 
  102300     1.288597   -5.7192628    4398.1945            2 
  102400    1.3164023   -5.7605671     4399.366            2 
  102500    1.2879602   -5.7529746    4387.7537            3 
  102600    1.2880905   -5.7497171    4385.0063            5 
  102700    1.3142872   -5.7290738    4393.1033            3 
  102800    1.2877351   -5.7474128    4387.5581            3 
  102900     1.289549   -5.7126608    4395.6045            5 
  103000    1.3119605   -5.7500072    4384.7282            3 
  103100     1.288274   -5.7562026    4373.0253            4 
  103200    1.3245282   -5.7436267    4377.3093            3 
  103300    1.3104218   -5.7707476    4390.1897            3 
  103400    1.2851718   -5.7885956    4390.6916            3 
  103500    1.2822166   -5.7728896    4368.0139            2 
  103600    1.3047775   -5.7402185    4369.4257            2 
  103700    1.3091091   -5.7493496    4378.7912            3 
  103800    1.2746082   -5.7295268    4393.9449            4 
  103900    1.3105047     -5.75996    4398.3498            6 
  104000    1.2978767    -5.760729    4388.5962            2 
Loop time of 278.651 on 18 procs for 100000 steps with 4000 atoms

Performance: 62013.086 tau/day, 358.872 timesteps/s
99.6% CPU use with 18 MPI tasks x no OpenMP threads

MPI task timing breakdown:
Section |  min time  |  avg time  |  max time  |%varavg| %total
---------------------------------------------------------------
Pair    | 34.559     | 36.457     | 37.994     |  16.2 | 13.08
Neigh   | 5.2099     | 5.3272     | 5.4016     |   2.4 |  1.91
Comm    | 12.467     | 14.141     | 16.582     |  31.4 |  5.07
Output  | 5.7824     | 5.7839     | 5.8017     |   0.2 |  2.08
Modify  | 212.29     | 214.46     | 217.02     |   9.3 | 76.96
Other   |            | 2.48       |            |       |  0.89

Nlocal:        222.222 ave         235 max         210 min
Histogram: 2 1 2 3 1 1 4 1 1 2
Nghost:        2228.61 ave        2250 max        2210 min
Histogram: 1 4 0 1 3 4 0 3 1 1
Neighs:        23122.6 ave       24972 max       21488 min
Histogram: 2 2 1 2 4 2 1 0 2 2
FullNghs:      46243.1 ave       49564 max       43399 min
Histogram: 1 3 4 0 1 3 2 2 1 1

Total # of neighbors = 832376
Ave neighs/atom = 208.09400
Neighbor list builds = 6798
Dangerous builds = 1

#clear
#
#next RN
#
#jump SELF
Total wall time: 0:04:40
