
units lj                  # Use reduced LJ style units
atom_style atomic         # Uncharged point particles
atom_modify map hash      # Needed for indexing of clusters etc
                          # Used to be able to find where atoms are in relation to each other.

# Define a lattice with which to populate the simulation cell. With units
# set to 'lj' the second argument to the lattice command is the reduced
# density rho* and the spacings are multiples of that required to acheive
# that density. Also define a simulation cell called 'box' in lattice units
# and fill it with atoms. Here we're creating a box which is ten lattice
# constants in each direction.
lattice fcc 1.0 spacing 1 1 1                 # All equal sizes - gives the right reduced density.
Lattice spacing in x,y,z = 1.5874011 1.5874011 1.5874011

region box block 0 10 0 10 0 10 units lattice # Defines a region, "box", in lattice units
create_box 1 box                              # Creates a simulation box as specified above,
Created orthogonal box = (0.0000000 0.0000000 0.0000000) to (15.874011 15.874011 15.874011)
  2 by 4 by 4 MPI processor grid
                                              # with one type of atom
create_atoms 1 box                            # Creates particles on lattice points
Created 4000 atoms
  using lattice units in orthogonal box = (0.0000000 0.0000000 0.0000000) to (15.874011 15.874011 15.874011)
  create_atoms CPU = 0.002 seconds


# Set the mass of the first (and only) atom type.
mass 1 1.0

# Lennard-Jones interactions between particles, 3.5 sigma cut-off. Apply
# long range tail corrections to energy and pressure and set all coefficients
# to unity since we work in reduced units here. Note that this doesn't shift
# the potential such that it goes to zero at the cutoff. That would require
# pair_modify('shift', 'yes').
pair_style lj/cut  3.5      # non-GPU version
pair_modify tail  yes
pair_coeff 1  1  1.0  1.0   # Intearaction between 1 and 1 set with epsilon = 1 and sigma = 1

write_data data.*
System init for write_data ...
Neighbor list info ...
  update every 1 steps, delay 10 steps, check yes
  max neighbors/atom: 2000, page size: 100000
  master list distance cutoff = 3.8
  ghost atom cutoff = 3.8
  binsize = 1.9, bins = 9 9 9
  1 neighbor lists, perpetual/occasional/extra = 1 0 0
  (1) pair lj/cut, perpetual
      attributes: half, newton on
      pair build: half/bin/atomonly/newton
      stencil: half/bin/3d
      bin: standard

#############################
#   M E L T   S Y S T E M   #
#############################

velocity all create 2.4 6583654 mom yes dist gaussian # Assign velocities
                                                    # Temperature 2.4, random number seed, zero linear momentum
						                                                        # Gaussian distribution

timestep 0.002   # simulation timestep
thermo 100       # output thermodynamic data every 100 steps

# Define a fix  in this case with index 1 applied to all
# particles in the simulation. This fix is for simulations
# in the anisotropic NPT ensemble. Note that we use the MTK
# correction.
fix 1 all npt temp 2.4 2.4 0.1 iso 5.68 5.68 0.5 mtk yes tchain 5 pchain 5 # Use NPT ensemble
                                                                         # Set temperature and pressure and damping
                                                                         # Numbers of thermostats in chain and in barostat
run 1000         # run for 10000 steps
Per MPI rank memory allocation (min/avg/max) = 3.660 | 3.660 | 3.660 Mbytes
Step Temp E_pair E_mol TotEng Press Volume 
       0          2.4   -8.3859253            0   -4.7868253   -2.2405722         4000 
     100    1.2691967   -6.5422289            0   -4.6389098    5.3378653    4090.7551 
     200    1.4787625   -6.3158233            0   -4.0982341    6.0374862    4137.2558 
     300    1.5708342   -6.0123056            0   -3.6566434    5.8269752    4273.6084 
     400    1.6935755   -5.7191311            0    -3.179403    5.9540602    4395.1747 
     500    1.7875886   -5.4095267            0   -2.7288141    6.0322401    4536.9038 
     600    1.8873111   -5.1521313            0   -2.3218724    5.7297832     4702.884 
     700    2.0258918   -4.9144312            0   -1.8763532    5.9082203    4824.8495 
     800    2.1522544   -4.7292823            0   -1.5017078    5.7781683    4963.9277 
     900     2.239714   -4.5446635            0   -1.1859323    5.7477122    5090.6319 
    1000    2.3765823   -4.4738755            0  -0.90989327    5.6796077     5154.488 
Loop time of 0.258586 on 32 procs for 1000 steps with 4000 atoms

Performance: 668248.698 tau/day, 3867.180 timesteps/s
99.6% CPU use with 32 MPI tasks x no OpenMP threads

MPI task timing breakdown:
Section |  min time  |  avg time  |  max time  |%varavg| %total
---------------------------------------------------------------
Pair    | 0.13587    | 0.13993    | 0.1468     |   0.7 | 54.11
Neigh   | 0.025564   | 0.026567   | 0.027607   |   0.3 | 10.27
Comm    | 0.061001   | 0.069617   | 0.074554   |   1.2 | 26.92
Output  | 0.0002024  | 0.00020662 | 0.00025176 |   0.0 |  0.08
Modify  | 0.018344   | 0.020288   | 0.022252   |   0.8 |  7.85
Other   |            | 0.001974   |            |       |  0.76

Nlocal:        125.000 ave         138 max         116 min
Histogram: 1 2 6 7 6 8 0 1 0 1
Nghost:        1666.91 ave        1703 max        1646 min
Histogram: 3 5 7 4 5 4 1 0 2 1
Neighs:        11088.0 ave       12468 max       10095 min
Histogram: 1 2 5 8 9 2 2 1 1 1

Total # of neighbors = 354817
Ave neighs/atom = 88.704250
Neighbor list builds = 86
Dangerous builds = 20

# Equilibrate just above the melting temperature to avoid step fn in T

fix 1 all npt temp 1.25 1.25 0.1 iso 5.68 5.68 0.5 mtk yes tchain 5 pchain 5
run 1000
Per MPI rank memory allocation (min/avg/max) = 3.661 | 3.661 | 3.661 Mbytes
Step Temp E_pair E_mol TotEng Press Volume 
    1000    2.3765823   -4.4738755            0  -0.90989327    5.6796077     5154.488 
    1100    1.9625951   -4.6989107            0   -1.7557541    5.6812496    4983.8841 
    1200    1.7289901   -4.9599136            0   -2.3670769    5.8142104    4790.1519 
    1300    1.5792657   -5.2249024            0   -2.8565961    5.6289859    4660.4039 
    1400    1.4517319   -5.4215948            0   -3.2445414    5.5197346    4561.4045 
    1500     1.364265   -5.5680033            0   -3.5221174    5.5958139    4483.3542 
    1600    1.3084699   -5.6759595            0   -3.7137453    5.6057769    4426.4503 
    1700    1.2550401   -5.7394736            0   -3.8573841    5.7381181    4381.4433 
    1800    1.2507956   -5.8140506            0   -3.9383263    5.7576039    4349.7766 
    1900    1.2205858   -5.8218536            0   -3.9914327    5.7234503    4347.2659 
    2000    1.2599896   -5.8219529            0    -3.932441    5.7139167    4350.4536 
Loop time of 0.249486 on 32 procs for 1000 steps with 4000 atoms

Performance: 692622.807 tau/day, 4008.234 timesteps/s
99.7% CPU use with 32 MPI tasks x no OpenMP threads

MPI task timing breakdown:
Section |  min time  |  avg time  |  max time  |%varavg| %total
---------------------------------------------------------------
Pair    | 0.13442    | 0.13821    | 0.14334    |   0.6 | 55.40
Neigh   | 0.022604   | 0.023146   | 0.024128   |   0.2 |  9.28
Comm    | 0.058189   | 0.066521   | 0.071611   |   1.2 | 26.66
Output  | 0.00019749 | 0.00020036 | 0.00024055 |   0.0 |  0.08
Modify  | 0.017502   | 0.019158   | 0.02138    |   0.9 |  7.68
Other   |            | 0.002248   |            |       |  0.90

Nlocal:        125.000 ave         130 max         115 min
Histogram: 1 0 0 2 4 3 6 7 4 5
Nghost:        1853.16 ave        1868 max        1832 min
Histogram: 1 0 2 6 2 5 3 6 3 4
Neighs:        13129.4 ave       13744 max       12058 min
Histogram: 1 0 2 3 3 2 5 8 5 3

Total # of neighbors = 420140
Ave neighs/atom = 105.03500
Neighbor list builds = 75
Dangerous builds = 9


# Small amount of linear quench

fix 1 all npt temp 1.25 ${temp} 0.1 iso 5.68 5.68 0.5 mtk yes tchain 5 pchain 5
fix 1 all npt temp 1.25 1 0.1 iso 5.68 5.68 0.5 mtk yes tchain 5 pchain 5
run 2000
Per MPI rank memory allocation (min/avg/max) = 3.661 | 3.662 | 3.662 Mbytes
Step Temp E_pair E_mol TotEng Press Volume 
    2000    1.2599896   -5.8219529            0    -3.932441    5.7139167    4350.4536 
    2100    1.2433802   -5.8580519            0   -3.9934479    5.6770777     4336.389 
    2200    1.2036499    -5.857142            0   -4.0521186    5.6237846    4335.0274 
    2300    1.2335586   -5.8933137            0   -4.0434384     5.651766    4321.3991 
    2400    1.2239978   -5.9142734            0   -4.0787356    5.8172915     4299.479 
    2500     1.209433    -5.956285            0    -4.142589     5.732079    4289.2733 
    2600    1.1822348   -5.9568677            0   -4.1839589    5.8516803    4275.0297 
    2700     1.169438   -5.9739348            0   -4.2202164    5.7243639    4278.0139 
    2800    1.1438593   -5.9999002            0   -4.2845402    5.6219464     4273.714 
    2900    1.1365636   -6.0246849            0   -4.3202658    5.6183716    4263.3561 
    3000    1.1161532   -6.0307681            0   -4.3569569    5.6856213    4254.2524 
    3100    1.1253283   -6.0448245            0    -4.357254    5.5723884    4258.7037 
    3200    1.0910319   -6.0537341            0   -4.4175954    5.6539886     4247.469 
    3300    1.1067671   -6.1014929            0   -4.4417573    5.5461682    4237.9713 
    3400    1.0696268   -6.1009315            0   -4.4968925    5.6259188    4227.5221 
    3500    1.0559023    -6.117579            0   -4.5341214    5.6354395    4219.8897 
    3600    1.0759135   -6.1721792            0   -4.5587125    5.5715156    4205.4338 
    3700    1.0446472   -6.1486523            0   -4.5820733    5.7187332    4198.9957 
    3800    1.0464323   -6.1950183            0   -4.6257623    5.7229586     4181.776 
    3900    1.0075803   -6.1927609            0   -4.6817683    5.8023352    4173.1644 
    4000    1.0010725   -6.2228881            0   -4.7216548    5.8172504         4162 
Loop time of 0.520732 on 32 procs for 2000 steps with 4000 atoms

Performance: 663680.725 tau/day, 3840.745 timesteps/s
99.8% CPU use with 32 MPI tasks x no OpenMP threads

MPI task timing breakdown:
Section |  min time  |  avg time  |  max time  |%varavg| %total
---------------------------------------------------------------
Pair    | 0.28855    | 0.29554    | 0.305      |   0.8 | 56.75
Neigh   | 0.03926    | 0.040109   | 0.041117   |   0.3 |  7.70
Comm    | 0.12673    | 0.13921    | 0.1472     |   1.5 | 26.73
Output  | 0.00040689 | 0.00041332 | 0.00050026 |   0.0 |  0.08
Modify  | 0.035504   | 0.04021    | 0.044816   |   1.2 |  7.72
Other   |            | 0.005257   |            |       |  1.01

Nlocal:        125.000 ave         135 max         117 min
Histogram: 2 2 5 7 1 5 5 4 0 1
Nghost:        1906.88 ave        1927 max        1888 min
Histogram: 2 3 3 7 2 2 5 6 0 2
Neighs:        13735.8 ave       14692 max       12820 min
Histogram: 2 3 3 5 4 4 5 1 2 3

Total # of neighbors = 439545
Ave neighs/atom = 109.88625
Neighbor list builds = 125
Dangerous builds = 0

#############################
# F R E E Z E  S Y S T E M  #
#############################

# Define solid atoms. This closely follows ten Wolde  Ruiz-Montero and Frenkel  Faraday Discuss  1996  104  93-110
# Compute components of the per-atom q6 vector
compute q6 all orientorder/atom degrees 1 6 components 6 nnn NULL cutoff 1.3 # compute the Q6 parameter.
                                                                             # Use all neighbours within 1.3 unit cell.

# get number of connections
compute coord_number all coord/atom orientorder q6 0.5

# An atom is solid if it has 8 or more connections (of a possible 14)
variable is_solid atom c_coord_number>=8
group solid dynamic all var is_solid    # Must be dynamic to update
dynamic group solid defined

# do clustering
compute cluster solid cluster/atom 1.3 # Create a cluster where all atoms within are solid and max 1.3 units from another member

# define chunks one chunk per cluster
compute clus_chunks solid chunk/atom c_cluster nchunk every compress yes  # Says which atoms are in which chunk

# count the size of each chunk
compute size_chunks solid property/chunk clus_chunks count


# Find the maximum entry in the vector of chunk sizes
variable max_n equal max(c_size_chunks)


# Thermo style which includes this variable
thermo_style custom step temp pe vol v_max_n

thermo ${N}  # Print the thermo information every 100 steps
thermo 100  

# Reset the npt fix at a lower temperature (below freezing)
fix 1  all npt temp  ${temp} ${temp}  0.1  iso  5.68  5.68  0.5  mtk yes tchain  5  pchain  5
fix 1  all npt temp  1 ${temp}  0.1  iso  5.68  5.68  0.5  mtk yes tchain  5  pchain  5
fix 1  all npt temp  1 1  0.1  iso  5.68  5.68  0.5  mtk yes tchain  5  pchain  5

dump dmp2 all dcd ${N} traj_${rand}.dcd
dump dmp2 all dcd 100 traj_${rand}.dcd
dump dmp2 all dcd 100 traj_462431.dcd


# fix rnuntil all halt ${N} v_max_n >= 3980 error soft message no   # Stop when solidified


run 100000 # 5000000  # Run for this many steps
Neighbor list info ...
  update every 1 steps, delay 10 steps, check yes
  max neighbors/atom: 2000, page size: 100000
  master list distance cutoff = 3.8
  ghost atom cutoff = 3.8
  binsize = 1.9, bins = 9 9 9
  4 neighbor lists, perpetual/occasional/extra = 1 3 0
  (1) pair lj/cut, perpetual
      attributes: half, newton on
      pair build: half/bin/atomonly/newton
      stencil: half/bin/3d
      bin: standard
  (2) compute orientorder/atom, occasional
      attributes: full, newton on
      pair build: full/bin/atomonly
      stencil: full/bin/3d
      bin: standard
  (3) compute coord/atom, occasional
      attributes: full, newton on
      pair build: full/bin/atomonly
      stencil: full/bin/3d
      bin: standard
  (4) compute cluster/atom, occasional
      attributes: full, newton on
      pair build: full/bin/atomonly
      stencil: full/bin/3d
      bin: standard
Per MPI rank memory allocation (min/avg/max) = 9.438 | 9.443 | 9.449 Mbytes
Step Temp PotEng Volume v_max_n 
    4000    1.0010725   -6.2228881         4162            7 
    4100   0.98960002   -6.2527487    4159.2678            5 
    4200    1.0013221   -6.2780193    4156.1604            9 
    4300   0.98673776   -6.2828458    4156.9737            7 
    4400    1.0205791   -6.2768311    4144.7785            9 
    4500   0.99801529   -6.2553832    4161.8789            7 
    4600    1.0051004    -6.255284    4158.3561            5 
    4700    1.0076833   -6.2752409     4159.642            3 
    4800   0.98089919   -6.2568456    4164.6405            3 
    4900   0.98258128   -6.2867597    4151.0865            4 
    5000    1.0110737   -6.2828316    4172.9761            4 
    5100    1.0001122   -6.2547184    4167.0744            7 
    5200   0.98834517    -6.293252    4152.8422            4 
    5300   0.98469073   -6.2711927     4164.255            9 
    5400    1.0032608   -6.2854677    4174.5928            3 
    5500   0.99534712   -6.3060038    4166.4368            4 
    5600   0.99885917   -6.3182908    4168.4593            6 
    5700    1.0166126   -6.2971719    4169.5772            3 
    5800   0.99861287   -6.2737187    4151.3813            6 
    5900   0.99461525   -6.2934802    4149.7047            7 
    6000   0.98779765   -6.3114355    4147.4168            6 
    6100   0.99532679   -6.3231619    4143.4748            6 
    6200     0.997382   -6.2918486    4154.5507            3 
    6300    1.0031283   -6.3130799    4153.4646            9 
    6400   0.98306216   -6.3103237    4140.8931            8 
    6500    1.0106151   -6.2878626    4150.1404            6 
    6600    1.0043098   -6.2879001    4148.6247            6 
    6700   0.97713462   -6.2959577    4151.9892            5 
    6800    1.0057348    -6.291751    4169.0098            7 
    6900   0.99530854   -6.2658391    4164.3629           11 
    7000    1.0003861   -6.3106787    4132.3497           15 
    7100    1.0027336   -6.2869065    4134.3466           13 
    7200    1.0006583   -6.2748897    4140.7547           20 
    7300    1.0250379   -6.2605622    4152.6636           19 
    7400    0.9918104   -6.2432282    4159.8186           23 
    7500   0.98832954    -6.275076    4151.5043           10 
    7600    1.0073117   -6.2958081     4143.903            7 
    7700    0.9944836   -6.3293025    4138.0746            5 
    7800    1.0020731   -6.2988929    4145.9506            4 
    7900    1.0044673   -6.2801608    4146.5438           16 
    8000    1.0173598   -6.2393975    4151.1878           10 
    8100    1.0001908   -6.2336612     4145.079           14 
    8200    1.0249634   -6.2958673    4145.1828            5 
    8300   0.99955743   -6.2963116    4136.7219            4 
    8400   0.98263515   -6.2762152    4137.1896            6 
    8500    1.0054037   -6.2798172    4146.4789            6 
    8600   0.99001757   -6.2990684    4147.6705           10 
    8700    0.9931228   -6.2908273    4148.2671            2 
    8800     1.015314   -6.2789742     4145.475            5 
    8900    1.0085538   -6.2870994    4135.6793           12 
    9000     1.016558   -6.3031718    4135.2518            8 
    9100   0.98807815   -6.2834545    4145.9386            6 
    9200    1.0136595   -6.2920467    4158.6786            8 
    9300   0.99765217   -6.3138299    4149.8917            5 
    9400   0.97960426   -6.2951544    4143.6502            7 
    9500    1.0129045   -6.2874951    4154.4417            9 
    9600   0.98970034   -6.2803035    4147.1867            4 
    9700   0.99317457   -6.2764662    4145.4312           11 
    9800   0.99613219   -6.2769905    4158.7076            8 
    9900   0.98896666    -6.241326    4157.9314            8 
   10000   0.99650635   -6.2584858    4141.2884            6 
   10100    0.9973623   -6.2362278    4134.4846            5 
   10200    1.0040142    -6.244666    4138.6052            5 
   10300    1.0044923   -6.2494162    4140.4878            3 
   10400    1.0018116     -6.26359    4137.8077            4 
   10500   0.98566521    -6.265516    4135.7617            5 
   10600    1.0084032   -6.2578597    4149.5343            4 
   10700   0.99560977   -6.2806679    4154.0265            4 
   10800    1.0059991   -6.2666459    4149.6518            3 
   10900    0.9993404   -6.3068363    4153.7947            5 
   11000   0.98504591   -6.2907401    4162.7236            5 
   11100   0.98942705   -6.2676998    4176.1884            4 
   11200   0.99321635   -6.2548515    4170.1006            7 
   11300   0.99694072   -6.2918116    4156.1294            6 
   11400   0.99731079   -6.2914255    4152.0794            8 
   11500    1.0141666   -6.2777092    4143.4879            6 
   11600   0.99456592   -6.2955982    4134.6573            4 
   11700   0.98274797   -6.2611238    4133.5338            6 
   11800    1.0127593   -6.2613819    4134.5588            6 
   11900    1.0151713   -6.2921565    4134.1822            5 
   12000   0.99822745   -6.2792012     4138.765            5 
   12100    1.0208051   -6.2717411    4155.2252            8 
   12200    1.0066206   -6.2764412    4157.2047           13 
   12300   0.99367666   -6.2810614    4157.6755            9 
   12400    1.0123871   -6.2540661    4167.5941            9 
   12500    0.9857447    -6.245895    4162.3726            3 
   12600   0.99827503   -6.2706273    4150.5113           11 
   12700    0.9981421   -6.2964526    4153.1008            8 
   12800    1.0142501    -6.262081    4152.3468            4 
   12900    1.0105628   -6.2598822    4144.2673            5 
   13000    1.0093919   -6.2876764    4136.3238            8 
   13100    1.0183416   -6.2713226    4148.7321            4 
   13200   0.99650053   -6.2672363     4150.332            6 
   13300    0.9916343   -6.2685396    4140.5875            3 
   13400   0.98923512   -6.2921179    4146.3272            7 
   13500     1.003466   -6.2824131    4153.7889            5 
   13600     1.012254   -6.2594739    4153.6924            7 
   13700    1.0090579   -6.2571867    4144.6707            3 
   13800   0.99599368   -6.2825791    4138.8888            6 
   13900    1.0069866   -6.2651255    4152.0758            5 
   14000    1.0008933   -6.2674239     4148.797            9 
   14100   0.99792899   -6.3041647    4148.6698           10 
   14200    1.0042869   -6.3056265    4149.9279           10 
   14300   0.98120157   -6.2849916    4155.8765            5 
   14400   0.99833565   -6.2718772    4160.2349           10 
   14500    0.9771605    -6.303759    4145.6265            6 
   14600   0.99959588   -6.3032533    4154.1991            8 
   14700    1.0020183   -6.2736331    4158.2268            5 
   14800    1.0003391   -6.2598178    4163.1187            4 
   14900   0.97540733   -6.2665633    4154.3009            4 
   15000   0.98099527    -6.268149    4154.9396            5 
   15100   0.99643052   -6.2568261    4167.6238            5 
   15200   0.99107143    -6.271549     4176.846           10 
   15300    1.0059672   -6.2304737    4189.1404            5 
   15400    1.0135372   -6.2468283     4177.227            7 
   15500    1.0051781    -6.269175    4154.3112           12 
   15600    1.0092968   -6.2592635    4147.6703            4 
   15700   0.98100778    -6.273594    4142.6129            4 
   15800    1.0040398   -6.2951501    4152.9975            5 
   15900   0.99546757   -6.2592589     4150.933            5 
   16000   0.98317666   -6.2856185    4135.6337            8 
   16100    1.0142743   -6.2968529    4146.4251            6 
   16200   0.99965147   -6.2835942    4153.0328            8 
   16300   0.98074491   -6.2844131     4158.805           11 
   16400    1.0105749   -6.2943961    4151.8725           12 
   16500    1.0122999    -6.282918    4151.1752            9 
   16600   0.98806322   -6.2684763    4146.2231            6 
   16700    1.0112155   -6.2962421    4143.1515            3 
   16800   0.98916981   -6.2507207    4156.8904            5 
   16900    1.0088172   -6.2494083    4170.9152            7 
   17000   0.99687858   -6.2710326    4150.9067            7 
   17100   0.97410674    -6.257424    4142.4024            7 
   17200    1.0243959   -6.2836906    4151.2625            6 
   17300   0.99551517   -6.2684687    4150.3974            6 
   17400   0.98818847   -6.2858925     4149.298            8 
   17500    1.0152129   -6.2701486     4156.118           10 
   17600   0.99009346    -6.265828    4154.9923            9 
   17700   0.99550926   -6.2729212    4145.2929            5 
   17800     1.008325   -6.2643091    4147.9805            7 
   17900    1.0090857   -6.2619827    4165.5715           10 
   18000    1.0002541   -6.2646124    4164.4471            6 
   18100   0.98872889   -6.2724436    4151.4711            2 
   18200   0.99628945   -6.2473677    4159.2612            6 
   18300    1.0093658   -6.2413213    4169.8777           12 
   18400   0.99149686   -6.2638974    4150.4928            9 
   18500      1.01169   -6.3086903    4155.0513            6 
   18600   0.98856841   -6.3073575    4152.6949            8 
   18700    1.0001361   -6.2881627    4166.2793            7 
   18800   0.99491013   -6.2584814     4169.526            7 
   18900    1.0018928   -6.2591257    4155.1001            4 
   19000   0.99579858   -6.2723587    4152.3589            4 
   19100    1.0132354   -6.2408745    4171.7003            3 
   19200    1.0079836    -6.243539    4166.4233            4 
   19300   0.99670028   -6.2757452    4163.1448           13 
   19400   0.99163217     -6.27562    4167.0714            7 
   19500   0.99868852   -6.2467662    4173.5907            6 
   19600   0.99281039   -6.2596021    4154.1532            8 
   19700    1.0080668   -6.2850313    4142.7773           15 
   19800     1.011646   -6.2532662    4148.0022           15 
   19900    0.9968523      -6.2543    4158.0217            5 
   20000    1.0036065   -6.2367276    4148.6935            5 
   20100   0.97823993   -6.2458619    4149.8712            7 
   20200    1.0101389   -6.2710672    4153.6782            6 
   20300    1.0032169   -6.2128493    4157.8173            5 
   20400    1.0096486   -6.2530468    4142.3748            4 
   20500    1.0074023   -6.2880549    4144.9539            5 
   20600    1.0031587   -6.2631081    4146.9038            4 
   20700    1.0238598   -6.2536669    4153.2273            3 
   20800   0.99210565   -6.2613568    4145.8004            4 
   20900     0.999214   -6.2385853    4156.8545           12 
   21000    1.0068746   -6.2524655    4146.6474            4 
   21100    1.0073274   -6.2621854    4135.0428            3 
   21200    1.0138135   -6.2774692    4132.4001            8 
   21300    1.0316037   -6.2587528     4152.187            3 
   21400    1.0036915   -6.2391499    4146.7107            5 
   21500    1.0014134   -6.2780446    4144.1973            5 
   21600   0.99218933   -6.2758574    4146.7679            4 
   21700   0.99755309   -6.2661041    4146.1097            7 
   21800   0.98742637   -6.2721905    4134.2328            5 
   21900     1.011258   -6.2527138    4146.7553            4 
   22000   0.98955672    -6.265711    4138.7631            6 
   22100    1.0102938   -6.2784667    4136.2983            7 
   22200     1.007937    -6.257273    4150.4569           10 
   22300    1.0031078   -6.2673154     4148.206            5 
   22400    1.0027421   -6.2699096    4143.5871            5 
   22500    1.0248273   -6.2783377    4142.1721            5 
   22600    1.0223124   -6.2480818    4150.8653            4 
   22700   0.99648804   -6.2614889    4144.7677           11 
   22800    0.9939652   -6.2698606    4139.7523            9 
   22900   0.99452539   -6.3069911    4140.5611           14 
   23000   0.99442496   -6.2740462    4156.0518           10 
   23100   0.98746991   -6.2899819    4159.2013            6 
   23200   0.97754011   -6.2841603    4156.8944           11 
   23300   0.99045771   -6.2763735    4173.5789            8 
   23400   0.99127848   -6.2328791    4166.7697            7 
   23500    1.0370402   -6.2596926    4168.6187            4 
   23600    1.0017693   -6.2381816    4164.5271            6 
   23700   0.98823506   -6.2578923    4162.9057            6 
   23800     1.005081    -6.267125    4160.7986            9 
   23900   0.98229568   -6.2818253    4149.8238            6 
   24000   0.99441708   -6.2595034    4159.6258            5 
   24100    1.0082379    -6.261408    4155.3667            6 
   24200   0.99745702    -6.264571    4149.7087           11 
   24300    1.0291537   -6.2828802    4142.9912            9 
   24400    1.0012057    -6.274239     4137.521            8 
   24500     1.011029   -6.2443359    4153.9264            6 
   24600    1.0265178   -6.2606941    4145.4286            9 
   24700   0.99019121     -6.25907    4137.4457            7 
   24800    1.0128501   -6.2513397    4157.2199            9 
   24900    1.0071958    -6.229902    4155.0359           12 
   25000     1.008468   -6.2625841     4139.806            3 
   25100    0.9920159   -6.2554366     4139.083            4 
   25200   0.99610853   -6.2379104    4154.1583            5 
   25300    1.0005911   -6.2523853    4160.5228           11 
   25400   0.99683153   -6.2600107    4149.0636            3 
   25500     0.993128   -6.3024444    4148.3969            6 
   25600     1.005351   -6.2856495    4160.8137            3 
   25700   0.98690655   -6.2774264    4166.4327            3 
   25800    1.0037665   -6.2515941    4170.2139            8 
   25900    1.0178623   -6.2527173     4168.386            4 
   26000   0.98509537    -6.230065    4166.5791            8 
   26100    1.0035457   -6.2398202    4162.5323           11 
   26200    1.0055613    -6.294238    4151.8614            5 
   26300   0.96963699   -6.2725801    4146.7207            6 
   26400   0.99833723   -6.2575541    4156.4681            5 
   26500    1.0171423   -6.2665946    4164.1265            4 
   26600    1.0016204   -6.2602379    4172.3421            4 
   26700    1.0096294   -6.2667359    4151.3067            6 
   26800   0.98333795    -6.270296    4133.2513            2 
   26900    1.0263907   -6.2827975    4131.1672           11 
   27000    1.0118956   -6.2703108    4136.7647            5 
   27100    1.0146546   -6.2697424     4145.047           10 
   27200    1.0023359   -6.2269071    4146.5161            7 
   27300    1.0388048   -6.2180922    4157.4336            5 
   27400    1.0101633   -6.2108413     4164.201            6 
   27500     1.005619   -6.2542814      4149.58            4 
   27600   0.99828528   -6.2752314    4150.2807            5 
   27700    1.0021073   -6.2305273    4173.5457            3 
   27800    1.0145223   -6.2506386    4165.4961            5 
   27900   0.99964097   -6.2598625    4160.9499            9 
   28000     0.995729   -6.2666209    4159.5527           12 
   28100   0.97069255    -6.286666    4156.9632            7 
   28200   0.99806145   -6.2856946    4166.3994            4 
   28300   0.99015978   -6.2761197    4151.7811            7 
   28400    1.0132892   -6.3127521    4157.7151            5 
   28500   0.98329066   -6.2975467    4158.9633            4 
   28600   0.99565195   -6.3092473    4162.2023            6 
   28700   0.99066769   -6.2800625    4170.5326            4 
   28800   0.99491101   -6.2502198    4179.8167            4 
   28900   0.99062055   -6.2355615    4181.3335            4 
   29000    1.0009188   -6.2529222    4184.9023            9 
   29100   0.98799409    -6.235015    4172.4086           10 
   29200    1.0086938   -6.2977029    4161.6499            9 
   29300   0.99226899   -6.3223997    4152.0742           13 
   29400   0.99060229   -6.2947617    4166.8382           11 
   29500   0.98649171   -6.2505485    4169.1002            8 
   29600   0.98433338   -6.2389386    4179.8686            4 
   29700    1.0001362   -6.2662931    4177.5306            3 
   29800   0.98149115   -6.2782759    4167.6686            5 
   29900    0.9990535   -6.2915429    4166.3035            5 
   30000   0.98774183   -6.2853107    4167.9716            5 
   30100     1.001547   -6.2595772    4170.4617            5 
   30200    1.0249034   -6.2436745    4156.4478            6 
   30300    1.0002645   -6.2663199    4149.1648            5 
   30400   0.99996579   -6.2738702    4136.3631            5 
   30500    0.9776542   -6.2892442    4140.8864            4 
   30600    1.0090141   -6.2928293    4152.2948            3 
   30700   0.97637788    -6.286861    4163.7359            4 
   30800   0.99812333   -6.2828206    4165.2029            7 
   30900    1.0089434   -6.2677843    4162.6256            5 
   31000    1.0007129    -6.264613    4147.5338            6 
   31100    1.0080505   -6.2763469    4147.2855            4 
   31200    1.0159466   -6.2970578    4145.1298            5 
   31300     1.002301   -6.2940141     4143.778            7 
   31400    1.0109338   -6.2787128    4161.6832            5 
   31500    1.0074933   -6.2535006    4171.5582            6 
   31600    1.0137403   -6.2273134    4168.6917            4 
   31700   0.97969956   -6.2369017    4164.5251            4 
   31800   0.99264639   -6.2716794    4153.8017            4 
   31900   0.96972127   -6.2522404    4148.5314           10 
   32000    1.0070342   -6.2780773    4158.5389            8 
   32100    1.0072585   -6.2427134    4155.3991           11 
   32200   0.99628417    -6.268241    4138.3566            7 
   32300   0.98203346   -6.2850579    4132.4277            6 
   32400    1.0039083   -6.2745809     4144.551            6 
   32500    1.0115136   -6.2496909    4149.7262            6 
   32600    1.0007035   -6.2724948    4152.4634            7 
   32700   0.99636162   -6.3127993    4146.1566           10 
   32800   0.99856498   -6.2930125    4146.4877            7 
   32900    1.0058124   -6.2546758    4154.7199            3 
   33000    1.0184299    -6.276166    4147.5903            2 
   33100   0.99261024   -6.2623137    4148.3584           12 
   33200    1.0387697   -6.2724075    4157.1018           13 
   33300   0.99270479   -6.2365403    4150.0646           10 
   33400    1.0038536   -6.2699205    4145.2443            5 
   33500   0.99785892   -6.3141361    4145.1163            4 
   33600    0.9962073   -6.2832983    4162.7349            8 
   33700    1.0041668   -6.3047972    4159.9833            5 
   33800   0.98698591   -6.2991255    4158.0641            5 
   33900    1.0088435   -6.2701478    4152.0909            8 
   34000   0.98509758   -6.2724719    4141.0533            4 
   34100   0.99827674   -6.2888747     4155.148            3 
   34200   0.97810331   -6.2499139    4167.9223            3 
   34300    1.0178599   -6.2903777    4169.4077            6 
   34400   0.98455551   -6.2612386    4153.4169            5 
   34500    1.0052602   -6.2630479    4145.5413            6 
   34600    1.0013027   -6.2802491    4152.9205            4 
   34700      1.01441   -6.2616081    4169.5475            4 
   34800    1.0073882   -6.2848408    4165.1094            3 
   34900   0.96710105   -6.2556646    4159.4566            3 
   35000    1.0036962   -6.2655123    4155.6814            7 
   35100    1.0053723   -6.2700127    4159.3572            7 
   35200   0.99074888   -6.2935149    4164.0655            9 
   35300    1.0064441   -6.2786983    4160.0364            6 
   35400    1.0203155   -6.2781891    4160.2998            7 
   35500    1.0077792   -6.2950469    4149.1978            2 
   35600    1.0025195   -6.2925343    4155.9608            4 
   35700    0.9925026   -6.2885339    4171.6159            8 
   35800    0.9917704   -6.2895167    4178.2711            7 
   35900   0.98238538   -6.3336457    4153.2027            6 
   36000   0.98547833   -6.2984171    4153.3003            5 
   36100   0.98199021   -6.2634581    4146.2277            6 
   36200    1.0187855   -6.3021284    4143.3434           12 
   36300     1.003834   -6.2919411    4128.8055            4 
   36400    1.0013721   -6.2955038    4135.9752            6 
   36500    1.0078853   -6.2987779     4141.852            9 
   36600   0.98849237   -6.3051769    4153.1784           10 
   36700   0.99687168   -6.2848613    4153.2693           11 
   36800    1.0120796   -6.2620313    4171.1308            8 
   36900     1.002469   -6.2562245    4168.7771           12 
   37000   0.99363366   -6.2690192    4145.6446            7 
   37100     1.014725   -6.2832845    4150.0353            5 
   37200    1.0307595   -6.2634533    4153.9775            5 
   37300   0.99145324    -6.235056    4133.9796           10 
   37400    1.0054692   -6.2599748    4136.0763            8 
   37500   0.99410151   -6.2847725    4143.7509            6 
   37600   0.98326704   -6.2833567    4129.8025            7 
   37700    0.9942854   -6.2670298    4158.4911           10 
   37800   0.99647751   -6.2486503    4159.0664            6 
   37900   0.99054211   -6.2767055    4148.7726           15 
   38000    1.0142011   -6.2927833    4148.5693           14 
   38100    1.0030239   -6.2884777    4153.5095            7 
   38200   0.99703394   -6.3160994    4142.7995            4 
   38300    1.0069788   -6.2751179    4162.2251            6 
   38400   0.97913766   -6.2634739    4166.3198            7 
   38500   0.99990252   -6.2523153    4161.3849            6 
   38600    1.0005875   -6.2424615    4163.6496            5 
   38700    1.0002086   -6.2605009    4143.1812            9 
   38800    1.0008532   -6.2851127    4137.5151            8 
   38900   0.98951249   -6.2446527    4148.6122            7 
   39000     1.018037   -6.2872053    4157.1246            4 
   39100   0.98725329   -6.2913015     4143.941            3 
   39200   0.99990852   -6.2585301    4151.0075            4 
   39300    1.0110609   -6.2557754    4149.5784            5 
   39400   0.99729376   -6.2740942      4145.96            3 
   39500   0.97284471    -6.283014    4135.4955            2 
   39600    1.0122745   -6.2877143    4150.9455            5 
   39700    1.0196375   -6.2734175    4142.3962            8 
   39800   0.99613171   -6.2579679    4140.1372            9 
   39900     1.009287   -6.2479685    4145.5243            9 
   40000    1.0302297   -6.2518317      4148.03            6 
   40100   0.99759448   -6.2389752    4160.3586           16 
   40200   0.98373071    -6.255243    4153.5106            9 
   40300    1.0164713   -6.2628992     4158.486           11 
   40400   0.99084601   -6.2450437    4170.1266           12 
   40500     1.005926   -6.2662636    4159.3849           12 
   40600    1.0076529   -6.2971364    4140.9997           21 
   40700    1.0068036   -6.3039574     4144.851           22 
   40800    1.0208182   -6.2995967    4148.7302           26 
   40900    1.0045922   -6.2550924     4159.402           10 
   41000    1.0077284    -6.235087    4159.6417            6 
   41100   0.99834763   -6.2718249    4143.0615           15 
   41200   0.97498542   -6.2689825    4143.9389            9 
   41300    1.0173863   -6.2781837    4151.4684            7 
   41400   0.98606004   -6.2878828    4149.6952            6 
   41500     1.015474    -6.310523    4147.8202           10 
   41600    1.0107813   -6.2739616     4138.139            6 
   41700   0.98292709   -6.2899833    4130.8166            8 
   41800      1.01001   -6.2912446    4130.8281            9 
   41900    1.0202234   -6.2772434     4149.675            8 
   42000   0.99192079   -6.2329925    4167.7498            7 
   42100   0.99659617   -6.2592115    4156.2233            8 
   42200    0.9977089   -6.2663512    4148.2911            7 
   42300    1.0119782   -6.2663438    4154.3797           10 
   42400    1.0006005   -6.2398454    4172.8349            4 
   42500    1.0067274   -6.2603239    4174.9852            4 
   42600   0.99469479   -6.2897946    4152.4225            4 
   42700   0.98743221   -6.2909201    4143.8849            9 
   42800    1.0075098    -6.269827    4151.1143            7 
   42900    1.0076221   -6.2837756    4147.5163            4 
   43000   0.99525497   -6.2815861    4147.0764            8 
   43100   0.98194762   -6.2476136    4155.3271            7 
   43200    1.0051982     -6.24695    4167.5173           13 
   43300   0.97483498   -6.2619755    4160.7697            6 
   43400    1.0043621   -6.2670796    4157.9739            5 
   43500   0.97739832   -6.2760477    4143.0033           11 
   43600     1.004412   -6.2907707    4150.1181           10 
   43700   0.99489953   -6.2833875    4142.9628            4 
   43800    1.0146023   -6.2726751    4129.8404            8 
   43900    1.0150475   -6.2356508    4155.8235            5 
   44000    1.0149581   -6.2612017    4160.8523            4 
   44100    1.0124855   -6.2953982    4152.8166            4 
   44200   0.98546087   -6.2890759    4147.5501            8 
   44300    1.0261247   -6.3017822    4151.5263            4 
   44400   0.99174952   -6.2998407    4140.0018            6 
   44500    0.9832405   -6.2861188    4152.7083            5 
   44600   0.99715068   -6.2761204    4144.0496            4 
   44700    1.0086364   -6.2877036    4149.6771            4 
   44800    1.0188002   -6.2777622     4149.803            4 
   44900   0.98747339   -6.2660718    4133.6536            5 
   45000   0.99260237   -6.2591967    4151.2655            3 
   45100   0.98660085   -6.2544857    4155.9839            7 
   45200    1.0085092   -6.2809128     4151.323            6 
   45300   0.99661688    -6.306607    4138.7489           12 
   45400    0.9988382   -6.2767448    4140.6895            5 
   45500    1.0139566   -6.2638305    4136.9353            9 
   45600     1.012867   -6.3101487    4137.2448           10 
   45700    1.0043116   -6.3005924    4139.2698            8 
   45800   0.98495984   -6.2682548    4153.3803            9 
   45900    1.0105715   -6.2791775    4141.1922            7 
   46000   0.99657942   -6.2862727    4143.0263            3 
   46100    1.0193594   -6.2612809      4157.77            7 
   46200   0.99236353   -6.2303555    4166.3591            5 
   46300   0.99856558   -6.2696732    4151.9501            6 
   46400    1.0139451   -6.2846783    4141.3054            8 
   46500   0.99101084   -6.3058304    4145.1657           12 
   46600   0.98997333   -6.2847508    4151.7398            7 
   46700   0.99504964   -6.2846544    4151.8336            6 
   46800   0.99009425   -6.3053659    4144.0589           10 
   46900    1.0067929   -6.3068906    4142.5545           11 
   47000   0.97974268   -6.2723946    4143.1548           12 
   47100    1.0248791   -6.2884724    4153.3357           11 
   47200   0.99817378   -6.2773232    4151.5241            4 
   47300   0.99708065   -6.2389466    4156.2686            9 
   47400     1.024843    -6.248566    4166.4619           17 
   47500   0.98778687   -6.2639229    4156.2774            7 
   47600   0.98168558   -6.2791986    4157.8991            4 
   47700   0.98307028   -6.2969566    4150.7322           12 
   47800   0.99069422   -6.2688774    4159.3668           10 
   47900    1.0079571   -6.2810423    4150.5434            8 
   48000   0.99349357    -6.299651    4135.2385            9 
   48100    1.0060585   -6.2868344    4137.0078            3 
   48200    1.0060616   -6.3108971    4145.5717            6 
   48300    1.0024822   -6.2752264      4138.68            5 
   48400    1.0079895   -6.2534085    4145.7404            4 
   48500   0.98977115   -6.2766659    4140.7899            4 
   48600   0.99605156   -6.2637899    4145.9581            6 
   48700    1.0034067   -6.2405708    4148.5185            6 
   48800   0.99734188    -6.270045    4154.8331           15 
   48900    1.0112431   -6.2484447     4161.803            6 
   49000   0.98647724    -6.250851     4156.158            5 
   49100   0.97121798   -6.2685023    4142.0305            4 
   49200    1.0064837   -6.2771792    4163.3422            6 
   49300   0.98338839   -6.2634599    4159.6942           11 
   49400    1.0100347    -6.275725    4157.2458            8 
   49500    1.0142587   -6.2681306    4155.6657           12 
   49600   0.99694356   -6.2804426    4148.7657            5 
   49700    1.0126902   -6.2892646    4138.8482           12 
   49800    1.0074426   -6.2677486     4130.343           15 
   49900     1.013258   -6.2719206    4131.7726            8 
   50000     1.019624   -6.2464534      4151.59            9 
   50100   0.99162238   -6.2505314    4157.3673            5 
   50200    1.0027968   -6.2849885    4147.0752            8 
   50300    1.0068478   -6.3000218    4147.8238           11 
   50400   0.99738024   -6.2959836    4152.2001           12 
   50500    1.0206554   -6.2832119    4158.2672            9 
   50600   0.97406605   -6.2667455    4163.7428            9 
   50700   0.99288362   -6.2547764     4165.276            3 
   50800    1.0061898   -6.2575374    4160.4772            7 
   50900   0.97667978   -6.2583181    4144.7642            7 
   51000   0.98777966    -6.249526    4137.5507            5 
   51100    1.0292691   -6.2765562    4142.9337            9 
   51200    1.0083524   -6.2701509    4137.5643            6 
   51300   0.99159026   -6.2704653    4139.3992            3 
   51400    1.0157791    -6.279697    4136.0353           10 
   51500     1.008435   -6.2685819    4132.8431            6 
   51600   0.99573898   -6.2982432    4145.0743            8 
   51700   0.99468883   -6.2780625    4152.3251            6 
   51800   0.99595106   -6.3029316    4148.2028            6 
   51900   0.98576669   -6.3024355    4137.6471            4 
   52000   0.99587879   -6.2735082    4154.1093            5 
   52100   0.98821922   -6.2457639    4156.4045            3 
   52200    1.0106469   -6.2298573    4164.8657            4 
   52300    1.0131886   -6.2996721    4160.2793            7 
   52400   0.99151762   -6.2958544    4149.2327           10 
   52500   0.98728691   -6.2528035    4161.0703           11 
   52600    1.0004044   -6.2755382    4159.7708            4 
   52700   0.98522796   -6.2896963     4150.913            4 
   52800      1.00246   -6.2758652    4155.1809            7 
   52900   0.98521944   -6.2598887    4156.4317            5 
   53000    1.0189726   -6.2867619     4147.454            7 
   53100   0.99304585   -6.2902509    4137.9369           10 
   53200    1.0259313   -6.2943759    4135.2674            6 
   53300    1.0074945   -6.2506816    4149.7964            6 
   53400    1.0028283   -6.2891065    4136.1544            5 
   53500   0.98477369   -6.2649361    4127.1908            3 
   53600     1.018857    -6.290032    4131.7113           10 
   53700    1.0258949   -6.2579427    4140.8188            3 
   53800    1.0124463   -6.2790993     4152.474            4 
   53900   0.98379068   -6.2660899     4157.551            4 
   54000   0.99780995   -6.2749956    4145.2462            5 
   54100    1.0061285   -6.2814139    4146.8209            3 
   54200    1.0369158   -6.2936205    4159.7207            9 
   54300   0.98905986   -6.2806804    4147.8611            4 
   54400     1.007176   -6.2660429    4149.4828            5 
   54500    1.0040426   -6.2657716    4142.8182            8 
   54600    1.0076694   -6.2774211    4134.7634            5 
   54700    1.0283703   -6.2661473    4143.2017            5 
   54800    1.0228409   -6.2738454    4154.2376            5 
   54900   0.98947898   -6.2572545    4149.4729            8 
   55000    1.0051412   -6.2868756    4148.1512           10 
   55100   0.99163336   -6.2896235    4147.0086           10 
   55200   0.98831898   -6.2998575    4147.5076            5 
   55300   0.98209226   -6.2926143    4150.4651           17 
   55400    0.9781452   -6.2546217     4144.659            4 
   55500    1.0306029   -6.2922528    4152.2116            4 
   55600    1.0054989   -6.2777045    4151.1006            6 
   55700   0.99712726   -6.2989853    4140.8239            8 
   55800   0.99293277   -6.3403235     4137.437            5 
   55900   0.98769658   -6.3003958    4154.8545            4 
   56000   0.98143355   -6.3029264    4157.4377            9 
   56100    1.0095499   -6.2906628     4155.374            5 
   56200    0.9928288   -6.2745251    4161.4356            4 
   56300    1.0092025   -6.2923414    4155.3813            5 
   56400   0.99555441   -6.2830725     4150.691            7 
   56500    1.0070569   -6.2786727     4150.798           11 
   56600    1.0269113   -6.2888582    4167.2272            5 
   56700    0.9785185   -6.2774663    4162.5174            7 
   56800   0.99131676   -6.2668867    4166.5408            4 
   56900    1.0272999   -6.2608114    4169.5381           13 
   57000    0.9952544   -6.2681479    4150.1939           12 
   57100   0.97476621   -6.2708895    4150.9669            9 
   57200    1.0046999   -6.2720856    4172.4375           13 
   57300   0.98212348   -6.2545177     4176.208           15 
   57400    1.0204793     -6.26037    4182.0467            9 
   57500   0.99291657   -6.2517456    4176.9535            7 
   57600   0.99450324   -6.2412246    4167.8699            9 
   57700   0.98468228   -6.2618563    4146.9029            5 
   57800    1.0019125   -6.2648004    4147.6701            5 
   57900    1.0306149   -6.2736038    4149.9698            7 
   58000    0.9960364   -6.2642404    4138.7858            8 
   58100   0.98233743   -6.2710868    4142.6908            9 
   58200    1.0128027   -6.2733009    4166.1549           16 
   58300   0.98942943   -6.2796362    4171.0896            5 
   58400   0.98841185   -6.2710834    4170.6128            7 
   58500    1.0032132    -6.257077     4175.441            7 
   58600   0.98603915   -6.2696902    4167.7953            8 
   58700   0.97386182   -6.2598287    4146.9179           10 
   58800    1.0045217   -6.2660201    4144.6044            7 
   58900    1.0137946   -6.2664995    4154.8582            3 
   59000    1.0034823   -6.2575031    4145.2233            5 
   59100    1.0083804   -6.2871824    4139.9112            8 
   59200   0.99164749   -6.2779791    4145.5258            8 
   59300    1.0131588   -6.2565794    4160.1325            3 
   59400   0.99258902   -6.2685977    4154.9461            4 
   59500    1.0089534   -6.2968932    4148.6881            3 
   59600   0.99006229   -6.2955384    4145.9584            6 
   59700   0.98990632   -6.2444223    4165.8113            7 
   59800   0.99811945   -6.2850891    4171.1821            8 
   59900    1.0056785   -6.2852762    4168.4714            8 
   60000   0.97218886   -6.2785263    4163.0111           10 
   60100   0.99438271   -6.2625184    4157.1294           11 
   60200    1.0205672   -6.2903655    4154.0559           23 
   60300   0.98717363   -6.2912158    4140.6593            7 
   60400    1.0123847   -6.2887818    4159.1087           20 
   60500    1.0152517   -6.2662486    4148.9253           24 
   60600    1.0018051   -6.2911215     4145.087           10 
   60700    1.0120504   -6.2986542    4139.2358            7 
   60800    1.0162146   -6.3368604    4129.9364            8 
   60900   0.99634767   -6.2819639    4138.5232            5 
   61000   0.98744404   -6.2846397    4154.2611            6 
   61100   0.99123818   -6.2633998    4160.6999            6 
   61200   0.99038284    -6.287564    4152.6754            6 
   61300   0.97903602   -6.3095268    4149.4312            6 
   61400   0.99359596   -6.2823991    4149.6827            6 
   61500    1.0249278   -6.3013473    4155.0228            7 
   61600   0.99817956    -6.311261    4155.4083            5 
   61700   0.98444067   -6.3253996    4149.3185           14 
   61800    1.0025026   -6.3112035    4141.7762            8 
   61900   0.96525869   -6.2376559    4148.8617           12 
   62000     1.012845   -6.2766828    4153.6179            5 
   62100    0.9983843   -6.3004675     4139.036            4 
   62200   0.99225456   -6.2809246    4139.1787            7 
   62300    1.0020001   -6.2745785    4146.7051            5 
   62400   0.97823836   -6.2784778    4147.5348            6 
   62500   0.99637667   -6.2900136    4134.4796            4 
   62600    1.0031982   -6.2787965     4128.192            8 
   62700    1.0013097   -6.2577465    4129.5903            5 
   62800    1.0061845   -6.2660533    4137.9626            7 
   62900    1.0148373   -6.2527904    4160.1475            8 
   63000   0.99546749    -6.267261     4159.258            5 
   63100   0.98755888   -6.2847831    4152.7812            4 
   63200   0.99527059   -6.3057639    4147.0929            6 
   63300   0.99802969    -6.265047    4147.3764            4 
   63400      1.00567   -6.2725239    4152.6996            3 
   63500    1.0243513   -6.2618587    4141.5264            9 
   63600   0.99409279   -6.2406612    4155.7766            6 
   63700   0.99674251   -6.2373404     4161.489            5 
   63800    1.0077475    -6.278035     4155.997            5 
   63900     1.001606   -6.3075472     4151.856            9 
   64000   0.98929142   -6.3090396    4161.1282           10 
   64100   0.99821029   -6.2834249    4173.4805            4 
   64200   0.98124706   -6.2764362    4156.6762           12 
   64300   0.99734112   -6.3036346    4140.2075            4 
   64400   0.99268302   -6.2777391    4137.2977           12 
   64500    1.0276141   -6.2802582    4136.1203            7 
   64600     1.003884   -6.2617091    4130.2992           10 
   64700    1.0257668   -6.2493783    4133.1161           18 
   64800   0.99220512   -6.2353144     4146.996           16 
   64900    1.0024586   -6.2814018    4145.2006            8 
   65000    1.0191227   -6.2592788    4154.6025           11 
   65100   0.98968765   -6.2565271     4159.789            7 
   65200    1.0015181   -6.2992509    4156.6015            6 
   65300    1.0112823    -6.321136    4164.3184           13 
   65400    1.0153549   -6.2976488    4165.1843            5 
   65500   0.98724266   -6.2710473    4150.4497           16 
   65600   0.99802303   -6.2881098    4142.0922           21 
   65700    1.0114545   -6.2570064    4153.3423           17 
   65800    1.0199643   -6.2644331    4143.8045           21 
   65900   0.99603122   -6.2616012    4139.5181           12 
   66000   0.99614207   -6.2788597    4144.1995            9 
   66100   0.99590359    -6.256171    4150.3734           23 
   66200    1.0187267   -6.2680413    4164.5165           21 
   66300   0.99622797   -6.2507241    4154.4369           17 
   66400   0.99098236   -6.2669561    4150.8034           19 
   66500   0.99861352    -6.297098    4154.8862           20 
   66600   0.97522399   -6.2917829    4145.3955            6 
   66700     1.008527   -6.2886349    4154.2855            7 
   66800    1.0080839   -6.3014141     4143.688            5 
   66900   0.99425853   -6.2888426    4138.9882           10 
   67000    1.0033831   -6.2774692    4135.5106           13 
   67100    1.0102409   -6.3100501    4134.3416            8 
   67200   0.99538046   -6.2853679    4136.7451           10 
   67300   0.99643789   -6.2844248    4131.5318            7 
   67400    1.0002596   -6.2970718    4129.9903            6 
   67500     0.992388   -6.2850411    4144.6085            6 
   67600   0.99303288   -6.2605913    4153.6883            8 
   67700   0.98558952   -6.2523145    4166.3578            4 
   67800     1.021014   -6.2653556    4169.3296            7 
   67900    0.9992634   -6.2724935     4151.514            8 
   68000    1.0088479   -6.2733165    4142.6607           10 
   68100    1.0152614   -6.2397984    4160.9392           20 
   68200    1.0047593   -6.2495837    4167.0424           20 
   68300   0.99393111   -6.2677388    4163.7751           17 
   68400   0.99230174    -6.282283    4155.1577           17 
   68500   0.98822673   -6.3098334    4136.4583           20 
   68600    1.0069364   -6.3014462    4154.8847            9 
   68700   0.99872288   -6.2768549    4156.1198            6 
   68800   0.99870463   -6.2602485    4156.3086            9 
   68900    0.9997399   -6.2363034    4162.3106            4 
   69000    1.0005021   -6.2605002    4150.6253            4 
   69100   0.97721037   -6.2529215    4157.4754            5 
   69200     1.007265   -6.2614643    4159.0283            5 
   69300   0.99799153   -6.2911413    4152.8751            4 
   69400    1.0240779   -6.3102889     4152.542            6 
   69500   0.98726608   -6.2498332    4157.9858            5 
   69600    1.0011834   -6.2217328    4166.8303            3 
   69700    1.0006999    -6.248464    4150.2997            5 
   69800    1.0072109   -6.2635165    4142.8119            8 
   69900   0.98935464   -6.2856004    4146.7736            7 
   70000   0.99895811   -6.2767937    4153.4467            9 
   70100    1.0035248   -6.2502076    4159.4912            3 
   70200    1.0060811   -6.2590038    4160.0297            3 
   70300    1.0156122   -6.2377511    4146.9386            5 
   70400    1.0037852   -6.2733145    4154.0637            6 
   70500    1.0095176   -6.2815653    4145.7868            6 
   70600   0.98627147   -6.2596613    4148.3975            3 
   70700     1.009166   -6.2646003    4153.6489            4 
   70800   0.98827921   -6.2507518    4157.5405            4 
   70900   0.98497555   -6.2789254    4145.3484           17 
   71000    1.0114795   -6.2929554    4156.3924            8 
   71100   0.99195465   -6.2630052     4146.555            8 
   71200    1.0082209   -6.2814512    4148.7851            8 
   71300    1.0059893   -6.2679964    4164.9415           13 
   71400    1.0188553   -6.2784026    4160.5566           11 
   71500    1.0063818   -6.2733576    4147.6559           10 
   71600   0.99000882    -6.301653    4148.1558            6 
   71700    1.0098212   -6.2858998    4158.6049            3 
   71800    1.0165219   -6.2751091    4153.1611            6 
   71900   0.99775621   -6.2985204    4139.6629            6 
   72000    1.0172877   -6.2871769    4140.9313            3 
   72100   0.99860208   -6.2594104    4142.7621            6 
   72200     1.033306   -6.2647059    4149.1741            9 
   72300   0.99537368   -6.2560258    4140.8399            9 
   72400    1.0006808   -6.2975781    4149.1129            7 
   72500   0.99713225    -6.255018    4159.0225            6 
   72600    1.0216952   -6.2646131    4169.2513            9 
   72700    1.0074493   -6.2844369     4148.561            8 
   72800    1.0007752   -6.2659178    4146.3885           13 
   72900    1.0067655   -6.2635625      4147.42           28 
   73000   0.99846267   -6.2730091     4135.423           13 
   73100    1.0086716   -6.2499056    4150.0167           16 
   73200    1.0065511   -6.2479892    4161.9035            8 
   73300    1.0151453   -6.3041326    4146.3184            7 
   73400   0.99804957   -6.2945452    4148.5438            8 
   73500    1.0203798    -6.261463    4158.2726            6 
   73600    1.0111974   -6.2583353    4161.5504            5 
   73700   0.98626506   -6.2497301    4154.3823            5 
   73800    1.0089647   -6.2819207    4152.0785            4 
   73900    1.0292735   -6.2680343    4159.3473            4 
   74000    1.0039924   -6.2534401    4160.4236            4 
   74100   0.97661323   -6.2550512    4151.0021            6 
   74200    0.9987672   -6.2466741    4156.3065            9 
   74300   0.99557481   -6.2374875    4162.3271            4 
   74400   0.99434269   -6.2559404    4145.0565            9 
   74500    1.0146939    -6.286416    4135.4103            7 
   74600   0.97770354   -6.2614577     4135.059           10 
   74700    1.0122519   -6.2730633    4154.3476            6 
   74800   0.99155092   -6.2663659    4156.8077            8 
   74900    1.0053802   -6.2993249    4148.3031            8 
   75000    1.0030182   -6.2988316    4143.1413            8 
   75100    1.0030049   -6.2755598    4148.0227            4 
   75200    1.0152134   -6.2615508    4160.4997            4 
   75300   0.99733366   -6.2813635    4160.2383            6 
   75400   0.99507155   -6.2648446    4164.8823            6 
   75500    1.0074139   -6.2592281    4169.8262           12 
   75600   0.99787181   -6.2800858    4166.3964            8 
   75700   0.99250708   -6.2680436    4158.6813           14 
   75800   0.99075521   -6.2754623    4158.5363           26 
   75900    1.0162335   -6.2741931     4167.166            7 
   76000    1.0088114   -6.2841315    4158.1323            9 
   76100   0.97574018   -6.2759013    4152.4429            2 
   76200     1.005706   -6.2722068    4158.2479            7 
   76300   0.99596505   -6.2853268    4164.9061           10 
   76400     1.004682   -6.2498018    4178.5537           12 
   76500    1.0080891   -6.2436507    4177.3606            9 
   76600    1.0058119   -6.2905991     4164.596            7 
   76700   0.99213634   -6.2820705    4169.6984           14 
   76800    1.0217206   -6.2848528    4173.2739           11 
   76900   0.99458853   -6.2764764    4164.4579            7 
   77000    0.9892984   -6.2682376    4158.5653            9 
   77100   0.99407568   -6.2681632    4159.5744           12 
   77200    1.0130603   -6.2868354    4151.0687            8 
   77300    1.0046617   -6.3006148    4150.7516            5 
   77400   0.98797307   -6.2706278    4151.6883            6 
   77500    1.0122237   -6.2667895    4149.1319            5 
   77600    1.0019066   -6.2397665    4161.2938            4 
   77700   0.98783372   -6.2734439    4158.5748            2 
   77800    1.0036619   -6.2587395    4154.6219            4 
   77900   0.97847198   -6.2604412    4151.5761            7 
   78000   0.99762047   -6.2782994    4137.1541            3 
   78100    1.0149212   -6.2745631    4148.7274            4 
   78200   0.99229399    -6.242897    4165.6432            5 
   78300   0.98825518   -6.2462281    4185.2531            5 
   78400    1.0010404   -6.2954317    4168.7537            7 
   78500   0.97340769   -6.2854453    4156.1493           12 
   78600   0.99804134   -6.3015661    4157.2952            4 
   78700   0.98586944   -6.2589324     4153.597            2 
   78800    1.0095092   -6.2725558     4150.717            5 
   78900   0.99397401   -6.2493799    4136.4329            4 
   79000    1.0038692   -6.2904733    4133.2828            4 
   79100    1.0002613   -6.2810176    4155.0399            5 
   79200    1.0094324   -6.2575183    4154.7049            3 
   79300    1.0023857   -6.2919107    4156.9358            4 
   79400    1.0089084   -6.3067971    4147.4675            5 
   79500    1.0105368   -6.2809768    4144.9722            7 
   79600   0.99482766   -6.2710517    4151.5676            5 
   79700   0.98325556   -6.2312668    4161.5155            4 
   79800   0.98250043   -6.2551917    4178.5448            5 
   79900   0.98374385   -6.2845846    4167.8594            5 
   80000   0.99529436   -6.2881956    4158.0122            3 
   80100    0.9875715   -6.2750392    4164.4363            4 
   80200      1.00813   -6.2708514    4157.3284            6 
   80300   0.99383812   -6.2749335     4149.694            5 
   80400   0.98680135   -6.2535917    4155.6173            4 
   80500    1.0147976   -6.2788047    4160.2485            5 
   80600   0.98837887   -6.2906021    4149.4459            4 
   80700   0.99129782   -6.2499032    4160.3769            7 
   80800    1.0025308   -6.2400878    4165.8823            5 
   80900   0.98875468   -6.2653432    4167.4121            7 
   81000     1.006929   -6.2675032     4179.551            7 
   81100   0.98947346   -6.2505324    4186.2776            4 
   81200   0.98836777   -6.2646222    4166.8532            3 
   81300    1.0063535   -6.2483134    4171.4483            4 
   81400      1.01864   -6.2688433     4169.705            4 
   81500    0.9885065   -6.2589132    4162.1663            3 
   81600    1.0219017    -6.247403    4154.8668            5 
   81700     1.003496   -6.2603649     4152.015            6 
   81800   0.99548458   -6.2956396    4147.7681            6 
   81900    1.0107548   -6.3077474    4149.7465            9 
   82000   0.98934831   -6.2646337    4156.0299            3 
   82100   0.99282555   -6.3078473    4144.9555            4 
   82200   0.98380691   -6.3141452    4138.4819            8 
   82300   0.99581198   -6.2881473    4149.9822            7 
   82400    1.0064688   -6.2709299    4143.6194            4 
   82500    1.0004935   -6.2837618    4138.9259            8 
   82600    1.0118538   -6.2543932    4152.6472            5 
   82700   0.99367245   -6.2723725    4148.5229           10 
   82800    0.9880116    -6.253057    4139.0502            7 
   82900   0.99796945   -6.2312843    4151.4977            7 
   83000    1.0212416    -6.265252    4161.5821            5 
   83100   0.98755275   -6.2638036    4148.4809            3 
   83200    1.0176206   -6.2923483    4150.2872            5 
   83300   0.98469088   -6.2583436    4157.8115            5 
   83400    1.0113374    -6.272135    4157.8191            5 
   83500    1.0140232   -6.2874764    4140.4707            4 
   83600   0.98099458   -6.2708529    4138.0304            6 
   83700    1.0110035   -6.2657071    4155.4005            3 
   83800    1.0094255   -6.2805455    4154.0952            6 
   83900    1.0159432   -6.2998683    4136.7973            4 
   84000   0.99568428   -6.2740224    4135.2284            3 
   84100    1.0142605   -6.2540946     4155.403            5 
   84200    0.9939263   -6.2658242    4156.2068            5 
   84300     1.018244   -6.2647029    4159.8307            6 
   84400    1.0055192    -6.265751    4157.9879            7 
   84500   0.99675798   -6.2678109      4150.03            7 
   84600    1.0096304    -6.275088    4142.5643            6 
   84700   0.98910024   -6.2570521    4143.2546            7 
   84800   0.98786664   -6.2603304    4147.2312            5 
   84900    1.0133093   -6.2543651    4152.8796            5 
   85000    1.0033298   -6.2808837     4139.848            6 
   85100    1.0249875   -6.3182252    4125.6845            8 
   85200    1.0012266   -6.2822889    4143.5506            4 
   85300   0.98645027   -6.2589645    4150.6363            3 
   85400   0.97647407   -6.2880887    4152.7584           14 
   85500    1.0108693    -6.291468    4149.2691           18 
   85600    1.0069827    -6.270273    4141.8858            7 
   85700   0.98231405   -6.2797515    4133.6434           12 
   85800    1.0122245   -6.2795762    4140.6613            6 
   85900   0.99439979   -6.2712768    4152.8985            8 
   86000   0.97852654   -6.2664344    4157.9191           14 
   86100    1.0019313   -6.2708771    4162.0948            7 
   86200    1.0014385   -6.2393026    4161.1674            6 
   86300   0.99192493   -6.2385503    4147.6302            5 
   86400   0.99204843    -6.260821    4150.2754            8 
   86500    1.0199083   -6.2765601    4147.8484            7 
   86600   0.98195617   -6.2299909     4164.597            6 
   86700     1.006584   -6.2498485    4165.9289            7 
   86800    1.0114175   -6.2779238    4148.0172            6 
   86900     1.011715   -6.2765568    4145.4855            9 
   87000   0.99246415   -6.2819179    4143.1479            9 
   87100    1.0024114   -6.2568031     4145.701           17 
   87200    1.0104465   -6.2596376    4152.6544           14 
   87300    0.9998196    -6.262979    4153.5239           13 
   87400   0.98727856   -6.2693393    4148.9522            9 
   87500    1.0188203   -6.2681259    4151.2644            6 
   87600    1.0058467   -6.2554712    4146.6151            7 
   87700   0.99568033   -6.2814168    4143.4704            6 
   87800   0.99718846    -6.288519    4150.0297            7 
   87900    1.0213204   -6.2782362    4154.1971           10 
   88000    0.9919203    -6.263411    4159.0146           10 
   88100   0.98264313    -6.258676    4159.0139            3 
   88200   0.99672133   -6.2894944    4155.0173            6 
   88300    1.0227341   -6.2759004    4166.6277            7 
   88400   0.98381275   -6.2564805    4155.2297            7 
   88500   0.98723702    -6.267979    4158.2124            6 
   88600    1.0093486   -6.2754465    4169.4266            6 
   88700     1.010588   -6.2740017    4168.2274            5 
   88800    1.0031324   -6.3008219    4163.6611            7 
   88900   0.97748423   -6.2805193    4162.4928            5 
   89000    1.0116775     -6.28559    4159.8967            4 
   89100   0.98271424   -6.2717469    4148.2696            5 
   89200    1.0199705   -6.2774782    4152.9625            7 
   89300   0.99950614   -6.2563783    4163.2777            5 
   89400   0.98675877   -6.2858404    4152.2453            5 
   89500   0.98202439   -6.2960335    4146.4896            6 
   89600   0.99964099   -6.2894859    4136.8381            7 
   89700   0.99484624   -6.2352069    4155.4348            6 
   89800    1.0208778   -6.2654216     4154.843            4 
   89900    1.0079989   -6.2948053    4145.4602            4 
   90000    1.0020563   -6.3155558    4140.0476            7 
   90100   0.98112827   -6.3081846    4134.5753            5 
   90200    1.0001949   -6.2875462    4143.4585            7 
   90300    1.0153721   -6.2584158    4139.2932            4 
   90400    1.0088634   -6.2773854    4136.8165            6 
   90500   0.98460882   -6.2810237    4137.3017           12 
   90600    1.0020151   -6.2689647    4141.0865           16 
   90700    1.0051152   -6.3002514    4139.9154            4 
   90800    1.0272382   -6.2911489    4142.4071            5 
   90900    1.0040377   -6.2845618    4148.5692            5 
   91000   0.99323462   -6.3223404    4148.6952            9 
   91100   0.98249527   -6.3142774    4141.5607           14 
   91200    1.0054846   -6.3188538    4142.0029            9 
   91300    1.0014031   -6.2663296    4148.2102            9 
   91400    1.0093434   -6.2719467    4154.0858           12 
   91500   0.99994688   -6.2454863    4155.9629            5 
   91600    1.0253567   -6.2554934    4146.9883            6 
   91700   0.99090352   -6.2507042    4137.7226            5 
   91800    1.0088168   -6.2644702    4146.5542            6 
   91900    1.0169278   -6.2506555    4158.0629            6 
   92000   0.98999484   -6.2642702     4155.919            8 
   92100   0.99126702   -6.2630696    4151.3281            6 
   92200   0.99752396    -6.257943    4149.6457           11 
   92300     1.008584   -6.2720233     4151.802            3 
   92400   0.98777615   -6.2688945    4158.9769            6 
   92500     0.987181   -6.2896481     4154.442            8 
   92600    1.0055884    -6.281703    4150.8362            8 
   92700   0.99957665   -6.2723544     4157.231            8 
   92800    1.0039084   -6.2709194    4154.9631            7 
   92900   0.98647955    -6.276505    4141.1679           10 
   93000   0.98989923   -6.3177902    4141.8718           13 
   93100    1.0074175   -6.2930187    4163.3998            8 
   93200   0.98682069   -6.2770105    4166.2358            6 
   93300   0.99035061   -6.3123013    4162.5138           26 
   93400    1.0002584   -6.2680538    4167.9797           22 
   93500    1.0124977   -6.2759849    4152.1374           18 
   93600   0.98996927   -6.2640832    4150.0683           14 
   93700   0.99588674    -6.255242      4150.26           13 
   93800   0.97349534   -6.2714199      4142.56           16 
   93900     1.004582   -6.2831956    4155.7932           18 
   94000    1.0109564   -6.2757392    4153.8186            7 
   94100   0.98915458   -6.3082572     4141.751           19 
   94200   0.99485246   -6.3075961    4139.6711            3 
   94300    1.0043561   -6.2691745    4140.5698            9 
   94400    1.0130772   -6.2776522    4141.1316            8 
   94500    1.0006963   -6.3064232    4140.2876            4 
   94600   0.99837817   -6.2539774    4149.0324            4 
   94700   0.99844742   -6.2507278    4150.5379            4 
   94800   0.98508958   -6.2683064    4135.9036            5 
   94900    1.0070294   -6.2969199    4146.2546            5 
   95000    1.0008218   -6.2642677    4138.7709           12 
   95100    1.0010472   -6.2914283    4146.0314            9 
   95200   0.99480495   -6.2662277    4150.3255            6 
   95300    1.0208245   -6.2681421     4155.052            6 
   95400    1.0255817   -6.2896875     4147.905            7 
   95500     1.004279   -6.2718411    4138.9231           11 
   95600   0.99415485   -6.2572683    4131.8825            8 
   95700    0.9905693    -6.261925    4145.1352            5 
   95800   0.99945759   -6.2769165    4155.7036            4 
   95900    1.0286469   -6.2651914    4151.1965           12 
   96000    0.9980909   -6.2573988    4141.9677           10 
   96100    1.0003575   -6.2723743    4145.1413            8 
   96200    1.0060339   -6.2379104    4154.9189            6 
   96300    1.0088364   -6.2405491    4152.0124            5 
   96400    1.0010863   -6.2599758    4142.6317            4 
   96500   0.99285264   -6.2916042    4138.5618            7 
   96600   0.99853932   -6.2980747    4148.7697            5 
   96700   0.99561235   -6.2571122    4155.7843            5 
   96800   0.99981631   -6.2370425    4154.7295            4 
   96900    1.0009218   -6.2864077    4148.4952            9 
   97000   0.97103527   -6.2933766     4141.852            7 
   97100    1.0006313    -6.305198    4138.8585            6 
   97200   0.99539468   -6.2661115    4139.3416            5 
   97300    1.0174669   -6.2461739    4158.2453            5 
   97400    1.0082876   -6.2872824    4153.8556            5 
   97500   0.99368637   -6.2659734    4146.5335            6 
   97600   0.99878118   -6.2824766    4146.0679           16 
   97700    1.0083651   -6.3134739    4139.7796            8 
   97800    1.0013583   -6.2684194    4144.5238            6 
   97900    1.0037239   -6.2528702    4137.5145            5 
   98000    1.0121641    -6.284324    4130.7907            9 
   98100    1.0053588   -6.2732975    4142.3438            7 
   98200    1.0113574   -6.2663776    4153.2542            7 
   98300   0.98223981   -6.2785356    4143.2593            7 
   98400   0.98999752   -6.2542379    4146.4365            8 
   98500   0.99681745   -6.2691501     4149.812            8 
   98600   0.99842338   -6.2740699    4151.3791            5 
   98700    1.0063866   -6.2746795     4150.007            4 
   98800   0.99761937   -6.2995724    4143.3721            4 
   98900   0.98775595   -6.2809257    4145.9522           10 
   99000    1.0056434   -6.2793008    4158.3995           10 
   99100    0.9930342   -6.2862174    4153.6533            2 
   99200   0.98984025   -6.2812739    4145.3431            6 
   99300    1.0003454   -6.2840698    4152.4293            6 
   99400   0.99870162   -6.2415487    4166.7214            8 
   99500   0.99315197   -6.2756698    4146.4224            7 
   99600    0.9849467   -6.2908509    4140.6023            7 
   99700   0.99138835   -6.2575837    4157.4017           11 
   99800    1.0223136   -6.2554332     4154.535            4 
   99900    1.0056454   -6.2685877    4146.1698            5 
  100000   0.98614704   -6.2659085    4144.6424            7 
  100100    1.0120245   -6.2681628    4149.0018           15 
  100200    0.9949973   -6.2617345    4150.2426           11 
  100300    1.0092657    -6.256754    4142.7827            6 
  100400    1.0068855   -6.2854529    4146.2366            7 
  100500   0.99843019   -6.2238369     4169.354            4 
  100600   0.99190983   -6.2389545    4159.7402            9 
  100700   0.99009754   -6.2537211    4149.2929            4 
  100800    0.9983231   -6.2272077    4150.2037            5 
  100900    1.0036888   -6.2285435    4153.0726            4 
  101000    1.0065702   -6.2744882    4152.7325           10 
  101100   0.98882935   -6.2690022    4141.2607            8 
  101200    1.0019409   -6.2712876    4139.3293           12 
  101300    1.0151068     -6.27459    4144.3723           14 
  101400    1.0057911    -6.276672     4150.759            5 
  101500     1.001434   -6.2822875    4164.0605           14 
  101600   0.97066612   -6.2838383    4168.1363            9 
  101700   0.98448549   -6.2779056    4166.9342            8 
  101800   0.98666433   -6.2343482    4159.3814            6 
  101900    1.0117631   -6.2948667     4146.648            7 
  102000   0.99450583   -6.2760865    4132.0083            5 
  102100     1.013173   -6.2666367    4139.5222            7 
  102200    1.0122908   -6.2755623     4152.875            4 
  102300    1.0020537   -6.2769524    4153.0594           11 
  102400   0.98983958   -6.2928163    4152.4744            6 
  102500    1.0010626   -6.2538883     4159.626           10 
  102600   0.98711912    -6.265874    4152.9256            7 
  102700    1.0137318   -6.2565306    4154.0518           10 
  102800    1.0022333   -6.2611784     4156.054           10 
  102900   0.98151469   -6.2623635    4150.5949           10 
  103000   0.98999951   -6.2300987    4150.8398            5 
  103100    1.0182844   -6.2410489    4150.0735            5 
  103200    1.0034496   -6.2657374    4139.8237            6 
  103300   0.99336136   -6.2902165    4134.7001            6 
  103400    1.0139132    -6.283135     4142.407           10 
  103500    1.0071691   -6.2759107    4148.5989            4 
  103600   0.99201706   -6.2707511    4148.7897            4 
  103700    1.0162119   -6.2578125    4159.9343            4 
  103800    1.0028158   -6.2507894    4149.8358            6 
  103900    1.0137002    -6.297733    4133.1379            5 
  104000   0.98912397   -6.2875437    4128.8765            9 
Loop time of 182.014 on 32 procs for 100000 steps with 4000 atoms

Performance: 94937.518 tau/day, 549.407 timesteps/s
99.7% CPU use with 32 MPI tasks x no OpenMP threads

MPI task timing breakdown:
Section |  min time  |  avg time  |  max time  |%varavg| %total
---------------------------------------------------------------
Pair    | 15.428     | 15.527     | 15.676     |   1.8 |  8.53
Neigh   | 1.9304     | 1.9452     | 1.9954     |   1.0 |  1.07
Comm    | 8.6547     | 9.1329     | 10.099     |  11.1 |  5.02
Output  | 4.8221     | 4.8228     | 4.8351     |   0.1 |  2.65
Modify  | 146.86     | 148.59     | 149.51     |   5.3 | 81.64
Other   |            | 1.997      |            |       |  1.10

Nlocal:        125.000 ave         131 max         120 min
Histogram: 4 5 1 7 2 3 2 3 2 3
Nghost:        1918.28 ave        1932 max        1901 min
Histogram: 1 3 0 5 5 4 5 0 5 4
Neighs:        13866.9 ave       14610 max       13108 min
Histogram: 3 0 5 1 9 4 3 1 3 3
FullNghs:      27736.0 ave       29244 max       26598 min
Histogram: 5 1 6 6 1 4 1 3 3 2

Total # of neighbors = 887553
Ave neighs/atom = 221.88825
Neighbor list builds = 5981
Dangerous builds = 0

#clear
#
#next RN
#
#jump SELF
Total wall time: 0:03:03
