
units lj                  # Use reduced LJ style units
atom_style atomic         # Uncharged point particles
atom_modify map hash      # Needed for indexing of clusters etc
                          # Used to be able to find where atoms are in relation to each other.

# Define a lattice with which to populate the simulation cell. With units
# set to 'lj' the second argument to the lattice command is the reduced
# density rho* and the spacings are multiples of that required to acheive
# that density. Also define a simulation cell called 'box' in lattice units
# and fill it with atoms. Here we're creating a box which is ten lattice
# constants in each direction.
lattice fcc 1.0 spacing 1 1 1                 # All equal sizes - gives the right reduced density.
Lattice spacing in x,y,z = 1.5874011 1.5874011 1.5874011

region box block 0 10 0 10 0 10 units lattice # Defines a region, "box", in lattice units
create_box 1 box                              # Creates a simulation box as specified above,
Created orthogonal box = (0.0000000 0.0000000 0.0000000) to (15.874011 15.874011 15.874011)
  4 by 4 by 4 MPI processor grid
                                              # with one type of atom
create_atoms 1 box                            # Creates particles on lattice points
Created 4000 atoms
  using lattice units in orthogonal box = (0.0000000 0.0000000 0.0000000) to (15.874011 15.874011 15.874011)
  create_atoms CPU = 0.002 seconds


# Set the mass of the first (and only) atom type.
mass 1 1.0

# Lennard-Jones interactions between particles, 3.5 sigma cut-off. Apply
# long range tail corrections to energy and pressure and set all coefficients
# to unity since we work in reduced units here. Note that this doesn't shift
# the potential such that it goes to zero at the cutoff. That would require
# pair_modify('shift', 'yes').
pair_style lj/cut  3.5      # non-GPU version
pair_modify tail  yes
pair_coeff 1  1  1.0  1.0   # Intearaction between 1 and 1 set with epsilon = 1 and sigma = 1

write_data data.*
System init for write_data ...
Neighbor list info ...
  update every 1 steps, delay 10 steps, check yes
  max neighbors/atom: 2000, page size: 100000
  master list distance cutoff = 3.8
  ghost atom cutoff = 3.8
  binsize = 1.9, bins = 9 9 9
  1 neighbor lists, perpetual/occasional/extra = 1 0 0
  (1) pair lj/cut, perpetual
      attributes: half, newton on
      pair build: half/bin/atomonly/newton
      stencil: half/bin/3d
      bin: standard

#############################
#   M E L T   S Y S T E M   #
#############################

velocity all create 2.4 5300450 mom yes dist gaussian # Assign velocities
                                                    # Temperature 2.4, random number seed, zero linear momentum
						                                                        # Gaussian distribution

timestep 0.002   # simulation timestep
thermo 100       # output thermodynamic data every 100 steps

# Define a fix  in this case with index 1 applied to all
# particles in the simulation. This fix is for simulations
# in the anisotropic NPT ensemble. Note that we use the MTK
# correction.
fix 1 all npt temp 2.4 2.4 0.1 iso 5.68 5.68 0.5 mtk yes tchain 5 pchain 5 # Use NPT ensemble
                                                                         # Set temperature and pressure and damping
                                                                         # Numbers of thermostats in chain and in barostat
run 1000         # run for 10000 steps
Per MPI rank memory allocation (min/avg/max) = 3.630 | 3.630 | 3.630 Mbytes
Step Temp E_pair E_mol TotEng Press Volume 
       0          2.4   -8.3859253            0   -4.7868253   -2.2405722         4000 
     100    1.2568457    -6.520638            0   -4.6358408    5.4054415    4090.5418 
     200    1.4749962   -6.3123998            0   -4.1004586    5.9706789    4139.2832 
     300    1.6124068   -6.0569481            0   -3.6389426    5.7397492    4264.5301 
     400    1.7168752   -5.7431758            0   -3.1685069    5.9205944    4390.8204 
     500    1.7900089   -5.4300953            0   -2.7457532    5.8244207    4548.9907 
     600    1.8749878   -5.1356604            0   -2.3238818    5.7834378    4705.6354 
     700    1.9882515   -4.8678934            0   -1.8862617    5.9915018     4837.506 
     800    2.1327811   -4.6988753            0   -1.5005035    5.7798366    4974.3967 
     900    2.2952123   -4.5871705            0   -1.1452128    5.7568633    5062.5276 
    1000    2.3419515   -4.4435081            0  -0.93145903    5.7034406     5160.776 
Loop time of 0.199037 on 64 procs for 1000 steps with 4000 atoms

Performance: 868181.661 tau/day, 5024.199 timesteps/s
99.2% CPU use with 64 MPI tasks x no OpenMP threads

MPI task timing breakdown:
Section |  min time  |  avg time  |  max time  |%varavg| %total
---------------------------------------------------------------
Pair    | 0.058895   | 0.062764   | 0.066996   |   0.8 | 31.53
Neigh   | 0.013891   | 0.014681   | 0.015523   |   0.3 |  7.38
Comm    | 0.088681   | 0.09275    | 0.097373   |   0.6 | 46.60
Output  | 0.00030287 | 0.00030986 | 0.000382   |   0.0 |  0.16
Modify  | 0.02434    | 0.026696   | 0.028855   |   0.6 | 13.41
Other   |            | 0.001836   |            |       |  0.92

Nlocal:        62.5000 ave          69 max          56 min
Histogram: 7 2 3 12 7 7 13 5 2 6
Nghost:        1253.14 ave        1273 max        1234 min
Histogram: 2 7 6 8 11 5 9 8 7 1
Neighs:        5540.11 ave        6253 max        4768 min
Histogram: 2 5 5 12 10 8 5 5 7 5

Total # of neighbors = 354567
Ave neighs/atom = 88.641750
Neighbor list builds = 87
Dangerous builds = 24

# Equilibrate just above the melting temperature to avoid step fn in T

fix 1 all npt temp 1.25 1.25 0.1 iso 5.68 5.68 0.5 mtk yes tchain 5 pchain 5
run 1000
Per MPI rank memory allocation (min/avg/max) = 3.631 | 3.631 | 3.631 Mbytes
Step Temp E_pair E_mol TotEng Press Volume 
    1000    2.3419515   -4.4435081            0  -0.93145903    5.7034406     5160.776 
    1100    1.9505664   -4.6860744            0   -1.7609562    5.6875043    4990.5455 
    1200    1.7145364   -4.9478458            0   -2.3766842    5.6803952    4813.9806 
    1300    1.5789627   -5.2178493            0   -2.8499973     5.626771    4671.2595 
    1400     1.466042   -5.4083802            0    -3.209867    5.7430009    4553.7478 
    1500    1.3483489   -5.5238765            0   -3.5018588    5.7608991    4484.5069 
    1600    1.3065005   -5.6674797            0   -3.7082189    5.6719356    4427.5375 
    1700    1.2613667   -5.7293973            0   -3.8378202     5.676448    4393.2208 
    1800    1.2706154   -5.8058844            0   -3.9004378    5.6537836    4362.5534 
    1900    1.2416506   -5.8085169            0   -3.9465067    5.6540218    4357.9646 
    2000    1.2530204     -5.85012            0   -3.9710592    5.4158949    4363.6997 
Loop time of 0.191907 on 64 procs for 1000 steps with 4000 atoms

Performance: 900436.745 tau/day, 5210.861 timesteps/s
99.9% CPU use with 64 MPI tasks x no OpenMP threads

MPI task timing breakdown:
Section |  min time  |  avg time  |  max time  |%varavg| %total
---------------------------------------------------------------
Pair    | 0.058098   | 0.061721   | 0.065551   |   0.7 | 32.16
Neigh   | 0.011959   | 0.012633   | 0.01331    |   0.3 |  6.58
Comm    | 0.084828   | 0.090157   | 0.093621   |   0.7 | 46.98
Output  | 0.00028191 | 0.0002877  | 0.0003421  |   0.0 |  0.15
Modify  | 0.022484   | 0.02475    | 0.027623   |   0.7 | 12.90
Other   |            | 0.002358   |            |       |  1.23

Nlocal:        62.5000 ave          68 max          53 min
Histogram: 1 1 3 0 5 10 20 8 12 4
Nghost:        1399.92 ave        1420 max        1382 min
Histogram: 6 4 6 9 5 11 12 6 2 3
Neighs:        6535.45 ave        7153 max        5253 min
Histogram: 1 0 2 4 2 9 13 19 7 7

Total # of neighbors = 418269
Ave neighs/atom = 104.56725
Neighbor list builds = 74
Dangerous builds = 4


# Small amount of linear quench

fix 1 all npt temp 1.25 ${temp} 0.1 iso 5.68 5.68 0.5 mtk yes tchain 5 pchain 5
fix 1 all npt temp 1.25 2.13 0.1 iso 5.68 5.68 0.5 mtk yes tchain 5 pchain 5
run 2000
Per MPI rank memory allocation (min/avg/max) = 3.631 | 3.631 | 3.631 Mbytes
Step Temp E_pair E_mol TotEng Press Volume 
    2000    1.2530204     -5.85012            0   -3.9710592    5.4158949    4363.6997 
    2100     1.269963   -5.8219712            0    -3.917503    5.5329007    4364.5994 
    2200    1.3171052   -5.7821447            0   -3.8069808    5.5785171    4381.3446 
    2300    1.3545264   -5.7450485            0   -3.7137669    5.6057629    4395.5934 
    2400    1.3550503   -5.6599784            0    -3.627911     5.554737    4439.9006 
    2500    1.4526986   -5.6661013            0   -3.4875982    5.4926605     4452.741 
    2600    1.4635957   -5.5678509            0   -3.3730062    5.7649104    4468.2469 
    2700     1.501218   -5.4985995            0   -3.2473355    5.8608294    4496.8731 
    2800    1.5363192    -5.425646            0   -3.1217434    5.7852574    4544.4059 
    2900    1.5735776   -5.3521128            0   -2.9923364     5.846656    4574.3356 
    3000    1.6123044   -5.2729695            0   -2.8551175    5.8599984    4614.5229 
    3100    1.6726853   -5.2261089            0   -2.7177082    5.7618129    4655.2298 
    3200    1.7492423   -5.1863692            0   -2.5631617     5.935307    4661.1183 
    3300     1.782502    -5.128134            0   -2.4550495    5.6584975    4723.5437 
    3400     1.833746   -5.0847489            0   -2.3348175    5.5389713    4763.0188 
    3500    1.8402329   -4.9824139            0   -2.2227547     5.687188    4799.0076 
    3600    1.9098044   -4.9386154            0   -2.0746249    5.7251975    4828.8189 
    3700    1.9447379   -4.8665185            0    -1.950141    5.6318998    4886.3131 
    3800    1.9926693   -4.8077906            0    -1.819534     5.653491    4914.1945 
    3900    2.0404092   -4.7609965            0   -1.7011477    5.6925915    4944.8508 
    4000    2.1078937   -4.7231933            0   -1.5621432    5.8251191    4958.4655 
Loop time of 0.390335 on 64 procs for 2000 steps with 4000 atoms

Performance: 885392.880 tau/day, 5123.801 timesteps/s
100.0% CPU use with 64 MPI tasks x no OpenMP threads

MPI task timing breakdown:
Section |  min time  |  avg time  |  max time  |%varavg| %total
---------------------------------------------------------------
Pair    | 0.11835    | 0.12232    | 0.12693    |   0.5 | 31.34
Neigh   | 0.024931   | 0.025749   | 0.026608   |   0.2 |  6.60
Comm    | 0.17743    | 0.18368    | 0.18907    |   0.6 | 47.06
Output  | 0.00058356 | 0.00059539 | 0.00070097 |   0.0 |  0.15
Modify  | 0.049817   | 0.053338   | 0.057747   |   0.8 | 13.66
Other   |            | 0.004656   |            |       |  1.19

Nlocal:        62.5000 ave          70 max          56 min
Histogram: 4 2 15 8 7 9 5 7 2 5
Nghost:        1285.36 ave        1304 max        1266 min
Histogram: 3 1 10 10 6 12 5 10 4 3
Neighs:        5759.17 ave        6547 max        4928 min
Histogram: 2 2 8 6 14 9 6 11 3 3

Total # of neighbors = 368587
Ave neighs/atom = 92.146750
Neighbor list builds = 150
Dangerous builds = 5

#############################
# F R E E Z E  S Y S T E M  #
#############################

# Define solid atoms. This closely follows ten Wolde  Ruiz-Montero and Frenkel  Faraday Discuss  1996  104  93-110
# Compute components of the per-atom q6 vector
compute q6 all orientorder/atom degrees 1 6 components 6 nnn NULL cutoff 1.3 # compute the Q6 parameter.
                                                                             # Use all neighbours within 1.3 unit cell.

# get number of connections
compute coord_number all coord/atom orientorder q6 0.5

# An atom is solid if it has 8 or more connections (of a possible 14)
variable is_solid atom c_coord_number>=8
group solid dynamic all var is_solid    # Must be dynamic to update
dynamic group solid defined

# do clustering
compute cluster solid cluster/atom 1.3 # Create a cluster where all atoms within are solid and max 1.3 units from another member

# define chunks one chunk per cluster
compute clus_chunks solid chunk/atom c_cluster nchunk every compress yes  # Says which atoms are in which chunk

# count the size of each chunk
compute size_chunks solid property/chunk clus_chunks count


# Find the maximum entry in the vector of chunk sizes
variable max_n equal max(c_size_chunks)


# Thermo style which includes this variable
thermo_style custom step temp pe vol v_max_n

thermo ${N}  # Print the thermo information every 100 steps
thermo 100  

# Reset the npt fix at a lower temperature (below freezing)
fix 1  all npt temp  ${temp} ${temp}  0.1  iso  5.68  5.68  0.5  mtk yes tchain  5  pchain  5
fix 1  all npt temp  2.13 ${temp}  0.1  iso  5.68  5.68  0.5  mtk yes tchain  5  pchain  5
fix 1  all npt temp  2.13 2.13  0.1  iso  5.68  5.68  0.5  mtk yes tchain  5  pchain  5

dump dmp2 all dcd ${N} traj_${rand}.dcd
dump dmp2 all dcd 100 traj_${rand}.dcd
dump dmp2 all dcd 100 traj_462431.dcd


# fix rnuntil all halt ${N} v_max_n >= 3980 error soft message no   # Stop when solidified


run 100000 # 5000000  # Run for this many steps
Neighbor list info ...
  update every 1 steps, delay 10 steps, check yes
  max neighbors/atom: 2000, page size: 100000
  master list distance cutoff = 3.8
  ghost atom cutoff = 3.8
  binsize = 1.9, bins = 9 9 9
  4 neighbor lists, perpetual/occasional/extra = 1 3 0
  (1) pair lj/cut, perpetual
      attributes: half, newton on
      pair build: half/bin/atomonly/newton
      stencil: half/bin/3d
      bin: standard
  (2) compute orientorder/atom, occasional
      attributes: full, newton on
      pair build: full/bin/atomonly
      stencil: full/bin/3d
      bin: standard
  (3) compute coord/atom, occasional
      attributes: full, newton on
      pair build: full/bin/atomonly
      stencil: full/bin/3d
      bin: standard
  (4) compute cluster/atom, occasional
      attributes: full, newton on
      pair build: full/bin/atomonly
      stencil: full/bin/3d
      bin: standard
Per MPI rank memory allocation (min/avg/max) = 9.288 | 9.291 | 9.296 Mbytes
Step Temp PotEng Volume v_max_n 
    4000    2.1078937   -4.7231933    4958.4655            1 
    4100    2.1072506   -4.6742237    5024.3866            1 
    4200     2.167368   -4.6653279    5001.6388       -1e+20 
    4300    2.0905009   -4.6736053    5000.0542            1 
    4400    2.1711036    -4.699244    5008.8154            1 
    4500    2.0948453   -4.6296507    5045.7592            1 
    4600    2.1539658   -4.6213399     4985.252       -1e+20 
    4700    2.0709289   -4.6236982    5005.5526            1 
    4800    2.1429719   -4.6578736    5017.3102            1 
    4900    2.1295446   -4.6023046    5043.3545       -1e+20 
    5000    2.1003344   -4.6206254    5030.4201            3 
    5100    2.1437795   -4.6186664     5000.634            1 
    5200     2.085627   -4.6298948    5048.0355            1 
    5300    2.1429992   -4.6521215    4981.2248       -1e+20 
    5400    2.1127343    -4.655592    5010.4936            1 
    5500    2.1238093   -4.6399952    5027.9687            1 
    5600    2.0957294   -4.6857718    4998.3417            1 
    5700    2.1253449   -4.6503079    5005.5681            1 
    5800    2.1441905     -4.65918    5025.0502       -1e+20 
    5900    2.1108321   -4.6938782    5013.9554       -1e+20 
    6000    2.1509353   -4.6482981     5003.289       -1e+20 
    6100    2.1032157   -4.6498081    5027.5894            1 
    6200    2.1609947   -4.6391145    5017.7218            2 
    6300    2.0510332   -4.6262264    5023.3448            1 
    6400    2.1309098   -4.6812173    5028.0116            1 
    6500    2.1534099   -4.6251584    5021.0301            1 
    6600    2.0866972   -4.6705597     5021.641            1 
    6700    2.1141859   -4.6985539    4981.8017            2 
    6800    2.1313202   -4.6244977    5012.7711       -1e+20 
    6900    2.1304017   -4.6351537    5050.1114       -1e+20 
    7000    2.1281971   -4.6496886    5045.3179       -1e+20 
    7100    2.1853694   -4.6845003    4989.7467            1 
    7200    2.0956433   -4.7231699    5005.6878            1 
    7300    2.1153265   -4.6810171    5001.3478            1 
    7400    2.2015787   -4.6608728    5009.0552            1 
    7500      2.12194   -4.6652512     5038.462            1 
    7600    2.0985688   -4.6861594    4995.5329            1 
    7700    2.1259754   -4.6774079    4991.1577            2 
    7800    2.1071775   -4.6642008    5043.0436            1 
    7900    2.1549309   -4.6183062    5048.2055            1 
    8000    2.1416568   -4.6278121    5022.3299            1 
    8100    2.0814932   -4.6543429    5018.2566       -1e+20 
    8200    2.1373705   -4.6518368    5006.8619       -1e+20 
    8300    2.1113301   -4.6622026    4999.1398            1 
    8400    2.0710732   -4.6875389    5002.1095            1 
    8500    2.1169309   -4.6116543    5000.1567            2 
    8600    2.1552889   -4.6335693     5016.882            1 
    8700    2.1067541    -4.710153    5026.0003            1 
    8800      2.12653    -4.638616    5040.0008       -1e+20 
    8900    2.1708629    -4.605431    5044.7068            1 
    9000     2.122405   -4.6513358     5046.302       -1e+20 
    9100    2.1271156   -4.6359141    5022.0142       -1e+20 
    9200     2.158415   -4.6618845    5020.2427            1 
    9300    2.0880946   -4.6531986    5023.1469            2 
    9400    2.1720502   -4.6502977    4997.3496            3 
    9500    2.1251227   -4.7074064     5016.059            1 
    9600    2.0988007   -4.6579436    5014.3082            2 
    9700    2.1384933   -4.6276812    5045.2113            1 
    9800    2.1049223   -4.6150154    5038.2582            3 
    9900    2.1520628   -4.6468366    5011.9625            1 
   10000    2.1178323   -4.6709455    5036.7792            2 
   10100    2.1404212   -4.6672113    4998.6132            2 
   10200    2.1255058    -4.665896    5015.2523            1 
   10300    2.1368589   -4.6465589     5020.649            3 
   10400    2.0997614   -4.6344934    4992.2625       -1e+20 
   10500    2.1052421   -4.6709082    4995.6569       -1e+20 
   10600    2.1093117   -4.6392214    4994.5502            1 
   10700     2.119683   -4.6518887    5021.2856            1 
   10800    2.1344746   -4.6288347    5034.3658       -1e+20 
   10900    2.1389709   -4.6748842    5031.4555       -1e+20 
   11000    2.1432483   -4.6484369    5020.3204       -1e+20 
   11100    2.1395995   -4.5809393    5053.8244            1 
   11200    2.1065656   -4.6548692    5039.0009       -1e+20 
   11300    2.1429484   -4.6239618    5031.9866       -1e+20 
   11400     2.110278   -4.6909461    5022.7609       -1e+20 
   11500    2.1409734   -4.6611988    5007.9642            1 
   11600     2.145819   -4.6400958    5024.2361            1 
   11700    2.0814291   -4.6320885    5006.0889            1 
   11800    2.1370597   -4.6333008    5007.7303            1 
   11900    2.1339207   -4.6928281    5048.8882            1 
   12000    2.1419983    -4.638274    5010.1736            1 
   12100    2.1432284   -4.5995086    5024.3886            1 
   12200    2.0885741   -4.6116294    5038.9219       -1e+20 
   12300    2.1562628   -4.6532108    5001.1833            2 
   12400    2.0873431   -4.6697412    5010.4389            1 
   12500    2.1256225   -4.6366322    5033.8124       -1e+20 
   12600    2.1473931   -4.6223691    5040.1872            1 
   12700    2.0964204   -4.6590825    5026.7701            2 
   12800    2.1822626    -4.676153    5019.1067            3 
   12900    2.1820843   -4.6243432     5072.179            1 
   13000      2.12952   -4.6195619    5035.6709            3 
   13100    2.1552407   -4.6407942    5048.7798            1 
   13200    2.1121916   -4.6622987    5054.9285            1 
   13300    2.1922426   -4.6602722    4979.3553            1 
   13400    2.0784785   -4.6691601    5056.2007       -1e+20 
   13500    2.1416731   -4.6547009    5002.1907            1 
   13600    2.1450311   -4.6493165     5010.812            1 
   13700    2.1179305   -4.6883099    5020.8632            1 
   13800    2.1435903   -4.6717237    5001.7922            1 
   13900    2.1369919   -4.6182532    5025.6377       -1e+20 
   14000    2.1493582    -4.626166    5052.2349            1 
   14100    2.1098367   -4.6353036    5008.2062            1 
   14200    2.1275924   -4.7206102    5001.4057            1 
   14300    2.1521051   -4.7100585    5002.4551       -1e+20 
   14400    2.0975812   -4.6281764    5036.4949            1 
   14500    2.1759208   -4.6187186    5017.4433       -1e+20 
   14600    2.0941278    -4.639315    5007.6088            1 
   14700    2.1109399   -4.6270034    5052.5516       -1e+20 
   14800    2.1860686   -4.6298791    5028.3052            1 
   14900    2.1438031   -4.6765922    5014.4057            1 
   15000    2.1017658    -4.691076    4982.1795            1 
   15100    2.0980096   -4.6510146    4998.1913       -1e+20 
   15200    2.1036549   -4.6127995    5051.9747            1 
   15300    2.1436271   -4.6213982    5013.2204            1 
   15400    2.1188159   -4.6319642    5018.3223            1 
   15500    2.1205793   -4.6665157    5047.0429       -1e+20 
   15600    2.1251607   -4.6269894     4993.157            2 
   15700    2.1125629   -4.6981219    5005.8412            1 
   15800    2.1074497   -4.7116966    4979.0749            1 
   15900    2.1347104   -4.6606295    5014.5368       -1e+20 
   16000    2.1257942   -4.6491427    5016.9902       -1e+20 
   16100    2.1603543   -4.6171707    5049.7554            1 
   16200    2.1308636   -4.6424277    5026.5524            2 
   16300    2.1177845   -4.6594207    5015.0617       -1e+20 
   16400    2.1667375   -4.6334779    5020.1585            1 
   16500    2.1059887    -4.604928    5050.2966            1 
   16600    2.1360629   -4.6838934    4978.5446            1 
   16700    2.1109614   -4.6592253    5004.0386       -1e+20 
   16800    2.1076855   -4.6638237    5036.3108       -1e+20 
   16900    2.1947485   -4.6811047    5003.7856            1 
   17000    2.0866813   -4.6568654    5031.4785            1 
   17100    2.1377482   -4.6438962    4992.3051            1 
   17200    2.1249045   -4.6622239    5025.7956            1 
   17300    2.1097166   -4.6386957    5011.2891            1 
   17400     2.155101   -4.6442434    5010.5802            2 
   17500    2.0902638   -4.6772442    5044.8096            1 
   17600    2.1803745   -4.6515885    4969.9818            1 
   17700    2.0883251   -4.6792556    5040.0146       -1e+20 
   17800    2.1306075   -4.6153906    5057.3138            1 
   17900    2.1858825   -4.5943034    5055.5983            1 
   18000     2.129173   -4.6130122    5070.0663            1 
   18100    2.1638011   -4.6707837    5008.4329            1 
   18200    2.1438735   -4.7071596    5012.1563       -1e+20 
   18300    2.1495249   -4.6684052    5019.2628            1 
   18400    2.1027039   -4.6232155    5013.9218       -1e+20 
   18500    2.1276941    -4.598501    5027.9078            2 
   18600    2.1308575    -4.646109    5032.9411            1 
   18700    2.1008529   -4.6209036     5009.786       -1e+20 
   18800    2.1230338   -4.5699445    5012.6968            3 
   18900    2.1261526   -4.6507396    5055.9006            1 
   19000     2.113392   -4.6347316    5029.8581       -1e+20 
   19100    2.1604857   -4.6281071    5008.1658            1 
   19200    2.0872072   -4.6186359    5063.5275            1 
   19300    2.1946105   -4.6361332    5020.7403       -1e+20 
   19400    2.1060365   -4.6338459    5001.1502       -1e+20 
   19500    2.1272271   -4.6966443    4985.1073            1 
   19600    2.1264641   -4.7389726    4977.4278            2 
   19700     2.114222    -4.662189    5019.9253            1 
   19800    2.1024273   -4.7103627    4989.5978            1 
   19900    2.1421753   -4.6904706    4990.9703            1 
   20000    2.1283162   -4.6430522    5022.8239            1 
   20100    2.1427987   -4.6649833     5030.345            1 
   20200    2.1413576   -4.6785611    5025.7531            1 
   20300    2.1289888   -4.6184901    5048.9522       -1e+20 
   20400    2.0969026   -4.6254901    5020.1441            1 
   20500    2.1358277   -4.6170731    5038.7579            2 
   20600     2.113502    -4.605346    5029.0357       -1e+20 
   20700    2.0937087   -4.6444135    5015.4426            1 
   20800    2.1461451   -4.6554885    5035.3484            1 
   20900    2.1641182   -4.6138316    5042.2037            1 
   21000    2.1151608   -4.6030744    5056.9488            1 
   21100    2.1635202    -4.654481    5035.0558            1 
   21200      2.09412   -4.6524094    5008.4572            1 
   21300    2.1660913   -4.7033088    5007.4616            1 
   21400    2.1465425   -4.6871034    5009.9897            1 
   21500    2.1050307    -4.672789    5029.1112            1 
   21600    2.1528065    -4.618992    5043.4819       -1e+20 
   21700    2.1423376   -4.6372786    5013.6908            1 
   21800    2.1202613   -4.7062581    4974.8381            1 
   21900    2.1188131   -4.6310008    5010.0812            1 
   22000    2.1291968   -4.6323398    5056.5597            1 
   22100    2.1485271   -4.6762166    5031.2621            1 
   22200    2.1537058   -4.6621761    4993.9874            2 
   22300    2.0935452   -4.6217132    5036.9497            1 
   22400    2.1600808   -4.6642913     5047.586            1 
   22500    2.1437737   -4.6275922    5001.7414            1 
   22600    2.0968471   -4.6998841    5023.1356            1 
   22700    2.1232476   -4.6621262    5010.5692            1 
   22800    2.1710939   -4.6338247    5010.6566            1 
   22900    2.1078423   -4.6399362    5023.7828            1 
   23000    2.1478605   -4.6754564    5022.3968            1 
   23100    2.1068809   -4.6276563    5030.2553            1 
   23200       2.1641   -4.6424178    5032.1481            1 
   23300     2.123476   -4.6411908    5011.9892       -1e+20 
   23400    2.1338683    -4.662594    5009.0775       -1e+20 
   23500    2.1823217   -4.6774444    5040.3931            1 
   23600    2.1135335   -4.6699237    5028.2786            1 
   23700    2.1027879   -4.6256405    4984.7467            1 
   23800    2.1428072   -4.6415736    5028.2395       -1e+20 
   23900    2.1240205   -4.6552309    5038.3541            1 
   24000     2.126182   -4.6786593    4994.0645            1 
   24100    2.1100251   -4.6783484    4995.2387            2 
   24200    2.1203732    -4.668106    5034.6685            1 
   24300    2.1755617   -4.6452913    5024.7256            1 
   24400    2.1280739   -4.7091866    5022.5811            1 
   24500    2.1029178   -4.6235812    5023.8827       -1e+20 
   24600    2.1513712   -4.5888295    5053.0406            1 
   24700    2.1290062   -4.6447611    5055.9872            1 
   24800    2.1623133   -4.6790197    5009.6396            1 
   24900    2.0912024   -4.6727883     5012.049            1 
   25000    2.1433871    -4.653189    5008.2228            1 
   25100    2.1855141   -4.6559533    5022.0731       -1e+20 
   25200     2.094188    -4.676475    5057.9025            1 
   25300    2.1405715   -4.6171021    4992.6321            3 
   25400    2.1108262   -4.6780773     5007.616            1 
   25500    2.1355351    -4.633236    5040.8784       -1e+20 
   25600    2.1603568   -4.6235738    5041.4835            2 
   25700    2.1330703   -4.6639705    4992.9912       -1e+20 
   25800    2.1298472   -4.6238792    5043.9864       -1e+20 
   25900    2.1250349   -4.6007274    5039.8743       -1e+20 
   26000    2.1109093   -4.6439756    5025.5522            2 
   26100    2.1198502   -4.6490132     5009.939            1 
   26200    2.1492085   -4.6357478    5039.4016       -1e+20 
   26300    2.1534358   -4.6569322    5023.8771       -1e+20 
   26400     2.115996   -4.6983347    4997.5695       -1e+20 
   26500    2.1729229   -4.6486127    5001.1991            1 
   26600       2.1047   -4.6419724    5029.8709            1 
   26700    2.1201249   -4.5805652    5022.7221       -1e+20 
   26800    2.1656729   -4.6027327    5057.5269            1 
   26900     2.123143   -4.6333839    5062.9329            2 
   27000    2.1760954   -4.6544586    4987.3096            1 
   27100     2.100919   -4.6845826    5023.5437            1 
   27200    2.1310123   -4.6265394    5022.6801            1 
   27300    2.1379057   -4.6335274    5014.0666            1 
   27400    2.0671973    -4.638388    5038.2353            1 
   27500    2.1552226   -4.6385592    5015.1309            1 
   27600    2.1219353   -4.6576107    5020.2134       -1e+20 
   27700    2.1619386   -4.6299535    5033.6549            1 
   27800     2.107369   -4.6461326    5017.9666       -1e+20 
   27900    2.1391568   -4.6225549    5033.9561            1 
   28000    2.1053816    -4.672121    5028.4879            1 
   28100    2.1365095   -4.6593937     4983.966            1 
   28200    2.1011778   -4.6852545    5005.8489            1 
   28300    2.1405333   -4.6630917    5022.2614            1 
   28400    2.1552943   -4.6743235    5019.1244            1 
   28500    2.0902678   -4.7009048    5017.5467            2 
   28600    2.1749847   -4.7030384    5024.7216            1 
   28700    2.1752064   -4.6260524     5015.904            1 
   28800    2.0802645   -4.6504881    5056.3971       -1e+20 
   28900    2.1749228   -4.6403848      4978.37            1 
   29000    2.1037757   -4.6446806    5036.2929            1 
   29100    2.1145284   -4.6295632    5036.9129            1 
   29200    2.2181977   -4.6448904    5032.1725       -1e+20 
   29300    2.1246104   -4.6445192    5023.0657            1 
   29400     2.109213   -4.6612516    4998.0682            1 
   29500    2.1469667   -4.6539581    5021.0826            1 
   29600    2.1580009   -4.6463446     5038.742            1 
   29700    2.1051728   -4.6637271    5003.3596            1 
   29800    2.0960881   -4.6390901    5044.5433            1 
   29900    2.1477876   -4.6130871    5022.9425            1 
   30000    2.1229755   -4.6440497     5032.793            2 
   30100    2.0882157   -4.6505283    5001.4011            1 
   30200    2.2068029   -4.6921482    5025.9395            1 
   30300     2.158869   -4.6422595    5054.0954            1 
   30400    2.1293645   -4.6606578    5018.1473            1 
   30500    2.1609096   -4.7206392    4997.3102            1 
   30600     2.157029   -4.6656234    5029.5387            1 
   30700    2.1444926   -4.6386033    5030.1051            1 
   30800    2.1244523   -4.6757616    5012.6391       -1e+20 
   30900     2.139442   -4.6881636    4992.5363       -1e+20 
   31000     2.114114   -4.6925925    4987.9717       -1e+20 
   31100    2.1198528     -4.66711    5063.5586            1 
   31200    2.1836913   -4.6190416    5011.6797            2 
   31300    2.1307013   -4.6573604     4997.529       -1e+20 
   31400    2.0565169   -4.6231783    5039.5428            1 
   31500    2.1469097   -4.6190544    5025.7391       -1e+20 
   31600    2.1460015   -4.6936826    5010.2032            1 
   31700    2.0861818   -4.6634012    5009.3824            2 
   31800    2.1623561   -4.6520175      5016.06            1 
   31900     2.125133   -4.6381284    5065.2851            1 
   32000    2.1678213   -4.6184683     5041.533            1 
   32100    2.1388372   -4.6303648    5053.4999            1 
   32200    2.1208832   -4.6515242    5036.1378       -1e+20 
   32300    2.1693219   -4.6932937    4996.8432            1 
   32400    2.1360272   -4.6531062    5040.5338            1 
   32500    2.1648614   -4.6929192    5007.5947       -1e+20 
   32600    2.1109764   -4.6687375    5002.8867       -1e+20 
   32700    2.1446406   -4.6312155    5037.7248            1 
   32800    2.1264354   -4.6450018    5017.0947            1 
   32900    2.1203269   -4.6262103    5027.3538            2 
   33000    2.1418256   -4.6579054    5017.8595            1 
   33100    2.1161646    -4.665612    5006.7987            1 
   33200    2.1493474   -4.6444699    5038.4377            1 
   33300    2.1525334   -4.7062466    4973.7148       -1e+20 
   33400    2.0846255   -4.7171286    5017.0898       -1e+20 
   33500    2.1667625   -4.6893869    5013.8546            1 
   33600    2.1265244   -4.6532927    5029.1537       -1e+20 
   33700    2.1775624   -4.6675638    5037.2696            1 
   33800    2.1392159   -4.6955744    4989.4234            1 
   33900    2.1335488   -4.6681793    4994.1992            1 
   34000    2.1416018   -4.6767001    5047.3641            1 
   34100    2.1332278   -4.6106236    5040.0697            1 
   34200    2.1777965    -4.583247    5070.5162       -1e+20 
   34300    2.1348251   -4.6415889    5053.7591            1 
   34400    2.1369451   -4.6992382    5002.6543            1 
   34500     2.111987   -4.6457743    4995.7439            1 
   34600    2.1374643   -4.6505495    5037.3301            1 
   34700    2.0946295   -4.6346626    5008.2367       -1e+20 
   34800    2.1246789   -4.5696736    5021.6249       -1e+20 
   34900    2.1363488   -4.6864654    5055.5257            1 
   35000    2.1572278   -4.6658088    5026.3709            1 
   35100    2.1431007   -4.6330028    5045.3284            1 
   35200    2.1116233   -4.6409136    5002.2838            1 
   35300    2.1664295   -4.6511364     5031.562            2 
   35400    2.1374598   -4.6450428    5025.6193            1 
   35500    2.0743761    -4.596486    5025.0811            1 
   35600    2.1705714   -4.6264535    5038.0599            1 
   35700    2.1454332   -4.6874199     5020.873            1 
   35800    2.1308517   -4.6868247    5006.6041            1 
   35900    2.0893175   -4.6991935    4991.0028            1 
   36000    2.1517026   -4.6829705    5021.3215            1 
   36100    2.1427483   -4.6465506    5021.5052            1 
   36200    2.1581154   -4.6749357     5027.778            3 
   36300    2.1124082   -4.6850639    5010.0129            1 
   36400     2.090218   -4.7262964    4968.8804            1 
   36500    2.1466524   -4.7058486    4992.1727            1 
   36600    2.1148702   -4.6461089    5013.7782       -1e+20 
   36700    2.1617171   -4.6345807      5078.06            1 
   36800     2.133342   -4.6440852    5002.5106            1 
   36900    2.1083109   -4.6167183    5053.3381            1 
   37000    2.1492751   -4.6329698    5030.5989       -1e+20 
   37100    2.1211576   -4.6792327    4977.9023       -1e+20 
   37200    2.0936509   -4.6608593     5000.689       -1e+20 
   37300    2.1337606   -4.6659195    5042.4711            3 
   37400    2.1640386   -4.6008019    5034.1562            1 
   37500    2.1059873   -4.6338377      5057.44            1 
   37600    2.1365232   -4.5951399    5010.4518       -1e+20 
   37700    2.1350953   -4.7016932    4984.2498            1 
   37800    2.0656071   -4.6972134     5006.936            1 
   37900    2.1294754   -4.6455792    4979.8758            1 
   38000    2.1570176   -4.6831931    5031.8016            1 
   38100    2.1306018   -4.6556811    5047.9073            1 
   38200    2.1521519   -4.6288931    5040.0979            1 
   38300    2.1452575   -4.6585712    5020.1095            1 
   38400    2.1441912   -4.6755162    5033.3141            1 
   38500    2.1074081   -4.6895497    5019.9672            1 
   38600    2.1324352   -4.6584127    4987.2193            1 
   38700    2.1249598   -4.6556643    5024.1829            1 
   38800    2.1187718   -4.6330701    5024.9502       -1e+20 
   38900    2.1602255   -4.6077164    5034.0084            1 
   39000    2.1364976    -4.660539    5013.1961            1 
   39100    2.1303567    -4.697698    5002.8739            1 
   39200    2.0955242   -4.7027646    4999.5858       -1e+20 
   39300    2.1498319   -4.6547948    5018.5367            1 
   39400    2.0957574   -4.6514981    5015.6328            2 
   39500    2.1606531   -4.6861961    4997.1069            1 
   39600     2.093087   -4.6462674    5028.0837       -1e+20 
   39700     2.056508   -4.6811481    4960.3531            1 
   39800    2.0825738   -4.6668152    4989.0242            1 
   39900     2.115756   -4.6325373    5011.1898            1 
   40000    2.1231917   -4.6688248    5011.8273            1 
   40100    2.1215182   -4.6487006    4985.9192            1 
   40200    2.1059228   -4.6265896    5041.2954            1 
   40300    2.1759571   -4.6576376    5023.3541            1 
   40400    2.1422935   -4.6382517    5070.2784            2 
   40500    2.1404633     -4.58981    5042.0458       -1e+20 
   40600    2.1376163   -4.6063486    4997.7009       -1e+20 
   40700    2.1198146   -4.6474379    5058.8312            1 
   40800    2.1524264   -4.6471905    5040.6185            1 
   40900    2.1425561   -4.6070031    5018.1368            1 
   41000    2.0637618   -4.6253991    5026.1805            1 
   41100    2.1665682   -4.6499259    5025.7735            1 
   41200    2.1104602   -4.6547909    5014.9052       -1e+20 
   41300    2.1249857   -4.6430293    5011.1291            2 
   41400    2.1473013   -4.6515237     5041.989            3 
   41500    2.1346603   -4.6501805    5007.9253            1 
   41600    2.1264903   -4.6749947     5027.546       -1e+20 
   41700    2.1555614   -4.6123633    5033.0927       -1e+20 
   41800     2.146374   -4.6367284    5010.0926            2 
   41900    2.0753407   -4.6988976    5038.9344            2 
   42000    2.1668009   -4.6379492    4984.4097            1 
   42100    2.1463768   -4.6440709    5044.1943            1 
   42200    2.0897991   -4.6326508    5031.2404            2 
   42300    2.1539505   -4.7039211    4986.6614            1 
   42400    2.1510784   -4.6408838    5051.8469            1 
   42500    2.1179153   -4.6019142      5033.02            1 
   42600    2.1038852   -4.6493174     5004.739            1 
   42700    2.1555776     -4.68756    5009.2773            1 
   42800    2.0689533   -4.6051892     5030.405            2 
   42900    2.1668408   -4.6218738     5023.223       -1e+20 
   43000    2.0982114   -4.5763414    5068.8714            1 
   43100    2.1208427   -4.6213306    5047.1343       -1e+20 
   43200    2.1371459   -4.6062703    4991.1747            1 
   43300    2.0789458   -4.6452263    5041.6576       -1e+20 
   43400    2.1653036   -4.6520323    5025.7079            1 
   43500    2.1421954   -4.6516427    5030.3376            1 
   43600    2.1266339    -4.661183    5043.7082            1 
   43700     2.143383   -4.6776956    4976.2717            1 
   43800    2.1369986   -4.7063029    5018.9491            1 
   43900    2.1166932   -4.6506341    5037.1211            1 
   44000    2.1809055   -4.6003655     5006.377            1 
   44100    2.1115175   -4.6645861    5036.6302       -1e+20 
   44200    2.1250383   -4.6596623    5012.1086            1 
   44300    2.1703352   -4.6248271    5006.8176            1 
   44400    2.0986207   -4.6181497    5058.6152            1 
   44500     2.157079    -4.652303    5009.9278            1 
   44600     2.102572    -4.640094    5003.9639            1 
   44700    2.1319095    -4.663664     5026.509            1 
   44800    2.1725246   -4.6506986    5014.8014            2 
   44900    2.0878016   -4.6206415    5050.7517       -1e+20 
   45000    2.1556687   -4.6661769    4996.5028       -1e+20 
   45100     2.131201    -4.706572    4991.0857            1 
   45200    2.1620881   -4.6795141    5023.6861            3 
   45300    2.1275298   -4.6351589    5037.4296            1 
   45400    2.1177689   -4.6616866     5011.363            2 
   45500    2.1229179   -4.6799591     5024.161            1 
   45600    2.1734487   -4.6414766     5014.018            1 
   45700    2.0731911   -4.6371104    5056.8784            1 
   45800    2.1760488   -4.6156358    4986.0222            1 
   45900    2.1069149   -4.6611375    5031.0593            2 
   46000    2.1393953     -4.63268     5034.083            1 
   46100    2.1823388   -4.6445421    5042.0239            1 
   46200    2.1226513   -4.6565586    5021.8095            2 
   46300    2.1169908   -4.6634736    4997.4553            1 
   46400    2.1362615   -4.6349873    4996.8739            1 
   46500    2.1351687   -4.5732065    5047.9932       -1e+20 
   46600    2.1073066   -4.5672028    5061.7593       -1e+20 
   46700    2.1345996   -4.6230921    5017.6918       -1e+20 
   46800    2.0766299   -4.6541235    5019.4861            1 
   46900    2.1228789   -4.6475172    4997.4396            1 
   47000    2.1574834    -4.658889    5016.2703            1 
   47100    2.1038608   -4.6351385     5032.529            1 
   47200    2.1447678   -4.6896969    4986.2278            1 
   47300    2.1018205   -4.6939821    5007.0559            1 
   47400    2.1445525   -4.6968306    5010.1849            2 
   47500    2.1651845   -4.6280897    5014.5025       -1e+20 
   47600    2.1276629   -4.6510786    5067.7419            1 
   47700    2.1313742   -4.6249835    5007.5269       -1e+20 
   47800    2.1114877   -4.6472415    5015.1266            1 
   47900    2.1089367   -4.6828582    5019.1702            1 
   48000    2.1237953   -4.6898799    4965.9893            1 
   48100    2.1219672   -4.6384214    5035.8451       -1e+20 
   48200    2.1619752   -4.6509523    5039.3184            1 
   48300    2.1403208   -4.6552692    5012.7368            1 
   48400    2.0977408   -4.6401825    5016.7706            1 
   48500    2.1568569   -4.6208148    5023.3086       -1e+20 
   48600    2.1024001   -4.6522906    5036.0474            1 
   48700    2.1208417   -4.6247539     5039.791            1 
   48800    2.1799469   -4.6787431    5022.0399            1 
   48900    2.1234087   -4.6918147    5009.6688            1 
   49000    2.1023874   -4.7304996    4999.9645            1 
   49100    2.1108934   -4.6261038    5013.3013            1 
   49200    2.1565084    -4.660061    5031.0477       -1e+20 
   49300     2.079357   -4.6734031    5012.2908       -1e+20 
   49400    2.1453099   -4.6732953    4991.6346            1 
   49500    2.1290832   -4.5958462    5053.1633            1 
   49600    2.1413849   -4.6469219    5015.8629            2 
   49700     2.115262   -4.6630702    4997.3005            1 
   49800     2.137051    -4.654848    5020.5884            1 
   49900    2.1260388    -4.634934    5022.0854            1 
   50000    2.1168438   -4.6391973     5000.619            1 
   50100    2.1254759   -4.6704307    5015.0189            1 
   50200    2.0781997   -4.6406233     5016.677            1 
   50300    2.1799567   -4.6550863    5000.7085            1 
   50400    2.1123312   -4.6625795    5022.5616       -1e+20 
   50500    2.1425526   -4.6750346    5015.8108            1 
   50600    2.1257979    -4.687912    4974.3435            1 
   50700    2.0826025   -4.6818287    4998.9128            1 
   50800    2.1354556   -4.6466281    5043.7037       -1e+20 
   50900    2.1518251   -4.6521429    5046.9392            1 
   51000      2.12944   -4.6592178    5000.2426       -1e+20 
   51100    2.0819559    -4.633708    5023.1388            1 
   51200    2.1575353   -4.6336255    5031.3863            1 
   51300    2.1208782   -4.6406873     5018.018            1 
   51400    2.1422944   -4.6399457    5014.9829       -1e+20 
   51500    2.1140118   -4.6723499    5007.3882            1 
   51600    2.1183929   -4.6893746    4991.8768            1 
   51700    2.1458379   -4.6507109    5046.6225            1 
   51800    2.1203773   -4.5911445    5030.6568       -1e+20 
   51900    2.1167156   -4.6600182    5001.6773            1 
   52000    2.1157659   -4.6839497     4996.329            1 
   52100    2.1405661   -4.6789258    4987.8178       -1e+20 
   52200    2.1226822   -4.6879604    5032.2056       -1e+20 
   52300    2.1483334    -4.642265    5004.7293            1 
   52400    2.1003764   -4.6763088     5000.688            1 
   52500    2.1448756   -4.6727156    5007.8595            1 
   52600    2.1152355   -4.6019105    5027.9233            1 
   52700    2.1663267   -4.6306876    5039.5276            4 
   52800    2.1155345   -4.6587772    5055.6652            1 
   52900    2.1639418   -4.6760778    5009.0627            1 
   53000    2.1123399   -4.6900325    4990.1538            2 
   53100    2.0961573   -4.6364452    5038.4225            1 
   53200    2.1832041   -4.6164378    5010.3204            1 
   53300    2.1175492   -4.6501453    5039.4423       -1e+20 
   53400    2.0930677   -4.6419881    5040.9235            1 
   53500    2.1699557   -4.6155781    4995.5807            1 
   53600    2.1139253   -4.6739842    5034.5811            1 
   53700     2.105333    -4.724721    5013.1769       -1e+20 
   53800    2.1494649   -4.6663594    5016.5853            3 
   53900    2.1462806   -4.6753379    5016.3417            1 
   54000    2.1491208    -4.656451    5028.9885       -1e+20 
   54100    2.0987632   -4.6596077    5011.2467       -1e+20 
   54200    2.1408221   -4.6382736    5001.8602            1 
   54300    2.1309155    -4.655114    5036.2153            1 
   54400    2.0911862   -4.6450978    5017.2882       -1e+20 
   54500    2.1464682   -4.5945571     5015.902            1 
   54600    2.1085171   -4.6454069    5024.4892            1 
   54700    2.1353361   -4.6800427    5019.5132            1 
   54800    2.1498181   -4.6821523    5008.4642       -1e+20 
   54900     2.172595   -4.6398385    5051.1755            1 
   55000    2.0999697   -4.6139319    5035.5516       -1e+20 
   55100    2.0975197   -4.6430238    4990.4863       -1e+20 
   55200    2.1185249   -4.6419004    5000.6022            1 
   55300    2.1000081   -4.6583798    5041.7632            2 
   55400    2.1809068   -4.6070305    4987.2247            1 
   55500    2.1100162   -4.6908847    5019.7139            1 
   55600    2.1217269   -4.6626799    5023.3128       -1e+20 
   55700    2.1661484    -4.616556    5019.0866            1 
   55800    2.1229169    -4.671535    5062.6055            2 
   55900    2.1701117   -4.6159998    5056.2315       -1e+20 
   56000    2.1625927    -4.653139    5000.3042            1 
   56100    2.1119747    -4.670492     5025.849            1 
   56200    2.1299958   -4.6082616    5043.1949            1 
   56300    2.1585483   -4.6551387    5036.1973            1 
   56400    2.1363075   -4.6764913    5031.2656            1 
   56500    2.0902136   -4.6784331    4981.8601            1 
   56600    2.1256613   -4.6726036     5019.918            1 
   56700    2.1474315   -4.6588003    5018.0044       -1e+20 
   56800    2.0946797   -4.6469015    5029.1524       -1e+20 
   56900    2.1140308   -4.6188777    5020.3676       -1e+20 
   57000     2.129687   -4.6230574    5004.5239       -1e+20 
   57100    2.1038193   -4.6261182    5039.2546       -1e+20 
   57200    2.1324504   -4.6949912    4999.8061            1 
   57300    2.1336615   -4.6971786    4980.9876            1 
   57400    2.1531275    -4.665207    5023.2522            1 
   57500    2.1224592   -4.5856253    5045.5165       -1e+20 
   57600     2.089481   -4.6650009    5035.0409            1 
   57700    2.1713587   -4.7087613    4967.7594            1 
   57800    2.0694676   -4.6772063    4989.6532            1 
   57900    2.1214268   -4.6620327    5045.0208            2 
   58000    2.1910566   -4.6216284    5010.9771            1 
   58100    2.1024051   -4.6451448    5055.3608            1 
   58200     2.103619   -4.6041471    5013.8692            2 
   58300    2.1399212   -4.6300525    4989.8818            1 
   58400    2.1067976   -4.6870198    5060.1901            1 
   58500    2.0945122   -4.6849011    4968.1051       -1e+20 
   58600     2.165163   -4.6970141    5002.1007            1 
   58700     2.151718   -4.6898201    5025.7067            1 
   58800    2.0980762   -4.6994654    5015.9195            1 
   58900    2.1425716   -4.6310712    5008.7217            1 
   59000    2.1425399   -4.6541103    5026.3041            1 
   59100    2.0885273   -4.6776442    5028.4995            1 
   59200    2.1479936    -4.640302    5018.7547       -1e+20 
   59300    2.1325618    -4.641843    5020.5816            1 
   59400    2.0793044   -4.6589533    5002.5259            1 
   59500    2.1281401   -4.6422389    5006.5663       -1e+20 
   59600    2.1234806   -4.6336303    5028.0968       -1e+20 
   59700     2.088663   -4.6670364    5003.1833            1 
   59800    2.1282963   -4.6824199    4982.2139       -1e+20 
   59900     2.117259   -4.6332181     5017.738       -1e+20 
   60000    2.1623544   -4.6448274    5036.3306            1 
   60100    2.1220408     -4.63676    5020.1996            1 
   60200    2.1101742   -4.6544237    5030.0038            1 
   60300    2.1600714   -4.5876135     5028.947            1 
   60400    2.1187885   -4.6157759    5019.9043            1 
   60500    2.1153421   -4.6598967    5032.0355            1 
   60600    2.1757366   -4.6793401    5006.0143       -1e+20 
   60700    2.0896962   -4.6712336     5006.729            1 
   60800    2.1111951   -4.6698847    5003.1765            1 
   60900    2.1614701   -4.6690553    5028.5194            1 
   61000    2.0779438   -4.6217038     5035.663            1 
   61100    2.1922176    -4.648907    4996.6948            1 
   61200    2.0671537    -4.641113    5036.9299            1 
   61300    2.1715297   -4.6915657    5062.3415            1 
   61400    2.1186027   -4.5861431    5012.2388       -1e+20 
   61500    2.1209145   -4.6484209     4999.408            1 
   61600    2.1287284   -4.7024912    5038.0841            1 
   61700    2.1252614    -4.653786    4997.4804            1 
   61800    2.1475387   -4.6455962    5032.5483            1 
   61900    2.1136413   -4.6232153    5017.0845            1 
   62000      2.16907    -4.714153    5020.0354       -1e+20 
   62100    2.1303418   -4.6443934    5040.3559            1 
   62200    2.1386477   -4.6067814    5013.3963            1 
   62300    2.0821797   -4.6413513    5048.4251       -1e+20 
   62400     2.175981   -4.6384863    4999.1814       -1e+20 
   62500    2.1140047   -4.6726365    5045.9063       -1e+20 
   62600    2.1708856    -4.630436    5020.5882       -1e+20 
   62700    2.1352966   -4.6384351    5005.5765       -1e+20 
   62800    2.0775308   -4.6565024    5007.2664            1 
   62900    2.1340129   -4.6645237    4997.4138       -1e+20 
   63000    2.1308288   -4.6500733    5027.0838            1 
   63100    2.1294013   -4.6470825    5027.7646       -1e+20 
   63200    2.1522384   -4.6538108    4987.5087            1 
   63300    2.1129786   -4.6634264    5040.2774            1 
   63400    2.1333985   -4.6561331    5002.4648            1 
   63500    2.1397289   -4.6365763    5026.4826            1 
   63600    2.0939771   -4.6525941    5014.3419       -1e+20 
   63700    2.1445239   -4.6188438    5043.9517            1 
   63800    2.1803179   -4.6498548    5031.6827            1 
   63900     2.119092   -4.6796327    5001.6578            2 
   64000    2.1277661   -4.6639075    5015.7926            1 
   64100    2.1440835   -4.6402427    5031.4664            1 
   64200    2.1413746    -4.638326    5024.6562       -1e+20 
   64300    2.0792895   -4.6775471    5011.6219            1 
   64400    2.1038035   -4.6073371    4975.5229            1 
   64500    2.1657905    -4.656497    5031.4038       -1e+20 
   64600    2.1084398   -4.6570961    5037.3757            1 
   64700    2.1522019   -4.6446769    5032.8616            1 
   64800    2.1228637    -4.608771    5034.2453       -1e+20 
   64900    2.1389772   -4.6608634    5006.6593            1 
   65000    2.1206445   -4.6533655    5008.8371            2 
   65100    2.1876464   -4.6458368    5043.0439            1 
   65200    2.1350658   -4.6162839    5000.6005            1 
   65300    2.1097397   -4.6580679    5023.4071            1 
   65400    2.1459012   -4.6350558     5067.531       -1e+20 
   65500    2.1618526   -4.6237362    5014.1708            1 
   65600    2.1183851   -4.6704795    5020.2289            1 
   65700    2.1660546   -4.6624611       5030.8            2 
   65800    2.1436089   -4.6855175    5034.1764            1 
   65900    2.1510517    -4.641304    5015.2836       -1e+20 
   66000      2.15736   -4.6658068    5045.2049            1 
   66100    2.1261657   -4.6729581    5011.3816       -1e+20 
   66200    2.1375788   -4.6411294     4999.973            1 
   66300    2.1344405   -4.6381259    5025.2657            2 
   66400    2.1272801   -4.6920925    5027.9754       -1e+20 
   66500    2.1661384   -4.6464009    5017.0467       -1e+20 
   66600    2.0969048   -4.6352588    5027.1876            1 
   66700     2.133956   -4.6257647    5028.0452            1 
   66800    2.1220201   -4.6834552    4999.1123            1 
   66900    2.1216817    -4.701655    4988.8961            1 
   67000    2.1799639    -4.665778    5000.0759            1 
   67100    2.1156814   -4.6681644    5026.4702       -1e+20 
   67200    2.1552055   -4.6609552    5015.7139            1 
   67300     2.086022   -4.6881566    5023.5689            1 
   67400    2.1645384   -4.6998577    4982.0876            1 
   67500    2.1262828   -4.7073608    4989.0591            1 
   67600    2.0815985   -4.6669264    5019.1038            2 
   67700    2.1667862   -4.6487125    5018.1939       -1e+20 
   67800    2.1024539   -4.6388696    5024.6463            1 
   67900    2.1849333   -4.6278868    5023.8575            1 
   68000    2.1045306   -4.6186768    5040.4764            1 
   68100     2.134789   -4.6587712    5019.6155       -1e+20 
   68200    2.1487387   -4.6025506    5028.2344            1 
   68300    2.1177366   -4.6318357    5038.8533       -1e+20 
   68400    2.1457293   -4.6512107     5035.037       -1e+20 
   68500     2.115852   -4.6372461    5029.3101            2 
   68600    2.1400147   -4.6260762    5031.7277       -1e+20 
   68700    2.1359455   -4.6196325    5037.9694            2 
   68800    2.1303087   -4.6359988    5017.2525            2 
   68900    2.1316114   -4.6298631    5022.5281            1 
   69000    2.1191792   -4.6471015    5060.5214       -1e+20 
   69100    2.1446595   -4.6366311    5002.2637            2 
   69200    2.1140065   -4.6358087    5042.8367       -1e+20 
   69300    2.1562522   -4.6719731    5051.7297            1 
   69400    2.1115334   -4.5758944    5016.6408            6 
   69500    2.1951115   -4.6447823    5055.4714       -1e+20 
   69600    2.1164696   -4.6502239    5053.9004       -1e+20 
   69700    2.1245562   -4.6697818    5011.7928            1 
   69800    2.1817249    -4.659128    4997.9266            1 
   69900    2.0745084   -4.6460804    5030.6621            1 
   70000    2.1692425   -4.6454824     4994.132            1 
   70100    2.1105429   -4.6931471    5034.2162            1 
   70200    2.1305423   -4.6147677    5019.1546            1 
   70300    2.1613246   -4.6237043    5027.3868            1 
   70400    2.1010983   -4.6367657    5052.6324       -1e+20 
   70500    2.1543014   -4.6661388    4997.2093            1 
   70600    2.1108252   -4.6487966    4999.2805            1 
   70700    2.1345826   -4.6907161     5040.934       -1e+20 
   70800    2.1565156   -4.6317869    5028.2473       -1e+20 
   70900    2.1266162   -4.6718893    5003.8944            1 
   71000    2.1191767    -4.622964     5045.652            1 
   71100    2.1560286   -4.6154295     5047.703            1 
   71200    2.1132985    -4.624744    5045.4567            2 
   71300    2.1843926   -4.6330059    5040.4062            1 
   71400    2.1229816   -4.6777678    5030.9538            1 
   71500    2.1314614   -4.6985256    4985.3557       -1e+20 
   71600    2.1323311   -4.6616228    4979.1356            1 
   71700    2.0875482   -4.6150412    5053.3564            1 
   71800    2.1683838   -4.6224648    5033.9099            1 
   71900    2.1429613   -4.6936396    5016.9202       -1e+20 
   72000    2.1520269   -4.6969165    5046.6888            2 
   72100    2.1454221   -4.6261731    5051.2561       -1e+20 
   72200    2.1324394   -4.6156572    5000.9977            1 
   72300    2.0815365   -4.6666636    5011.3878            1 
   72400    2.1226138   -4.6169818    5026.3496            1 
   72500    2.1528359   -4.5791757    5023.9387            1 
   72600    2.1283629   -4.6721723    5018.2565            1 
   72700    2.1233256   -4.6704883     5001.983            1 
   72800    2.1727264   -4.6971605    5006.8829            1 
   72900    2.0778356   -4.6542861     5026.159            1 
   73000     2.169564   -4.6287214    5009.2056       -1e+20 
   73100    2.1139935   -4.6269089    5036.4616            1 
   73200    2.1297873   -4.6595366    5051.7157       -1e+20 
   73300     2.172627   -4.6222977    5001.5649            1 
   73400    2.0866537   -4.6101702    5061.9564            1 
   73500    2.1718152   -4.6581378      5005.06            1 
   73600    2.0995365   -4.6449691    5028.4006       -1e+20 
   73700    2.1627214   -4.6519953    5026.7947            1 
   73800    2.0917256   -4.6569722    5005.7125            1 
   73900    2.1765048   -4.6692338     5030.208            1 
   74000    2.1256088   -4.6444897    5019.1494            1 
   74100    2.0664444    -4.683902    5000.4928            1 
   74200    2.1614241   -4.6864692    5011.6848            1 
   74300     2.146995   -4.6135824    5019.5659       -1e+20 
   74400    2.0596814   -4.6185844    5045.4023            1 
   74500    2.1298669    -4.622987    4998.6647            1 
   74600    2.0770496    -4.599582    5025.3163       -1e+20 
   74700    2.1753024   -4.6581661    5019.1254       -1e+20 
   74800    2.0963811    -4.622709    5032.5998       -1e+20 
   74900    2.1692006   -4.6850922    5020.9742            1 
   75000    2.0965438    -4.646634    4989.3578            1 
   75100    2.0884251   -4.5955721    5028.3221       -1e+20 
   75200    2.1380007   -4.5940701    5076.7674            1 
   75300    2.1426723   -4.6473399    5018.9442       -1e+20 
   75400    2.1090443   -4.6049089    4986.2358            1 
   75500    2.1766075   -4.6641916    5060.7049            1 
   75600    2.1398066   -4.6249923    5045.3423       -1e+20 
   75700    2.1119653   -4.6107156    5020.8775            1 
   75800    2.1622377   -4.6738507    5039.0437       -1e+20 
   75900    2.1043981   -4.6569638    5017.0583            1 
   76000    2.1515287    -4.661922    5004.3979            1 
   76100    2.1012469   -4.6525082    5021.1328       -1e+20 
   76200    2.1091051   -4.6685944    4964.3875            2 
   76300    2.0715811    -4.640406    5019.4806       -1e+20 
   76400    2.1237597   -4.6428324    5010.8868            1 
   76500    2.1624077   -4.6468892    5046.2239            1 
   76600     2.091031   -4.6048872    5056.6438       -1e+20 
   76700    2.1799713   -4.6210186    5019.9623            1 
   76800    2.1318783   -4.6984506    5012.5504            2 
   76900     2.104043   -4.6395203    5027.3746            1 
   77000    2.1440595   -4.6016705    5022.4431       -1e+20 
   77100    2.1184562     -4.66575    5013.3577       -1e+20 
   77200    2.1326095   -4.7091068    5019.3762       -1e+20 
   77300    2.1537306   -4.6750721     5009.454       -1e+20 
   77400    2.1214359   -4.6337868    5034.3824            1 
   77500    2.1439828    -4.584865    5061.9987            1 
   77600    2.1518662   -4.6616245    4997.9503            2 
   77700    2.1106232   -4.7185843    5004.0268            1 
   77800    2.1432463   -4.6511925    5001.1128       -1e+20 
   77900    2.1295057   -4.6442181    5046.8477            1 
   78000    2.1385575    -4.645688    5026.1121            1 
   78100    2.1393784   -4.6613574    5006.0247            1 
   78200    2.0793005   -4.6782364    5021.6836            2 
   78300    2.1498136   -4.6780757    4985.7762            1 
   78400    2.1372213    -4.642062    5039.4384            1 
   78500    2.1329938   -4.6565254    5059.3091       -1e+20 
   78600    2.1229376   -4.6515488    5018.8135            1 
   78700     2.149567   -4.6210213    5032.0167            1 
   78800    2.1519367   -4.7182492    5010.3751            1 
   78900    2.0645922   -4.6360982     5001.767       -1e+20 
   79000    2.1450586   -4.6333085    5004.1352            1 
   79100     2.119565   -4.6781435    5051.8264            1 
   79200    2.1534229   -4.6258901    5001.2919            1 
   79300    2.1205235   -4.6348653    5022.5986            1 
   79400    2.1028007    -4.668991    5034.2312            1 
   79500      2.15199   -4.6231916    5020.1307            1 
   79600    2.1095832   -4.6662976     5037.468            1 
   79700    2.1985244    -4.660843    5017.0454       -1e+20 
   79800    2.1008298    -4.633094    5026.0785            1 
   79900    2.1250603   -4.6809216    5003.2399            1 
   80000    2.1266363   -4.6695875    4995.5766            1 
   80100    2.1391878      -4.6723    5043.1748            1 
   80200    2.1833564   -4.6087719    5030.1661            1 
   80300    2.0885879    -4.604993    5053.7503            1 
   80400    2.1436953   -4.6370209    5045.9221            1 
   80500    2.1448224   -4.6145197    5042.3552            1 
   80600    2.1536432   -4.6224594    5070.4639            1 
   80700    2.1013236   -4.6088251    5016.5763       -1e+20 
   80800     2.153544   -4.6284115    5037.5513            2 
   80900    2.1518664   -4.6439761     5047.482       -1e+20 
   81000     2.143252   -4.6635536     5018.182            2 
   81100     2.128093    -4.694748    4989.2605       -1e+20 
   81200    2.1438078    -4.672192    5016.0149            1 
   81300    2.1656791    -4.647214    5043.5164       -1e+20 
   81400    2.1238803   -4.6719509    5011.4512            1 
   81500    2.1209876   -4.6402218    5008.8467            1 
   81600    2.1579486   -4.6410391    5055.7564            1 
   81700     2.115547   -4.6280453    5023.4415            1 
   81800    2.1296339   -4.6341798    5005.7677       -1e+20 
   81900    2.1058225   -4.6623242    5029.6786       -1e+20 
   82000    2.1614472   -4.6859069    5008.7819            1 
   82100    2.1256472   -4.6836659     4997.651       -1e+20 
   82200    2.1130585   -4.5814776    5050.4086            1 
   82300    2.2133176   -4.6332939    5031.9252            1 
   82400    2.1090009   -4.6573399    5070.0294            1 
   82500    2.1456769   -4.5772363    5020.6758            1 
   82600     2.077142   -4.5945244     5031.881            1 
   82700    2.1545519   -4.6854827    5033.9463            2 
   82800    2.1177872   -4.6632396    5007.8908            1 
   82900    2.1215016   -4.6290309     5042.201       -1e+20 
   83000    2.1770178   -4.7160468    5022.3578            1 
   83100    2.1106215   -4.6628036    4993.3446            1 
   83200     2.134249   -4.6775499     5013.305            1 
   83300     2.089492   -4.6475855    5001.2776            1 
   83400    2.1559956   -4.6398206    5012.3353            1 
   83500    2.1074217    -4.625208    5031.3003            1 
   83600    2.0826412   -4.6530007    5022.1371       -1e+20 
   83700    2.1482318    -4.597381     4995.761       -1e+20 
   83800    2.0976523    -4.639601     5064.681            1 
   83900    2.1584808    -4.624731    5025.6003            1 
   84000    2.1380643   -4.6188184    5028.7633            2 
   84100    2.0702835   -4.6550422    5042.3047            1 
   84200     2.161797   -4.6650514    4985.9285            1 
   84300    2.0623557   -4.6412248    5008.2198            2 
   84400    2.1301296   -4.6563319    4994.6152            1 
   84500    2.1668426   -4.6483523    5041.4815       -1e+20 
   84600    2.1167039    -4.623031     5026.174            1 
   84700    2.1348707   -4.6233223    5018.6306            1 
   84800    2.1077949   -4.6562532    5041.7283       -1e+20 
   84900     2.149646   -4.6727362    4991.0621            1 
   85000    2.1190927   -4.6205937    5036.5852            1 
   85100    2.1640089   -4.6424271    5035.7632       -1e+20 
   85200    2.1033657    -4.620898    5011.4304            1 
   85300    2.1684815   -4.6670202    5013.1418       -1e+20 
   85400    2.0841303   -4.6161568    5049.8745            1 
   85500    2.1740473   -4.6197668    4995.1677       -1e+20 
   85600    2.1249963   -4.6045301    5083.0952            1 
   85700     2.121924    -4.628973    5042.6828            1 
   85800    2.1455004   -4.6440782    5000.3938            1 
   85900    2.1055992   -4.6854343    5014.9689       -1e+20 
   86000    2.1340281    -4.662456    5009.4368            1 
   86100     2.104837   -4.6400533     5004.439            1 
   86200    2.1092714   -4.6425388    5007.1049       -1e+20 
   86300    2.1566928   -4.6600506    5061.5112            2 
   86400    2.1454296    -4.644769    5020.0965            1 
   86500    2.1296424   -4.6567831    5023.1888       -1e+20 
   86600    2.1224393   -4.6328545    5036.1021            2 
   86700    2.1351652   -4.6528063    4988.9456            1 
   86800    2.0836502   -4.7034161    4990.1828            1 
   86900    2.1074652   -4.6676096    4995.4124            1 
   87000    2.1558744   -4.6864052    5020.3508       -1e+20 
   87100     2.123219   -4.6293889    5042.9907            2 
   87200    2.1353105   -4.6659069    5002.4471            1 
   87300    2.1124332   -4.6667973    4983.7896            1 
   87400    2.1317917   -4.6323599    5044.5088       -1e+20 
   87500    2.1430491   -4.6444635    5035.3259       -1e+20 
   87600    2.1036989   -4.6636929     5000.192            1 
   87700    2.0984534   -4.6589447    4987.7919       -1e+20 
   87800    2.1141325   -4.6356911    5046.5079            1 
   87900    2.1417871   -4.6304615    5021.7294            1 
   88000    2.1209693   -4.6572501     4973.012            1 
   88100    2.0729317   -4.6905772    5048.4973       -1e+20 
   88200    2.1565452   -4.6098357    5003.5931            1 
   88300    2.1038595   -4.6444749    5004.4557            2 
   88400    2.1332312   -4.6672474    5023.3867            1 
   88500    2.1567178     -4.62712    5036.9692            1 
   88600    2.1331236   -4.6559838    5003.3936            1 
   88700    2.1198293   -4.7208703    5001.9424            1 
   88800    2.1693122   -4.6379309     4987.334       -1e+20 
   88900    2.0889378   -4.5741418    5077.1309       -1e+20 
   89000     2.134807    -4.595285    5054.0471            1 
   89100    2.1106076   -4.6019715    5005.4308            1 
   89200    2.1103104   -4.6443753    5032.8746            1 
   89300    2.1397709   -4.6550283    5027.5709            1 
   89400    2.1395214   -4.6584744    4981.6111       -1e+20 
   89500    2.0800581   -4.6550972    5020.3989            1 
   89600    2.1597661   -4.6580775    5033.3032            1 
   89700    2.1206614   -4.6387164    4997.7233            1 
   89800    2.0730061   -4.6668833    5009.5785            1 
   89900    2.1074422   -4.6010485     5008.615            1 
   90000    2.1585955   -4.6053277    5028.4068            1 
   90100    2.1051985   -4.6149386    5088.4483            1 
   90200    2.1233888   -4.6511727    5015.6728            1 
   90300     2.158282   -4.7069446    4998.5621            1 
   90400     2.102704   -4.7010934    5030.5429            1 
   90500    2.1655989   -4.6554914    4997.4369            1 
   90600    2.0893378   -4.6193446     5043.819            2 
   90700    2.1774925   -4.6502895    5031.9343            1 
   90800    2.1224827   -4.6856874    5014.8389            1 
   90900    2.1761177   -4.6814804     5006.055            1 
   91000    2.1911657   -4.6321177    5072.2523            1 
   91100    2.1406413   -4.6424739    5031.7874            1 
   91200    2.1272167   -4.6659608    5031.0802            2 
   91300    2.1712868   -4.5968186    5037.9605            1 
   91400    2.1556578   -4.6621402    5003.6617            1 
   91500    2.0915313    -4.674101    5040.8634            1 
   91600    2.1928891   -4.6814593    5003.0575       -1e+20 
   91700    2.1200702   -4.6548256    5020.2305            1 
   91800    2.1694471   -4.6785606     5035.432            1 
   91900    2.0895562   -4.6375661    5003.4803            1 
   92000    2.1990187   -4.7042697    5007.4335       -1e+20 
   92100     2.089327   -4.6953506    5036.0249            1 
   92200    2.1667236   -4.6802662    5015.3808            1 
   92300    2.1255571   -4.6483368    5024.7117            1 
   92400    2.1381091   -4.5974549    5053.9576       -1e+20 
   92500    2.1628872   -4.5631554    5055.6947            1 
   92600    2.1523344   -4.6575807    5020.1832            1 
   92700    2.0888449    -4.634687    5012.4575            1 
   92800     2.142602   -4.5903792    5019.2438            1 
   92900    2.1588344   -4.6349653    5057.0177            1 
   93000    2.1228028   -4.6604645    5042.8187            1 
   93100    2.1360402   -4.5915493    5026.7872       -1e+20 
   93200    2.0943321   -4.6140292    5043.1979            1 
   93300    2.1178921   -4.7057399    4994.7345            1 
   93400    2.1432088     -4.67356    5015.7889            2 
   93500    2.1385953   -4.6133957    5039.5091            1 
   93600    2.0962415   -4.6603735    5020.9417       -1e+20 
   93700    2.1239097   -4.6541509    4997.3235            1 
   93800    2.1418698   -4.6125588    5035.3731       -1e+20 
   93900    2.1453392   -4.6385692    5032.4337       -1e+20 
   94000    2.1242359   -4.6453045    5028.2027            1 
   94100    2.1609466   -4.6237218    5048.4269            1 
   94200    2.1313878   -4.6539476     5019.761            1 
   94300    2.1049152   -4.6798619    5004.6976            1 
   94400     2.181846   -4.7095116    4997.3914            1 
   94500    2.0789528   -4.6761824     4999.735            1 
   94600    2.1262398   -4.6646371    5003.6098            1 
   94700    2.1316054   -4.6659918    5018.9231            1 
   94800    2.1467762   -4.6708568    5019.6485            1 
   94900    2.0864126   -4.6652537    4999.6667            1 
   95000     2.150476   -4.6256983    4999.2313            1 
   95100    2.1016305   -4.5984535    5043.2533            1 
   95200    2.1506767   -4.6483313    5040.8417            2 
   95300    2.1399969   -4.6732245    4987.0013            1 
   95400    2.0643454    -4.710242    5000.1966            1 
   95500    2.1269406   -4.6894526    5002.2947       -1e+20 
   95600     2.149505    -4.648672    5009.0067       -1e+20 
   95700    2.1163477   -4.6320019    5053.9259            1 
   95800    2.1018261   -4.6541772    5004.2393            1 
   95900    2.1440111   -4.7082811    4998.2218            1 
   96000    2.1350963   -4.6457943    5036.6634       -1e+20 
   96100    2.2103773   -4.6159456    5049.9028            1 
   96200    2.1530671   -4.6690834    5031.2199            1 
   96300    2.1062765   -4.6511112    4993.9578            1 
   96400    2.1374572    -4.696898    5028.2907            1 
   96500    2.1153793   -4.6606498     4994.287            1 
   96600    2.1659155   -4.6928666    4998.8461       -1e+20 
   96700    2.1242247   -4.6327227    5079.3527       -1e+20 
   96800    2.1716307   -4.6080589    5043.4214            1 
   96900    2.1457294   -4.6557994    5013.4196            1 
   97000     2.115628   -4.6788323    5023.4676       -1e+20 
   97100     2.132742   -4.5939117    5043.1657            1 
   97200     2.172028   -4.6409576    5010.0945            1 
   97300    2.1076001   -4.6686245    5037.4879            1 
   97400    2.1327112   -4.6336272    5028.7551            1 
   97500    2.1181627   -4.6159341    5015.5368            1 
   97600    2.1375205   -4.6849397    5028.5972            1 
   97700    2.1775916   -4.6805352    5024.4611            1 
   97800    2.1493632   -4.6739637    5060.3022       -1e+20 
   97900    2.1329741   -4.6392982    5028.6973            1 
   98000    2.1610556   -4.6405543    5007.9321            1 
   98100    2.0619089   -4.6609876      5054.98            1 
   98200    2.1185682   -4.6005246    4993.8478            1 
   98300    2.0965175   -4.6383161    5014.5574            1 
   98400    2.1463135   -4.6158382    5042.9197            1 
   98500    2.1417549   -4.5878812    5051.6451       -1e+20 
   98600    2.1271215   -4.6248361    5064.1015       -1e+20 
   98700    2.1552734   -4.6303534    5044.2117            1 
   98800    2.0874932   -4.5914174    5016.7318            1 
   98900    2.1214382   -4.6253352    5006.9493            1 
   99000    2.1484884   -4.6167257    5036.8801            1 
   99100    2.0994682    -4.566666    5048.8976       -1e+20 
   99200     2.117552   -4.6489501    5011.4184            1 
   99300    2.0944326   -4.7051151    4977.3946            1 
   99400    2.0858115   -4.6476337     5026.261            3 
   99500    2.1580387   -4.6385927    4996.9727            1 
   99600    2.1039406   -4.6827729     5036.285       -1e+20 
   99700    2.1719661   -4.6767484    5031.7954       -1e+20 
   99800    2.1196699   -4.6232704    5013.5642            1 
   99900    2.0960644   -4.6967547    4986.8878            3 
  100000    2.1319814   -4.6987073    5012.3925            2 
  100100    2.1543248   -4.6594815     5017.498            1 
  100200    2.1031527   -4.6745414    5010.5512            1 
  100300    2.1047214   -4.6142595    5023.9229       -1e+20 
  100400    2.1578355   -4.6419077     5046.251            1 
  100500    2.1125698   -4.6524226    5019.4481            1 
  100600    2.1447195   -4.6707194    4982.2713            1 
  100700    2.1195883   -4.6864349    5023.1572            1 
  100800      2.13327   -4.6580456    5029.1737            2 
  100900    2.1770809   -4.6028376    5035.4389            2 
  101000    2.1098689   -4.6482986    5004.7508       -1e+20 
  101100    2.1211202   -4.6732409    4992.7358       -1e+20 
  101200    2.1289343   -4.6293671    5054.8431            1 
  101300    2.1625368   -4.5811355      5017.07            1 
  101400    2.0927842   -4.6136508    5020.9764            1 
  101500    2.1303032   -4.6805258    5040.8895            2 
  101600    2.1702101   -4.6346682    4981.4889            2 
  101700    2.1032118   -4.6435969    5069.7966            1 
  101800    2.1018562   -4.6479077    5011.5218            1 
  101900    2.1485108    -4.642163    4986.0615       -1e+20 
  102000    2.0986954   -4.6891174    5027.4238            1 
  102100    2.1330136   -4.6713342    4978.8567            1 
  102200    2.1618574   -4.6456372    5036.1462            1 
  102300    2.1299554   -4.6232018    5036.1785            1 
  102400    2.1444557    -4.668351    5026.5006            1 
  102500     2.111853   -4.6427858    5034.1593            1 
  102600    2.1269427   -4.5738096    5029.3907       -1e+20 
  102700    2.0905964   -4.6523042    5017.6817            1 
  102800    2.1161518   -4.7092716    5013.7881            1 
  102900    2.1359445   -4.6325699    4980.4648            1 
  103000     2.082892   -4.6521874    5031.2732       -1e+20 
  103100     2.173024   -4.6541783    5009.1739            1 
  103200    2.1366515     -4.67092    5006.3747            1 
  103300    2.0750434   -4.6879044    5014.5599            1 
  103400    2.1364644   -4.6509977    5005.3915            1 
  103500    2.1271428   -4.6268847    5023.3646            1 
  103600    2.1456625   -4.5969282     5066.114            1 
  103700    2.1363554    -4.584629    5066.7436       -1e+20 
  103800    2.1521176   -4.6271707    5022.4908            1 
  103900    2.0750482   -4.6219652    5034.5226            1 
  104000    2.1704631   -4.6403922     5022.426            1 
Loop time of 92.5559 on 64 procs for 100000 steps with 4000 atoms

Performance: 186697.927 tau/day, 1080.428 timesteps/s
99.9% CPU use with 64 MPI tasks x no OpenMP threads

MPI task timing breakdown:
Section |  min time  |  avg time  |  max time  |%varavg| %total
---------------------------------------------------------------
Pair    | 5.8827     | 6.2226     | 6.4817     |   6.1 |  6.72
Neigh   | 1.2709     | 1.3215     | 1.367      |   2.0 |  1.43
Comm    | 10.741     | 11.406     | 12.118     |   9.7 | 12.32
Output  | 4.6719     | 4.6734     | 4.6822     |   0.1 |  5.05
Modify  | 67.192     | 67.967     | 68.717     |   4.6 | 73.43
Other   |            | 0.9651     |            |       |  1.04

Nlocal:        62.5000 ave          73 max          54 min
Histogram: 3 5 8 10 14 8 9 5 1 1
Nghost:        1274.95 ave        1294 max        1258 min
Histogram: 3 4 10 8 9 12 10 1 4 3
Neighs:        5687.09 ave        6698 max        4758 min
Histogram: 1 5 7 7 20 8 6 5 2 3
FullNghs:      11374.3 ave       13251 max        9785 min
Histogram: 6 3 7 9 11 9 9 6 3 1

Total # of neighbors = 727957
Ave neighs/atom = 181.98925
Neighbor list builds = 8605
Dangerous builds = 622

#clear
#
#next RN
#
#jump SELF
Total wall time: 0:01:33
