
units lj                  # Use reduced LJ style units
atom_style atomic         # Uncharged point particles
atom_modify map hash      # Needed for indexing of clusters etc
                          # Used to be able to find where atoms are in relation to each other.

# Define a lattice with which to populate the simulation cell. With units
# set to 'lj' the second argument to the lattice command is the reduced
# density rho* and the spacings are multiples of that required to acheive
# that density. Also define a simulation cell called 'box' in lattice units
# and fill it with atoms. Here we're creating a box which is ten lattice
# constants in each direction.
lattice fcc 1.0 spacing 1 1 1                 # All equal sizes - gives the right reduced density.
Lattice spacing in x,y,z = 1.5874011 1.5874011 1.5874011

region box block 0 10 0 10 0 10 units lattice # Defines a region, "box", in lattice units
create_box 1 box                              # Creates a simulation box as specified above,
Created orthogonal box = (0.0000000 0.0000000 0.0000000) to (15.874011 15.874011 15.874011)
  2 by 4 by 4 MPI processor grid
                                              # with one type of atom
create_atoms 1 box                            # Creates particles on lattice points
Created 4000 atoms
  using lattice units in orthogonal box = (0.0000000 0.0000000 0.0000000) to (15.874011 15.874011 15.874011)
  create_atoms CPU = 0.003 seconds


# Set the mass of the first (and only) atom type.
mass 1 1.0

# Lennard-Jones interactions between particles, 3.5 sigma cut-off. Apply
# long range tail corrections to energy and pressure and set all coefficients
# to unity since we work in reduced units here. Note that this doesn't shift
# the potential such that it goes to zero at the cutoff. That would require
# pair_modify('shift', 'yes').
pair_style lj/cut  3.5      # non-GPU version
pair_modify tail  yes
pair_coeff 1  1  1.0  1.0   # Intearaction between 1 and 1 set with epsilon = 1 and sigma = 1

write_data data.*
System init for write_data ...
Neighbor list info ...
  update every 1 steps, delay 10 steps, check yes
  max neighbors/atom: 2000, page size: 100000
  master list distance cutoff = 3.8
  ghost atom cutoff = 3.8
  binsize = 1.9, bins = 9 9 9
  1 neighbor lists, perpetual/occasional/extra = 1 0 0
  (1) pair lj/cut, perpetual
      attributes: half, newton on
      pair build: half/bin/atomonly/newton
      stencil: half/bin/3d
      bin: standard

#############################
#   M E L T   S Y S T E M   #
#############################

velocity all create 2.4 6583654 mom yes dist gaussian # Assign velocities
                                                    # Temperature 2.4, random number seed, zero linear momentum
						                                                        # Gaussian distribution

timestep 0.002   # simulation timestep
thermo 100       # output thermodynamic data every 100 steps

# Define a fix  in this case with index 1 applied to all
# particles in the simulation. This fix is for simulations
# in the anisotropic NPT ensemble. Note that we use the MTK
# correction.
fix 1 all npt temp 2.4 2.4 0.1 iso 5.68 5.68 0.5 mtk yes tchain 5 pchain 5 # Use NPT ensemble
                                                                         # Set temperature and pressure and damping
                                                                         # Numbers of thermostats in chain and in barostat
run 1000         # run for 10000 steps
Per MPI rank memory allocation (min/avg/max) = 3.660 | 3.660 | 3.660 Mbytes
Step Temp E_pair E_mol TotEng Press Volume 
       0          2.4   -8.3859253            0   -4.7868253   -2.2405722         4000 
     100    1.2691967   -6.5422289            0   -4.6389098    5.3378653    4090.7551 
     200    1.4787625   -6.3158233            0   -4.0982341    6.0374862    4137.2558 
     300    1.5708342   -6.0123056            0   -3.6566434    5.8269752    4273.6084 
     400    1.6935755   -5.7191311            0    -3.179403    5.9540602    4395.1747 
     500    1.7875886   -5.4095267            0   -2.7288141    6.0322401    4536.9038 
     600    1.8873111   -5.1521313            0   -2.3218724    5.7297832     4702.884 
     700    2.0258918   -4.9144312            0   -1.8763532    5.9082203    4824.8495 
     800    2.1522544   -4.7292823            0   -1.5017078    5.7781683    4963.9277 
     900     2.239714   -4.5446635            0   -1.1859323    5.7477122    5090.6319 
    1000    2.3765823   -4.4738755            0  -0.90989327    5.6796077     5154.488 
Loop time of 0.258083 on 32 procs for 1000 steps with 4000 atoms

Performance: 669550.959 tau/day, 3874.716 timesteps/s
99.5% CPU use with 32 MPI tasks x no OpenMP threads

MPI task timing breakdown:
Section |  min time  |  avg time  |  max time  |%varavg| %total
---------------------------------------------------------------
Pair    | 0.13683    | 0.13985    | 0.1441     |   0.5 | 54.19
Neigh   | 0.025733   | 0.026569   | 0.027992   |   0.3 | 10.29
Comm    | 0.062661   | 0.069486   | 0.074017   |   1.0 | 26.92
Output  | 0.00020215 | 0.00020644 | 0.00025781 |   0.0 |  0.08
Modify  | 0.018183   | 0.02001    | 0.021482   |   0.8 |  7.75
Other   |            | 0.001957   |            |       |  0.76

Nlocal:        125.000 ave         138 max         116 min
Histogram: 1 2 6 7 6 8 0 1 0 1
Nghost:        1666.91 ave        1703 max        1646 min
Histogram: 3 5 7 4 5 4 1 0 2 1
Neighs:        11088.0 ave       12468 max       10095 min
Histogram: 1 2 5 8 9 2 2 1 1 1

Total # of neighbors = 354817
Ave neighs/atom = 88.704250
Neighbor list builds = 86
Dangerous builds = 20

# Equilibrate just above the melting temperature to avoid step fn in T

fix 1 all npt temp 1.25 1.25 0.1 iso 5.68 5.68 0.5 mtk yes tchain 5 pchain 5
run 1000
Per MPI rank memory allocation (min/avg/max) = 3.661 | 3.661 | 3.661 Mbytes
Step Temp E_pair E_mol TotEng Press Volume 
    1000    2.3765823   -4.4738755            0  -0.90989327    5.6796077     5154.488 
    1100    1.9625951   -4.6989107            0   -1.7557541    5.6812496    4983.8841 
    1200    1.7289901   -4.9599136            0   -2.3670769    5.8142104    4790.1519 
    1300    1.5792657   -5.2249024            0   -2.8565961    5.6289859    4660.4039 
    1400    1.4517319   -5.4215948            0   -3.2445414    5.5197346    4561.4045 
    1500     1.364265   -5.5680033            0   -3.5221174    5.5958139    4483.3542 
    1600    1.3084699   -5.6759595            0   -3.7137453    5.6057769    4426.4503 
    1700    1.2550401   -5.7394736            0   -3.8573841    5.7381181    4381.4433 
    1800    1.2507956   -5.8140506            0   -3.9383263    5.7576039    4349.7766 
    1900    1.2205858   -5.8218536            0   -3.9914327    5.7234503    4347.2659 
    2000    1.2599896   -5.8219529            0    -3.932441    5.7139167    4350.4536 
Loop time of 0.249935 on 32 procs for 1000 steps with 4000 atoms

Performance: 691379.346 tau/day, 4001.038 timesteps/s
99.8% CPU use with 32 MPI tasks x no OpenMP threads

MPI task timing breakdown:
Section |  min time  |  avg time  |  max time  |%varavg| %total
---------------------------------------------------------------
Pair    | 0.13429    | 0.13831    | 0.14349    |   0.6 | 55.34
Neigh   | 0.022639   | 0.023185   | 0.024173   |   0.2 |  9.28
Comm    | 0.058819   | 0.066838   | 0.071073   |   1.2 | 26.74
Output  | 0.00020416 | 0.00020864 | 0.00025192 |   0.0 |  0.08
Modify  | 0.017313   | 0.019158   | 0.021092   |   0.9 |  7.67
Other   |            | 0.00224    |            |       |  0.90

Nlocal:        125.000 ave         130 max         115 min
Histogram: 1 0 0 2 4 3 6 7 4 5
Nghost:        1853.16 ave        1868 max        1832 min
Histogram: 1 0 2 6 2 5 3 6 3 4
Neighs:        13129.4 ave       13744 max       12058 min
Histogram: 1 0 2 3 3 2 5 8 5 3

Total # of neighbors = 420140
Ave neighs/atom = 105.03500
Neighbor list builds = 75
Dangerous builds = 9


# Small amount of linear quench

fix 1 all npt temp 1.25 ${temp} 0.1 iso 5.68 5.68 0.5 mtk yes tchain 5 pchain 5
fix 1 all npt temp 1.25 0.49 0.1 iso 5.68 5.68 0.5 mtk yes tchain 5 pchain 5
run 2000
Per MPI rank memory allocation (min/avg/max) = 3.661 | 3.662 | 3.662 Mbytes
Step Temp E_pair E_mol TotEng Press Volume 
    2000    1.2599896   -5.8219529            0    -3.932441    5.7139167    4350.4536 
    2100    1.2436519    -5.859898            0   -3.9948866    5.6951591    4334.1158 
    2200    1.1845888   -5.8744401            0    -4.098001    5.6596262     4323.604 
    2300     1.187425   -5.9485918            0   -4.1678996    5.7095839    4290.8008 
    2400    1.1526968   -5.9929263            0   -4.2643134    5.7872309    4265.0768 
    2500    1.1228274   -6.0828681            0    -4.399048    5.4779639    4251.8217 
    2600    1.0673923   -6.1178189            0   -4.5171307    5.4707067    4233.2228 
    2700    1.0435511   -6.1658543            0    -4.600919    5.8546285    4183.6311 
    2800   0.99892029   -6.2223699            0   -4.7243641    5.8000118     4162.195 
    2900   0.95585031   -6.2736432            0   -4.8402262    5.8949145    4132.2751 
    3000    0.9294891   -6.3527515            0   -4.9588664    5.7778626    4112.6281 
    3100   0.89871882    -6.429162            0   -5.0814208    5.6441524    4090.3474 
    3200   0.84308694   -6.4810513            0   -5.2167371    5.4872099    4079.3086 
    3300   0.79251442   -6.5156606            0   -5.3271861    5.6630762    4051.1734 
    3400   0.78534108   -6.6037448            0   -5.4260277    5.7135167    4015.6863 
    3500   0.73446978   -6.6396193            0     -5.53819    5.8346788    3992.6895 
    3600   0.71153641   -6.7206176            0   -5.6535798    5.7374527    3970.7956 
    3700   0.66940992   -6.7687703            0   -5.7649065    5.8260468    3946.9144 
    3800   0.62686243   -6.8238866            0   -5.8838281    5.7750818    3927.9014 
    3900   0.59350516   -6.8936265            0   -6.0035914    5.6475789    3911.9097 
    4000   0.55861359   -6.9494792            0   -6.1117683    5.7207024    3888.2321 
Loop time of 0.530456 on 32 procs for 2000 steps with 4000 atoms

Performance: 651514.624 tau/day, 3770.339 timesteps/s
99.8% CPU use with 32 MPI tasks x no OpenMP threads

MPI task timing breakdown:
Section |  min time  |  avg time  |  max time  |%varavg| %total
---------------------------------------------------------------
Pair    | 0.29795    | 0.30627    | 0.31277    |   0.7 | 57.74
Neigh   | 0.035491   | 0.036451   | 0.037215   |   0.2 |  6.87
Comm    | 0.13327    | 0.14268    | 0.15367    |   1.1 | 26.90
Output  | 0.00039819 | 0.00040503 | 0.00049399 |   0.0 |  0.08
Modify  | 0.03574    | 0.039102   | 0.042106   |   1.2 |  7.37
Other   |            | 0.005544   |            |       |  1.05

Nlocal:        125.000 ave         132 max         121 min
Histogram: 5 5 5 5 3 4 2 1 1 1
Nghost:        1989.78 ave        2011 max        1976 min
Histogram: 3 3 6 7 1 7 0 2 2 1
Neighs:        14801.2 ave       15401 max       14235 min
Histogram: 4 2 3 3 6 3 3 3 2 3

Total # of neighbors = 473640
Ave neighs/atom = 118.41000
Neighbor list builds = 113
Dangerous builds = 0

#############################
# F R E E Z E  S Y S T E M  #
#############################

# Define solid atoms. This closely follows ten Wolde  Ruiz-Montero and Frenkel  Faraday Discuss  1996  104  93-110
# Compute components of the per-atom q6 vector
compute q6 all orientorder/atom degrees 1 6 components 6 nnn NULL cutoff 1.3 # compute the Q6 parameter.
                                                                             # Use all neighbours within 1.3 unit cell.

# get number of connections
compute coord_number all coord/atom orientorder q6 0.5

# An atom is solid if it has 8 or more connections (of a possible 14)
variable is_solid atom c_coord_number>=8
group solid dynamic all var is_solid    # Must be dynamic to update
dynamic group solid defined

# do clustering
compute cluster solid cluster/atom 1.3 # Create a cluster where all atoms within are solid and max 1.3 units from another member

# define chunks one chunk per cluster
compute clus_chunks solid chunk/atom c_cluster nchunk every compress yes  # Says which atoms are in which chunk

# count the size of each chunk
compute size_chunks solid property/chunk clus_chunks count


# Find the maximum entry in the vector of chunk sizes
variable max_n equal max(c_size_chunks)


# Thermo style which includes this variable
thermo_style custom step temp pe vol v_max_n

thermo ${N}  # Print the thermo information every 100 steps
thermo 100  

# Reset the npt fix at a lower temperature (below freezing)
fix 1  all npt temp  ${temp} ${temp}  0.1  iso  5.68  5.68  0.5  mtk yes tchain  5  pchain  5
fix 1  all npt temp  0.49 ${temp}  0.1  iso  5.68  5.68  0.5  mtk yes tchain  5  pchain  5
fix 1  all npt temp  0.49 0.49  0.1  iso  5.68  5.68  0.5  mtk yes tchain  5  pchain  5

dump dmp2 all dcd ${N} traj_${rand}.dcd
dump dmp2 all dcd 100 traj_${rand}.dcd
dump dmp2 all dcd 100 traj_462431.dcd


# fix rnuntil all halt ${N} v_max_n >= 3980 error soft message no   # Stop when solidified


run 100000 # 5000000  # Run for this many steps
Neighbor list info ...
  update every 1 steps, delay 10 steps, check yes
  max neighbors/atom: 2000, page size: 100000
  master list distance cutoff = 3.8
  ghost atom cutoff = 3.8
  binsize = 1.9, bins = 9 9 9
  4 neighbor lists, perpetual/occasional/extra = 1 3 0
  (1) pair lj/cut, perpetual
      attributes: half, newton on
      pair build: half/bin/atomonly/newton
      stencil: half/bin/3d
      bin: standard
  (2) compute orientorder/atom, occasional
      attributes: full, newton on
      pair build: full/bin/atomonly
      stencil: full/bin/3d
      bin: standard
  (3) compute coord/atom, occasional
      attributes: full, newton on
      pair build: full/bin/atomonly
      stencil: full/bin/3d
      bin: standard
  (4) compute cluster/atom, occasional
      attributes: full, newton on
      pair build: full/bin/atomonly
      stencil: full/bin/3d
      bin: standard
Per MPI rank memory allocation (min/avg/max) = 9.460 | 9.463 | 9.467 Mbytes
Step Temp PotEng Volume v_max_n 
    4000   0.55861359   -6.9494792    3888.2321           38 
    4100   0.52713392   -6.9863365    3874.5792           86 
    4200   0.50934674   -7.0325371    3867.3667           42 
    4300   0.49914881   -7.0590767    3852.6883           82 
    4400   0.48983502   -7.0764847    3844.9735           91 
    4500   0.48529444   -7.0958376    3845.5803          102 
    4600   0.49883352   -7.0841225    3835.0828          139 
    4700   0.49844318    -7.104121    3851.6194           69 
    4800   0.48988886   -7.0877858     3826.379           87 
    4900   0.48992233   -7.1105199    3841.0565          157 
    5000   0.48960469   -7.0927392     3834.494          141 
    5100   0.48992698   -7.1179506    3833.0827          129 
    5200   0.48624635    -7.138147    3828.8743          104 
    5300   0.49213108   -7.1178775    3827.0359           70 
    5400   0.49275915   -7.1161889    3835.6993           59 
    5500   0.50849885   -7.1123989    3839.7134           86 
    5600   0.49324261   -7.1194452    3835.4359           69 
    5700     0.475761   -7.1119711      3832.97          155 
    5800   0.48394919   -7.1293991    3828.5831           69 
    5900   0.47398883   -7.1369798    3827.7635           99 
    6000   0.49310151   -7.1219812    3825.9945           81 
    6100    0.4872745   -7.1372342    3826.4237           92 
    6200   0.48498919   -7.1547031    3825.3741          120 
    6300   0.48655136   -7.1444119    3827.0687           53 
    6400    0.5018935    -7.138297    3821.2291          104 
    6500   0.49049178   -7.1561133    3832.9136          112 
    6600   0.48145151    -7.135618    3817.5471          174 
    6700   0.49300647   -7.1539953    3829.8457          201 
    6800   0.48236251   -7.1495693    3822.0583          233 
    6900   0.48274217    -7.154113    3826.6605          160 
    7000   0.48749784   -7.1406282    3824.3753          183 
    7100   0.47996005   -7.1594045    3822.4894          179 
    7200   0.48568092   -7.1463216    3821.3917          224 
    7300   0.48075203   -7.1384728    3831.3633          232 
    7400    0.4938308   -7.1405283    3826.7496          215 
    7500   0.49027317   -7.1620926    3822.5375          214 
    7600   0.48020361   -7.1531829    3825.5012          171 
    7700   0.50253097   -7.1637921    3818.3068          203 
    7800   0.48803418    -7.161302    3826.3688          181 
    7900   0.50075475   -7.1513858     3821.421          158 
    8000    0.4824427   -7.1625581    3822.0802           95 
    8100   0.49341942   -7.1495965    3818.3932          210 
    8200   0.48385583   -7.1561664    3820.9564          155 
    8300    0.4853159   -7.1639339    3819.0678          198 
    8400   0.49326147   -7.1520224    3820.4295          180 
    8500   0.47902049   -7.1608779    3823.4802          189 
    8600   0.48936265   -7.1604689    3811.9769          109 
    8700   0.49743266   -7.1574933    3819.1382          207 
    8800   0.48618963   -7.1606588    3824.5529          261 
    8900   0.49188933   -7.1680905    3813.8869          195 
    9000   0.47910649   -7.1768169    3820.5326          190 
    9100   0.48593396   -7.1546233     3814.535          156 
    9200   0.48663211   -7.1582495    3825.5134          173 
    9300   0.48148227    -7.151937    3814.4256          120 
    9400   0.47789489   -7.1687352     3820.761           74 
    9500   0.49047109    -7.188501    3816.6852           61 
    9600   0.49805572   -7.1708056    3817.8263           88 
    9700   0.47607219    -7.156309    3816.6918          148 
    9800   0.47817049   -7.1757115    3807.2323          140 
    9900    0.4931382   -7.1722888    3814.4784          136 
   10000   0.48812311   -7.1610325    3811.8214          118 
   10100   0.50526218   -7.1784612    3826.5561           88 
   10200   0.48576738   -7.1663437    3813.4522          168 
   10300   0.48792242   -7.1682993    3820.6253          120 
   10400   0.49955711   -7.1559412    3817.1454          196 
   10500   0.48768796   -7.1697154    3813.7433          178 
   10600   0.47906149   -7.1734441    3821.5487          118 
   10700   0.49217345   -7.1634834    3813.6656          206 
   10800    0.4855503   -7.1842659    3820.7176          145 
   10900   0.49734919   -7.1590938    3806.8895          120 
   11000   0.48882643    -7.176391    3822.4928          123 
   11100   0.48841308   -7.1876427    3809.4333          119 
   11200   0.49112608   -7.1913404    3817.9054           96 
   11300   0.49306953   -7.1672464    3813.4955          125 
   11400   0.48615342   -7.1751411    3821.4157          115 
   11500   0.48136264   -7.1737721    3803.1788          125 
   11600   0.49227631   -7.1889921    3820.7882          207 
   11700    0.5018964    -7.168192    3808.9832          263 
   11800   0.48918629    -7.187348    3820.5573          144 
   11900    0.4937192   -7.1797073    3803.4315          125 
   12000   0.49328044   -7.1784893    3821.4724          139 
   12100     0.498102    -7.188276    3815.0912          168 
   12200   0.49477924     -7.18058    3810.6277          139 
   12300   0.48068424   -7.1745546    3818.3478          141 
   12400   0.47575642   -7.1688638    3805.3948          176 
   12500   0.50137115   -7.1941029    3817.1749          284 
   12600   0.48723828   -7.1867802      3810.73          184 
   12700   0.48055307   -7.2044892    3805.8732          167 
   12800   0.48812365   -7.1995589    3816.8632          260 
   12900   0.48930103   -7.1600609    3805.2703          332 
   13000    0.4818579   -7.1932499    3823.6782          316 
   13100     0.486304   -7.1535123    3803.4067          162 
   13200   0.49089908   -7.1814856    3827.4823          310 
   13300   0.48037227   -7.1623537    3804.1497          320 
   13400   0.47702656   -7.1779826    3818.9736          104 
   13500   0.49337055   -7.1783152    3816.6449          156 
   13600   0.48802377   -7.1743786    3811.8995          327 
   13700   0.48029007   -7.1880833    3816.5028          233 
   13800   0.49454183   -7.1652111    3813.4318          326 
   13900   0.48959186   -7.1727427    3809.3234          331 
   14000   0.48809748   -7.1933441    3816.9049          334 
   14100   0.48030942   -7.1830333    3800.7649          345 
   14200   0.48813606   -7.1871785    3821.4228          303 
   14300   0.49775799   -7.1907739    3809.9208          151 
   14400   0.48707832   -7.1914749    3810.5796          349 
   14500   0.49047365    -7.181738    3809.3454          355 
   14600     0.495148   -7.1958478    3816.7579          428 
   14700   0.48178676   -7.1808031    3802.5166          408 
   14800   0.48501538   -7.1868492    3819.5124          377 
   14900   0.49606846   -7.1869246    3806.5339          421 
   15000   0.48752528   -7.1858563    3806.1639          394 
   15100   0.49407553    -7.177763     3815.549          406 
   15200    0.4915511   -7.1875195    3810.7851          388 
   15300   0.49690886   -7.1937586    3807.0573          395 
   15400   0.48992187   -7.1957535    3811.8786          429 
   15500   0.50208238    -7.178456    3806.7049          259 
   15600   0.48954019   -7.1825523    3823.1223          408 
   15700    0.4850098   -7.1800251    3802.1688          418 
   15800   0.50106356   -7.2007529    3809.2623          409 
   15900   0.50140128   -7.1839307    3819.7297          426 
   16000   0.49959336   -7.1958666    3808.9234          474 
   16100   0.49494351   -7.1992903    3805.4821          505 
   16200   0.50186668   -7.2026366    3808.9557          421 
   16300   0.48334276   -7.1875538    3814.0852          457 
   16400   0.48050557   -7.1993119    3808.7384          304 
   16500   0.49553491   -7.1973124    3808.1306          411 
   16600   0.48160191   -7.1922508    3807.7424          357 
   16700   0.47848168   -7.2187884    3806.2334          438 
   16800   0.48844493   -7.2016729     3803.624          406 
   16900   0.48984321   -7.1999145    3816.3245          414 
   17000   0.50673444   -7.1870919    3804.7814          415 
   17100   0.49955618   -7.2136891    3813.6543          415 
   17200   0.48640611   -7.1931506    3807.8503          431 
   17300   0.48661065   -7.1954684    3804.7315          457 
   17400   0.48165365   -7.2046381    3806.0182          471 
   17500   0.48863163   -7.1974443    3805.6608          508 
   17600   0.50036903   -7.2032562    3815.7207          395 
   17700   0.49102326   -7.1851222    3804.5877          410 
   17800   0.48949143   -7.2142636      3813.44          440 
   17900   0.48428908   -7.1805851    3796.7024          294 
   18000   0.48805571    -7.200504    3813.6444          309 
   18100   0.49528015   -7.1957806    3806.4809          459 
   18200   0.48410237   -7.1976189    3807.3257          423 
   18300   0.47667581   -7.1980191    3802.6331          387 
   18400   0.49777028   -7.2035632    3809.1199          398 
   18500   0.48983544   -7.2079641    3804.0073          451 
   18600   0.49807511    -7.202278     3812.992          400 
   18700   0.48745485   -7.1861021    3810.3536          152 
   18800   0.49009081   -7.2015281    3808.4344          444 
   18900   0.48527226   -7.1868067    3806.7139          268 
   19000   0.49364057   -7.1829142    3811.5729          265 
   19100   0.48756428   -7.2038753    3808.0433          564 
   19200   0.49331279   -7.1926674     3802.293          442 
   19300   0.49356406    -7.189869    3813.6467          552 
   19400   0.48777743   -7.1990356    3801.4282          521 
   19500   0.49961611   -7.2182198    3810.1865          508 
   19600   0.48928417   -7.1929693    3805.1238          363 
   19700   0.47842981   -7.1987082    3809.4925          440 
   19800   0.48817958   -7.1923976    3806.2745          538 
   19900   0.48189994   -7.1955889    3805.8244          334 
   20000   0.48488771   -7.2138185    3804.4761          400 
   20100   0.49897228   -7.2111732    3807.2868          467 
   20200   0.50274188   -7.2103004    3809.2291          469 
   20300   0.48923768   -7.2024212    3805.4348          420 
   20400   0.49234186   -7.1933554    3801.7108          430 
   20500   0.49642203   -7.1966628    3815.8938          467 
   20600   0.48837435   -7.2121315    3804.7073          431 
   20700   0.49161723   -7.2077477    3806.1143          160 
   20800   0.48997517   -7.2024179    3814.4627          493 
   20900   0.49739413   -7.2051009    3804.6942          440 
   21000   0.48386773   -7.2153439    3804.9369          520 
   21100   0.49348696   -7.2007599    3806.4145          495 
   21200   0.48623576   -7.2060563    3815.4927          592 
   21300   0.49550758   -7.1938998    3805.5413          556 
   21400   0.48955673   -7.1986529    3807.0615          476 
   21500   0.49049895   -7.2172866     3805.584          457 
   21600   0.47755456   -7.2067957    3804.6712          502 
   21700   0.49219089   -7.2055929    3810.3917          506 
   21800   0.49297734   -7.1908744    3803.7289          511 
   21900   0.49142323   -7.2157252    3801.6949          604 
   22000   0.48198147   -7.2011067    3799.4819          530 
   22100   0.48397737   -7.1970653    3809.8451          295 
   22200   0.48699987   -7.2033547    3804.9554          411 
   22300   0.49457798   -7.2047926    3801.8706          229 
   22400   0.48039943   -7.1892089    3802.6016          435 
   22500   0.47935863   -7.2151183    3802.5456          524 
   22600   0.48654581   -7.1974134    3806.2883          441 
   22700   0.49379172   -7.1900673    3806.9321          539 
   22800   0.48413708   -7.2043222    3805.6927          481 
   22900   0.49198955   -7.1952844    3798.6457          534 
   23000   0.49187151   -7.2126703    3810.5307          429 
   23100   0.48704983   -7.2111734    3795.5242          492 
   23200   0.48853495     -7.21166    3808.2683          450 
   23300   0.49518182   -7.1973866    3805.6804          499 
   23400     0.491285    -7.216391    3808.5561          529 
   23500   0.49039498   -7.2176609    3802.2329          435 
   23600   0.48717762   -7.2016052    3808.5988          544 
   23700   0.50526175   -7.1950551    3800.9111          506 
   23800   0.48741559   -7.2194132    3813.4161          498 
   23900   0.49962763   -7.2021993    3804.3521          433 
   24000   0.48463008   -7.1983193    3811.2091          411 
   24100   0.47938653   -7.2058896     3796.552          522 
   24200   0.49332636   -7.2257545    3810.7217          478 
   24300   0.48784786   -7.1954958    3803.7507          446 
   24400     0.495538   -7.1991632     3807.456          496 
   24500   0.48804495   -7.2147842    3803.0551          484 
   24600    0.4931737   -7.2089375    3805.7056          424 
   24700   0.48276534   -7.2087213    3816.3199          467 
   24800   0.49905415   -7.2078668    3799.5985          467 
   24900   0.48493579   -7.2174091    3801.8431          528 
   25000   0.49039121   -7.2078621    3807.4455          498 
   25100   0.48475036   -7.1954391    3806.3091          522 
   25200      0.49104    -7.212965    3804.4538          534 
   25300   0.48497817   -7.2159421     3802.614          511 
   25400   0.49388308   -7.2121492    3806.7535          472 
   25500   0.49840229   -7.2046705    3807.0725          464 
   25600   0.48769016   -7.1965757    3812.9672          488 
   25700   0.48681028   -7.1961742    3801.6708          542 
   25800   0.47882759   -7.2064917    3809.4465          468 
   25900   0.49506837   -7.1998463    3810.2846          447 
   26000   0.50269549   -7.1896135    3809.0672          503 
   26100   0.48905307   -7.2058128    3810.6914          457 
   26200   0.48654491   -7.2102639    3812.0898          430 
   26300   0.48809843   -7.2084153    3796.8815          447 
   26400   0.49170344   -7.2185249    3802.1948          500 
   26500   0.49199302   -7.1976665    3804.6247          536 
   26600   0.49187923   -7.1928392    3808.3854          565 
   26700   0.49255906   -7.2030776    3807.7876          623 
   26800   0.49064147   -7.2047056     3802.696          553 
   26900   0.48093167   -7.2114763    3810.8927          457 
   27000   0.49741779   -7.1997554    3802.5669          507 
   27100   0.48992647   -7.2063815    3809.2301          355 
   27200   0.49435838   -7.2145913    3804.2428          397 
   27300   0.49646522   -7.2211461    3804.3146          456 
   27400    0.4782297   -7.2174359     3803.407          619 
   27500   0.48797977   -7.2177185    3800.2637          578 
   27600   0.50057612   -7.2170725    3806.7347          576 
   27700   0.48669376   -7.2074488    3800.2319          359 
   27800   0.48838507   -7.2325881    3802.2555          606 
   27900   0.48838023    -7.209852    3803.7726          522 
   28000   0.48674576   -7.1908904    3810.5474          274 
   28100   0.48917669   -7.2069314    3804.5884          442 
   28200   0.49173662   -7.2086213    3800.6549          513 
   28300   0.50192008   -7.2120063    3807.0946          517 
   28400   0.49163155   -7.1864745    3793.8919          518 
   28500   0.48215634   -7.2123286    3810.0074          579 
   28600   0.48067735   -7.2050509    3802.2188          533 
   28700   0.49199377   -7.2088062    3803.0487          590 
   28800   0.49192282   -7.2003864    3803.1417          451 
   28900   0.48994118   -7.2169589    3801.0407          490 
   29000    0.4986747   -7.2261586    3801.2829          550 
   29100   0.49123601   -7.2219449    3800.3821          433 
   29200    0.4885993   -7.2137281    3799.9246          551 
   29300    0.4922629    -7.197471     3804.927          504 
   29400   0.48428375   -7.2033657    3803.3594          388 
   29500    0.4824531   -7.2106369    3802.3575          534 
   29600   0.49447809   -7.2225599    3802.6518          493 
   29700    0.4906265   -7.2123204    3799.4899          306 
   29800   0.49056209   -7.2219505    3810.3967          552 
   29900   0.48160291   -7.2062234    3795.6843          581 
   30000   0.49125514   -7.2110656    3806.5304          568 
   30100   0.48613261   -7.2132652    3803.2979          529 
   30200   0.48962011   -7.2137884     3805.187          539 
   30300   0.49960113   -7.2076032    3803.6123          536 
   30400   0.48682986   -7.2052118    3803.2297          583 
   30500   0.48944293   -7.2268519    3813.2933          662 
   30600   0.49524498   -7.1889029    3800.7436          671 
   30700     0.484326   -7.2111974    3807.9758          551 
   30800   0.49251092   -7.2030148    3802.2972          567 
   30900   0.48284077   -7.2112462    3801.0981          570 
   31000   0.48892237   -7.2126438    3805.4252          540 
   31100   0.49408851   -7.2053633    3794.5468          554 
   31200   0.48476213   -7.2266237    3802.9181          564 
   31300   0.48100713   -7.1921282    3806.0506          647 
   31400   0.49247815   -7.2153896    3809.9168          674 
   31500   0.48253516   -7.2143549    3797.6116          671 
   31600   0.49156107   -7.2166362    3807.4191          611 
   31700   0.48276695   -7.1977615     3800.285          618 
   31800   0.48075431   -7.2061059    3807.6639          349 
   31900   0.49086002   -7.1905469    3806.8966          454 
   32000   0.49198086   -7.2149854    3804.3452          556 
   32100   0.48511653   -7.2123257    3799.5704          662 
   32200    0.4954569   -7.2111868    3808.2161          634 
   32300   0.50311401   -7.1971804    3807.4154          582 
   32400   0.48751235   -7.2090346    3809.0036          562 
   32500   0.48265223    -7.211155     3800.678          611 
   32600   0.48590346   -7.2111889    3808.1699          660 
   32700   0.49750699   -7.2057443    3794.1069          642 
   32800   0.49174621   -7.2353085    3803.3723          670 
   32900   0.47797966     -7.22222    3795.1287          477 
   33000   0.48559463   -7.2100167    3804.0946          442 
   33100   0.49046347   -7.2093345    3807.1723          600 
   33200   0.48691268   -7.2231179    3794.8941          624 
   33300   0.48558361   -7.2188642     3803.858          420 
   33400   0.48695642   -7.2191974     3803.413          609 
   33500   0.48144729   -7.2174617    3797.2408          478 
   33600   0.48763234   -7.2223437    3808.0079          691 
   33700   0.49132743   -7.2147918    3804.1352          639 
   33800   0.48721221   -7.2254429    3797.3219          426 
   33900   0.49629956   -7.2271006    3807.3629          618 
   34000   0.49875011   -7.1964924    3803.5383          509 
   34100   0.48615618   -7.2119023    3808.6756          476 
   34200   0.48956144   -7.2123203    3795.7416          635 
   34300   0.48226168   -7.2174262    3809.9061          672 
   34400   0.49612934   -7.2095755     3801.735          655 
   34500   0.48779874   -7.2239053    3802.3613          700 
   34600   0.49084964    -7.200821    3806.7447          672 
   34700   0.49887724   -7.2123297    3806.8385          596 
   34800   0.49065702   -7.2095479    3799.2035          737 
   34900   0.48782142   -7.2186996    3808.2847          646 
   35000    0.4753494   -7.2195559    3801.9673          630 
   35100    0.4951694   -7.2184397    3801.4609          520 
   35200   0.50120622    -7.217311    3804.1097          643 
   35300   0.48702227   -7.2099528    3796.8972          660 
   35400   0.48613718   -7.2157641    3799.1209          445 
   35500   0.48541943   -7.2051814    3802.8236          638 
   35600   0.48593089   -7.1972304     3802.467          556 
   35700   0.48669787   -7.2204457    3807.9237          628 
   35800   0.49418812   -7.2202096    3801.2809          618 
   35900   0.49593269   -7.2218955    3806.8663          533 
   36000   0.47848392   -7.2056533    3802.9178          693 
   36100   0.48869341   -7.2053286    3800.5331          666 
   36200   0.50068629   -7.1958483    3803.0348          629 
   36300   0.48033957   -7.2053688    3809.6649          711 
   36400   0.49734759   -7.2197356    3799.7822          694 
   36500   0.48538009   -7.2214233    3806.1324          696 
   36600    0.4857777   -7.2093582    3802.9591          685 
   36700   0.50023867   -7.2040749    3806.3968          677 
   36800   0.48574805   -7.2108891     3806.179          563 
   36900   0.49408671   -7.2225048    3802.4119          712 
   37000     0.485364   -7.2281008    3797.9969          522 
   37100   0.49309912   -7.2271514    3807.4415          708 
   37200   0.50080403   -7.1947108    3798.7068          566 
   37300    0.4890652   -7.2163075    3808.6659          614 
   37400   0.48676305   -7.2165114    3798.9446          610 
   37500   0.49163308   -7.2358241    3800.4459          709 
   37600   0.48670839   -7.2041441    3802.3686          798 
   37700   0.49630286   -7.2173859    3800.4583          829 
   37800   0.48980448   -7.2183394    3804.1961          717 
   37900   0.49055741   -7.2259499    3803.2468          791 
   38000   0.49257619    -7.231694    3796.5414          837 
   38100   0.49167784    -7.218838    3805.0013          797 
   38200   0.49784199   -7.2112529    3800.4875          732 
   38300     0.502695   -7.2251443    3807.5364          726 
   38400     0.477767   -7.1979039     3792.821          731 
   38500   0.48122754   -7.2243887    3813.2962          685 
   38600     0.495515   -7.2076442    3796.4101          692 
   38700   0.49393851    -7.212799    3801.8981          724 
   38800   0.49315022   -7.2270112     3794.393          592 
   38900   0.49848938   -7.2269453    3801.4805          725 
   39000   0.49876799   -7.2080827    3805.7541          825 
   39100   0.49120179   -7.2111128    3801.0665          803 
   39200   0.49411485   -7.2319947    3798.6031          820 
   39300   0.49262599   -7.2182025    3792.9597          834 
   39400   0.48948299   -7.2120101    3807.0013          830 
   39500    0.4913478    -7.225077    3803.0283          790 
   39600   0.48515949   -7.2249481    3793.5995          738 
   39700   0.49058239   -7.2334674    3806.3125          809 
   39800   0.48467601   -7.2028757    3797.7203          828 
   39900   0.48207326   -7.2159271    3800.4989          700 
   40000   0.47988606   -7.2160241    3797.8449          777 
   40100   0.48659799   -7.2176197    3808.0431          722 
   40200    0.4940795   -7.1992667    3798.1902          741 
   40300    0.4820318   -7.2299495    3805.3717          743 
   40400   0.48906199   -7.2082788    3797.7669          750 
   40500   0.49498315    -7.220251    3802.6424          727 
   40600   0.50511605   -7.2276786     3795.653          746 
   40700   0.48501562   -7.2289842    3800.1429          756 
   40800   0.49113308   -7.2121188    3797.3969          746 
   40900   0.49420735   -7.2071531    3806.3587          734 
   41000    0.4972377   -7.2228562    3803.5037          730 
   41100   0.48111997   -7.2146907     3802.352          728 
   41200   0.48827611   -7.2145226    3804.2585          763 
   41300   0.49743158   -7.2269737    3807.2988          765 
   41400   0.48901117   -7.2313017    3794.9118          800 
   41500   0.48846598   -7.2223134    3800.7078          746 
   41600   0.49494025   -7.2123217     3799.595          805 
   41700   0.49121584   -7.2268292    3801.5035          810 
   41800    0.4882091   -7.2184148     3798.079          810 
   41900   0.48859355   -7.2141569    3801.1829          702 
   42000   0.48425916    -7.234058    3804.7921          650 
   42100   0.48988984   -7.2274391    3792.9031          721 
   42200   0.48857535   -7.2237585    3802.3668          730 
   42300   0.50080825   -7.2078232    3805.3872          706 
   42400    0.4952289   -7.2065227    3800.0147          709 
   42500   0.49761116   -7.2238053    3800.7701          737 
   42600    0.4872629   -7.2224876    3793.7797          738 
   42700   0.47985895   -7.2246355    3807.8307          725 
   42800   0.49143661   -7.2081613     3796.938          762 
   42900   0.49410543   -7.2216998    3805.7268          767 
   43000   0.48887903   -7.2230003    3790.9352          838 
   43100   0.48707534    -7.229111    3802.1162          840 
   43200   0.48349289   -7.2207216    3805.2658          796 
   43300   0.49923788   -7.2084343    3796.9201          833 
   43400   0.48066629   -7.2242994    3803.0046          839 
   43500   0.49349374   -7.2299202    3801.6015          747 
   43600   0.49666375   -7.2125777    3803.3922          817 
   43700   0.48321135   -7.2216623    3802.0422          755 
   43800   0.48061981   -7.2371556    3803.1545          829 
   43900    0.4837951   -7.2199742    3792.6572          834 
   44000   0.48660837   -7.2208122    3806.1435          771 
   44100   0.49080361   -7.2118085    3795.8972          767 
   44200   0.49217415   -7.2231162    3797.8117          866 
   44300   0.48464526   -7.2224473    3803.2431          811 
   44400   0.50965498    -7.222802     3797.946          866 
   44500   0.48834552   -7.2206801    3802.5891          836 
   44600   0.48848751   -7.2288692    3797.7808          799 
   44700   0.49854572   -7.2262658    3803.3143          719 
   44800   0.49400161   -7.2280968    3802.6231          744 
   44900      0.48948   -7.2267042    3792.2845          788 
   45000   0.48599846    -7.217083    3800.4928          872 
   45100   0.49035983   -7.2199482    3802.8693          805 
   45200   0.49077005   -7.2215144    3789.8898          875 
   45300   0.49569713   -7.2381901    3810.9243          924 
   45400   0.49826425   -7.2187145    3797.7324          911 
   45500   0.48908044   -7.2338618    3798.4587          877 
   45600   0.48768763   -7.2193103    3802.8472          889 
   45700   0.49806465   -7.2290153    3802.6607          959 
   45800   0.48522789   -7.2290862    3796.5636          945 
   45900   0.49225174   -7.2215667    3799.3889          993 
   46000   0.49384826   -7.2098031    3805.1432         1026 
   46100   0.49713696   -7.2265617    3793.2401         1096 
   46200    0.4934836   -7.2411637    3798.1271          957 
   46300   0.49455732    -7.235299    3801.2802          949 
   46400   0.48810062   -7.2094141    3788.8369          976 
   46500   0.49560963   -7.2418581    3805.2311          986 
   46600   0.50412565    -7.216689    3796.8235          921 
   46700   0.48114137   -7.2201855     3802.155          901 
   46800   0.49245043   -7.2350949    3805.5083          997 
   46900   0.50071164   -7.2063291    3795.7158         1051 
   47000   0.49102488   -7.2260682    3807.6263          978 
   47100   0.49569353   -7.2214288    3795.6013         1049 
   47200   0.48388515   -7.2352045    3795.6077         1020 
   47300   0.47288389   -7.2427933     3793.563         1028 
   47400   0.49318609   -7.2422399    3799.9127         1036 
   47500   0.49889249   -7.2205687    3796.1411          980 
   47600    0.4979097   -7.2281334    3797.3926          915 
   47700   0.48596467   -7.2347413    3802.5082          934 
   47800   0.49160774   -7.2246403    3799.9084         1024 
   47900   0.48338498   -7.2255068    3789.6655          921 
   48000   0.49644334   -7.2344167    3793.1348          996 
   48100    0.4894751   -7.2286929    3799.4385          906 
   48200   0.48945438   -7.2166626    3800.8536          948 
   48300   0.48193288   -7.2417492    3798.8028         1032 
   48400   0.49236746   -7.2367343    3787.2325         1014 
   48500   0.48985425   -7.2345773    3806.3117          988 
   48600    0.4778285   -7.2135771     3796.128          979 
   48700   0.48458204   -7.2217167    3797.8985          965 
   48800   0.49126743   -7.2302917    3804.5107          983 
   48900   0.50455478   -7.2362166    3792.0199          978 
   49000   0.49457668   -7.2509175     3799.222         1036 
   49100   0.48698385   -7.2163282    3794.1994         1009 
   49200   0.48933208   -7.2299883    3807.9223          977 
   49300   0.48737564   -7.2240874    3785.6488         1051 
   49400   0.47664818    -7.244746    3799.9882         1048 
   49500   0.49772109   -7.2314794    3792.5691         1022 
   49600   0.48918693   -7.2216165    3795.8524         1052 
   49700    0.4925584   -7.2326874    3801.8327         1034 
   49800   0.49284001   -7.2379626    3795.5996          999 
   49900   0.49290928   -7.2239484    3803.2679         1051 
   50000   0.49386353   -7.2125227    3794.2704         1048 
   50100   0.48840645   -7.2427859    3801.6431         1037 
   50200   0.49281868   -7.2300549    3789.7032         1007 
   50300   0.49808614   -7.2255951    3805.9845          995 
   50400   0.49498041   -7.2291462    3792.3835         1004 
   50500   0.48465839   -7.2327771    3798.6125          975 
   50600   0.49131208   -7.2291017    3800.4477          919 
   50700    0.4755358   -7.2257093    3789.7587          944 
   50800   0.48421741    -7.234058     3802.398         1021 
   50900   0.48483493   -7.2284721    3797.1684         1007 
   51000   0.49431945   -7.2388225    3798.7501          985 
   51100    0.4956026   -7.2322561    3803.0048          974 
   51200   0.48248287   -7.2263393    3792.6928         1012 
   51300   0.48614664   -7.2247335    3796.2032         1069 
   51400   0.50156133   -7.2353214    3798.5258         1077 
   51500   0.48565909   -7.2208862    3791.0061         1066 
   51600   0.48287464   -7.2289896    3804.5022         1042 
   51700   0.49158794   -7.2170225     3798.847         1072 
   51800   0.48925647   -7.2395959    3792.7742         1110 
   51900   0.49675936   -7.2458656    3796.3191         1065 
   52000   0.49171126   -7.2372253    3797.6341         1075 
   52100   0.49351363   -7.2190466    3795.7928         1059 
   52200   0.48542307   -7.2362136    3798.8299         1054 
   52300   0.49522257   -7.2451041    3791.1936         1052 
   52400   0.48625482   -7.2369657    3804.3473         1025 
   52500   0.49351905   -7.2184136    3787.7697         1052 
   52600   0.48507745   -7.2396962    3805.1311         1001 
   52700   0.50185773   -7.2290201    3794.8424          990 
   52800   0.48446243   -7.2356144    3801.0519         1072 
   52900   0.48607319   -7.2396706    3791.9956         1071 
   53000   0.49361544   -7.2329752    3797.9613          972 
   53100   0.48981317   -7.2285201    3802.6948          995 
   53200   0.48619979   -7.2208249    3791.0789         1023 
   53300   0.50000291   -7.2575359    3800.4016         1069 
   53400   0.49177773   -7.2278749     3788.493         1060 
   53500   0.48698011   -7.2391407    3801.1697         1021 
   53600    0.4956331   -7.2163797    3797.7622         1010 
   53700   0.49508662   -7.2476709    3795.1537         1068 
   53800    0.4856842   -7.2454328    3799.8702         1064 
   53900   0.48716271   -7.2228479    3797.2209         1082 
   54000   0.48517636   -7.2385514    3798.6895         1096 
   54100   0.50870313   -7.2344897    3798.0403         1101 
   54200   0.49113242   -7.2357076    3800.6447         1052 
   54300   0.48278268   -7.2338924    3792.1978         1038 
   54400   0.49188988   -7.2412629    3797.1806         1037 
   54500   0.50857603   -7.2414178    3794.4978         1040 
   54600   0.47722723   -7.2211505    3793.9476         1078 
   54700   0.48428247   -7.2238042    3798.5957         1116 
   54800    0.4848962   -7.2535745     3803.015         1095 
   54900   0.48184912   -7.2220674    3786.9279         1070 
   55000   0.49246575   -7.2437744    3805.6554         1063 
   55100   0.48872453   -7.2358855    3794.3379         1049 
   55200   0.48025461    -7.254133    3799.3849         1068 
   55300   0.49291219   -7.2259067    3788.8971         1062 
   55400   0.48950573   -7.2465529    3797.3211         1111 
   55500   0.48832518   -7.2579694    3789.4661         1123 
   55600    0.4963159   -7.2456632    3795.2754         1083 
   55700   0.48692332   -7.2385964    3802.8087         1102 
   55800   0.49665237   -7.2337815    3791.5875         1109 
   55900   0.48371671   -7.2416402    3794.7574         1100 
   56000   0.49414888   -7.2414802     3798.838         1070 
   56100   0.48521017   -7.2338139    3800.3914         1092 
   56200   0.49733144   -7.2309093    3795.0508         1132 
   56300   0.48445781   -7.2426188    3793.9048         1121 
   56400   0.49391816   -7.2361077    3796.1838         1090 
   56500   0.48718145   -7.2324316    3796.3596         1087 
   56600   0.48353771   -7.2409756    3798.9202         1052 
   56700    0.4877255   -7.2430969    3783.2493         1127 
   56800   0.49340483   -7.2509199    3804.1422         1119 
   56900   0.48715811   -7.2226997    3789.3841         1150 
   57000   0.47880844    -7.258552    3798.7979         1199 
   57100   0.48988389   -7.2434187    3794.3436         1224 
   57200   0.49503943   -7.2374396    3793.8608         1141 
   57300     0.499799   -7.2400268    3799.3714         1198 
   57400   0.48746074   -7.2404243    3794.2819         1219 
   57500   0.48465548   -7.2454402    3798.8833         1192 
   57600   0.50068145   -7.2395986    3789.0679         1157 
   57700   0.48590501   -7.2352609    3798.7473         1185 
   57800   0.48059662   -7.2360885    3787.1974         1199 
   57900   0.49103481    -7.249988    3798.4132         1217 
   58000   0.49330851   -7.2340633    3788.7238         1262 
   58100   0.48207396   -7.2557119    3802.2204         1236 
   58200   0.49201305   -7.2385103    3794.8328         1182 
   58300   0.48159403   -7.2234575    3794.5174         1212 
   58400    0.4887247   -7.2444495    3806.2724         1188 
   58500   0.48977343   -7.2448636    3789.2585         1162 
   58600   0.48423593     -7.24031    3789.8788         1192 
   58700   0.49339445   -7.2278086    3798.8751         1173 
   58800   0.48808985   -7.2244691    3791.8543         1148 
   58900   0.47928385   -7.2538723    3793.5337         1182 
   59000   0.48829578   -7.2450917    3796.1126         1219 
   59100   0.49000874   -7.2249717    3791.2146         1226 
   59200   0.48429365   -7.2489722     3799.438         1189 
   59300   0.49888224   -7.2462462    3784.5083         1217 
   59400   0.49516419   -7.2620392    3804.0712         1203 
   59500   0.48857322   -7.2256162    3788.6293         1175 
   59600   0.50044269   -7.2488789    3800.5232         1200 
   59700   0.49006903   -7.2455039    3791.8259         1235 
   59800   0.49305717   -7.2542547    3791.4223         1208 
   59900   0.49458569   -7.2350339    3800.1171         1172 
   60000   0.49657475   -7.2373406     3796.153         1261 
   60100    0.4903002   -7.2368252    3795.8671         1231 
   60200   0.49993731   -7.2425931    3798.0021         1223 
   60300    0.4931982   -7.2566577      3793.74         1177 
   60400   0.49730868   -7.2472009    3789.3285         1171 
   60500   0.49970341   -7.2442937     3800.796         1192 
   60600   0.49855358   -7.2442865    3794.6394         1183 
   60700   0.49127913   -7.2581841    3794.5562         1241 
   60800     0.486828   -7.2584658    3789.4098         1194 
   60900   0.48053612   -7.2306508    3793.0131         1168 
   61000     0.490461   -7.2330331     3795.884         1234 
   61100   0.48807205   -7.2522785    3796.0316         1224 
   61200   0.48516764   -7.2368818    3791.8304         1172 
   61300   0.49150738   -7.2366335    3799.4458         1176 
   61400    0.4898907   -7.2447843     3794.072         1172 
   61500   0.49069965   -7.2490696    3791.5685         1182 
   61600   0.48813712   -7.2450138    3794.1931         1204 
   61700    0.4919578   -7.2316256     3798.733         1192 
   61800   0.48644008   -7.2464267    3787.5338         1229 
   61900   0.48932991   -7.2465994    3799.2168         1191 
   62000   0.49588648   -7.2360936    3792.8587         1248 
   62100   0.48676069   -7.2651117    3796.5687         1194 
   62200   0.49041228   -7.2333168    3786.1265         1197 
   62300    0.4997978   -7.2568501    3804.7755         1221 
   62400   0.48762861   -7.2459517    3785.4376         1264 
   62500   0.48998194   -7.2575506    3794.8514         1272 
   62600   0.48817284   -7.2398594    3795.1112         1212 
   62700   0.48909075   -7.2246051    3795.7233         1229 
   62800     0.487141   -7.2270175    3800.2795         1242 
   62900    0.4864237   -7.2476826    3792.6992         1232 
   63000   0.49107155   -7.2419799    3794.0828         1218 
   63100   0.48774933   -7.2399854     3794.072         1290 
   63200   0.47920522   -7.2473829    3790.0749         1210 
   63300   0.49634724    -7.239837    3791.6087         1228 
   63400   0.48646448   -7.2465781    3804.7901         1209 
   63500   0.49888659   -7.2163222    3783.8506         1198 
   63600   0.48401508   -7.2587957    3805.0578         1284 
   63700   0.49585428   -7.2302288    3787.7212         1253 
   63800   0.48907854   -7.2396276    3798.8512         1198 
   63900   0.47597396   -7.2357963    3796.6325         1195 
   64000   0.49549386   -7.2423128    3791.0249         1257 
   64100   0.48180527   -7.2582286    3795.5377         1253 
   64200   0.50323533   -7.2516732    3785.0676         1226 
   64300   0.49194612   -7.2499192    3801.7961         1205 
   64400   0.48498074    -7.228392    3790.6913         1244 
   64500   0.48940315   -7.2580319    3790.2183         1292 
   64600   0.49303592   -7.2433415     3799.027         1244 
   64700   0.49249076   -7.2311654    3790.1505         1283 
   64800    0.4921659   -7.2534451    3795.9901         1294 
   64900   0.48139417    -7.234649    3783.9592         1313 
   65000   0.48697796   -7.2309939    3794.7438         1238 
   65100   0.49110409     -7.24562    3794.3373         1296 
   65200    0.4855234   -7.2587981    3792.2446         1294 
   65300   0.49182485   -7.2348323     3790.071         1285 
   65400   0.49610753   -7.2633684    3797.0225         1254 
   65500   0.48667045   -7.2463333    3785.9334         1322 
   65600   0.49191507   -7.2410946    3795.4696         1323 
   65700   0.48228688   -7.2401784    3796.9004         1337 
   65800   0.48038175   -7.2406609     3790.623         1353 
   65900   0.49362699   -7.2625525    3788.8542         1320 
   66000   0.49404779   -7.2271792    3785.1258         1344 
   66100    0.4834056   -7.2444616    3802.9495         1321 
   66200    0.4761143   -7.2429881    3786.1095         1301 
   66300   0.48884824    -7.248597    3796.3922         1379 
   66400   0.49319468   -7.2483728    3798.2538         1345 
   66500   0.49522471   -7.2437085    3793.1012         1307 
   66600   0.48675708    -7.260367    3790.6457         1355 
   66700   0.49411566   -7.2573463    3793.4377         1363 
   66800   0.50407819   -7.2592475    3791.8711         1377 
   66900   0.48686998   -7.2534193    3791.0485         1384 
   67000    0.4942703   -7.2457827    3793.3573         1367 
   67100   0.48209005   -7.2454918    3801.6623         1342 
   67200   0.50072239   -7.2504739    3780.1068         1353 
   67300   0.48766354    -7.271774    3801.5297         1339 
   67400   0.49077949   -7.2413736    3789.2906         1415 
   67500   0.49723483   -7.2516012    3791.5582         1349 
   67600     0.487895   -7.2498801    3783.8063         1389 
   67700   0.48768832   -7.2545912    3801.8022         1394 
   67800   0.50178376   -7.2532829    3789.6351         1369 
   67900   0.48850768   -7.2470616    3793.6065         1394 
   68000   0.48391111   -7.2471523    3789.5233         1371 
   68100   0.48319878   -7.2418605    3795.4241         1383 
   68200   0.49520573   -7.2442194    3792.1429         1373 
   68300   0.48402127   -7.2550975    3794.7126         1370 
   68400   0.49019506   -7.2585442    3787.6335         1359 
   68500    0.4997341   -7.2646696    3790.9171         1369 
   68600   0.49267905   -7.2636543    3787.7029         1354 
   68700   0.49278945   -7.2400997    3797.0705         1394 
   68800   0.48364237   -7.2407619    3793.3261         1419 
   68900   0.48345343   -7.2410151      3788.93         1419 
   69000   0.49341807   -7.2408887    3795.7638         1373 
   69100   0.49686998    -7.260662    3791.3599         1372 
   69200   0.49217635   -7.2508536    3784.7608         1394 
   69300   0.49376828   -7.2438251    3793.5876         1365 
   69400   0.50252348   -7.2423909    3795.0903         1404 
   69500    0.4833502   -7.2454925    3795.2869         1435 
   69600   0.48854183   -7.2500261    3790.7496         1417 
   69700   0.48111208   -7.2508887    3788.2438         1433 
   69800   0.49032148   -7.2331003    3785.0011         1384 
   69900   0.48711381   -7.2484047    3799.3798         1372 
   70000   0.47928041   -7.2461946    3788.7863         1424 
   70100   0.48296924   -7.2517554    3786.7224         1423 
   70200   0.48772137   -7.2513614    3801.0308         1450 
   70300   0.48319624   -7.2485962    3790.3962         1419 
   70400   0.48704571   -7.2577657    3793.7537         1487 
   70500   0.49733746   -7.2438156    3797.4418         1399 
   70600   0.48757158   -7.2512142    3790.5801         1450 
   70700    0.4873441   -7.2561815    3787.5458         1413 
   70800   0.49148119   -7.2522367    3795.5211         1455 
   70900   0.48476577   -7.2545274      3790.35         1406 
   71000   0.49590017   -7.2643353     3796.492         1492 
   71100   0.50029302   -7.2398484     3784.276         1438 
   71200   0.48409022   -7.2597917    3798.5894         1441 
   71300   0.48506077   -7.2566705    3784.8893         1486 
   71400   0.49142331   -7.2412573    3799.2477         1459 
   71500    0.4904657   -7.2464784    3790.9211         1484 
   71600   0.48819832   -7.2614784    3793.1217         1443 
   71700    0.4754221   -7.2541004    3791.5091         1473 
   71800   0.48906899   -7.2386656    3793.2726         1467 
   71900   0.49697691   -7.2486357    3791.6121         1500 
   72000    0.4837719   -7.2575754    3795.1892         1484 
   72100   0.49789405   -7.2539165     3792.232         1467 
   72200   0.49395839   -7.2428342    3792.6217         1515 
   72300   0.47882074   -7.2539529    3792.0342         1511 
   72400    0.4939055   -7.2562049    3790.6984         1474 
   72500   0.48452264   -7.2206402    3800.1161         1403 
   72600   0.49130076    -7.251508    3792.3677         1473 
   72700   0.49226413   -7.2470057    3779.5745         1486 
   72800   0.49376276   -7.2521954    3799.3122         1454 
   72900    0.4950963   -7.2415136    3783.8488         1491 
   73000   0.49607448    -7.276005    3797.5232         1468 
   73100   0.48976887   -7.2607071    3785.8142         1522 
   73200    0.4915684   -7.2337952    3794.8407         1414 
   73300   0.49081607   -7.2562681    3796.0397         1500 
   73400   0.49738765   -7.2626562    3788.2235         1508 
   73500   0.51081726   -7.2549641     3788.732         1434 
   73600   0.48330821   -7.2650435     3803.402         1491 
   73700    0.4928189   -7.2569866    3784.3185         1475 
   73800   0.48283892   -7.2610952    3796.8018         1467 
   73900   0.49870379   -7.2498413    3789.4014         1461 
   74000   0.48976794   -7.2552926    3786.2474         1485 
   74100   0.48553632   -7.2547758    3798.0993         1469 
   74200   0.49316557   -7.2498541    3784.8061         1514 
   74300   0.49295722   -7.2821725    3801.2384         1488 
   74400   0.50209584   -7.2479509    3776.3872         1463 
   74500   0.49236766   -7.2560024    3797.4973         1525 
   74600    0.4900241   -7.2526978    3792.7407         1524 
   74700   0.48636066   -7.2569438    3787.0344         1563 
   74800   0.47963236   -7.2487972    3792.2784         1522 
   74900   0.49109535     -7.25241    3796.2453         1556 
   75000   0.49221827   -7.2542903    3786.9321         1543 
   75100   0.48482762   -7.2769247     3792.333         1549 
   75200   0.49834368   -7.2449688    3782.4068         1581 
   75300   0.49589966   -7.2563936    3792.0158         1583 
   75400   0.48170555   -7.2579457    3787.9245         1566 
   75500   0.49170424   -7.2624241    3792.2522         1519 
   75600   0.49373361    -7.254332    3788.7511         1526 
   75700   0.49160516    -7.251262    3793.2182         1536 
   75800   0.48672125   -7.2596515    3784.7031         1562 
   75900   0.48721535    -7.255475     3787.834         1520 
   76000   0.49218009   -7.2571269    3789.4255         1558 
   76100   0.49073974   -7.2588157    3795.2185         1547 
   76200   0.48921252   -7.2414068    3792.2789         1558 
   76300    0.4830518    -7.265624    3789.4153         1580 
   76400    0.4881806    -7.250664    3790.8427         1609 
   76500   0.50071619    -7.263598    3785.3201         1602 
   76600   0.49847299   -7.2675968    3787.7265         1560 
   76700   0.47578084    -7.258519    3794.6451         1549 
   76800   0.47933548   -7.2641359    3785.3423         1601 
   76900   0.49648331   -7.2616705    3789.6072         1592 
   77000   0.49650918   -7.2674795    3792.7895         1585 
   77100   0.48831404   -7.2664286    3786.2197         1608 
   77200   0.49055743   -7.2580832    3790.0023         1599 
   77300   0.50033537   -7.2453173    3791.8984         1547 
   77400   0.48253934   -7.2452374    3790.6735         1608 
   77500   0.48655632    -7.269784    3790.3406         1624 
   77600   0.48614471   -7.2661711    3780.5405         1668 
   77700   0.48520155   -7.2542495    3799.1704         1627 
   77800   0.50140562   -7.2512727    3783.4493         1636 
   77900   0.48867841     -7.28437    3794.8391         1679 
   78000   0.49270216   -7.2653799    3786.6554         1658 
   78100    0.4948752   -7.2644021    3797.0934         1585 
   78200   0.48171033   -7.2532735     3787.323         1584 
   78300   0.49104698   -7.2560186    3788.7969         1631 
   78400   0.49732133   -7.2579099     3792.461         1642 
   78500   0.48543052   -7.2607314    3789.5683         1565 
   78600   0.47627385   -7.2653839     3788.019         1620 
   78700   0.48610826   -7.2499693    3793.5713         1588 
   78800   0.48643941    -7.257731    3789.4724         1609 
   78900   0.49008222   -7.2610724    3783.2967         1638 
   79000   0.49119634   -7.2749113    3794.8895         1588 
   79100   0.49484337    -7.244256    3787.9977         1620 
   79200    0.4888542   -7.2667321    3795.0482         1613 
   79300   0.49698545   -7.2611699     3777.391         1616 
   79400    0.4810421   -7.2657441    3794.8711         1622 
   79500   0.48238895   -7.2457449    3783.9921         1615 
   79600   0.49639172   -7.2716621    3793.1908         1634 
   79700   0.48488704   -7.2569287    3779.4018         1676 
   79800   0.48483632   -7.2787888    3795.9447         1646 
   79900   0.49649886   -7.2570321    3783.0505         1636 
   80000   0.48683339   -7.2696002    3798.1117         1628 
   80100   0.49800875   -7.2591022    3790.4162         1684 
   80200   0.48673551    -7.252592    3792.1307         1661 
   80300   0.49005233   -7.2669483    3791.2336         1700 
   80400    0.4911558   -7.2640201    3789.4553         1650 
   80500   0.48704507    -7.271388    3782.2744         1668 
   80600   0.48242467   -7.2684669    3784.5104         1766 
   80700   0.49545317   -7.2670276     3794.295         1687 
   80800   0.49502666   -7.2582564      3784.52         1696 
   80900   0.48571744    -7.280244    3793.3611         1674 
   81000   0.49672597   -7.2576399    3785.1751         1665 
   81100   0.47748029   -7.2707784    3790.9349         1679 
   81200   0.48806924   -7.2559549     3783.921         1685 
   81300   0.49508913   -7.2521078     3791.329         1620 
   81400   0.48788819   -7.2743533    3793.3375         1681 
   81500   0.49691285   -7.2662613    3780.9514         1638 
   81600   0.48861457   -7.2645014    3795.7768         1712 
   81700   0.48908639   -7.2508178    3787.2422         1705 
   81800   0.48577173   -7.2742302    3791.6226         1734 
   81900   0.49745971   -7.2620094    3786.6864         1748 
   82000     0.480687   -7.2634078    3791.5564         1735 
   82100   0.48862079   -7.2654438    3785.8804         1706 
   82200   0.49178471   -7.2622586    3785.1091         1692 
   82300   0.50340251   -7.2669758    3789.6972         1679 
   82400   0.49789717   -7.2701926    3782.6617         1705 
   82500   0.49261222   -7.2661493    3783.4019         1743 
   82600   0.49200954   -7.2720527    3800.6785         1694 
   82700   0.48697518   -7.2446654     3785.729         1716 
   82800   0.48644607   -7.2784102    3785.8008         1757 
   82900   0.49475781   -7.2608785     3779.265         1701 
   83000   0.49880487   -7.2754243    3794.3306         1694 
   83100   0.48721771   -7.2656314    3780.8425         1709 
   83200   0.47789693   -7.2722624    3783.3317         1740 
   83300   0.49265598   -7.2639698    3787.3725         1715 
   83400   0.50133964   -7.2575009    3782.4528         1729 
   83500    0.4874374   -7.2773911     3791.066         1754 
   83600   0.48475453   -7.2671949    3786.2188         1742 
   83700   0.49658471   -7.2585162    3789.8073         1728 
   83800   0.48948806   -7.2598418    3790.2063         1765 
   83900   0.48465248   -7.2782707    3785.9634         1749 
   84000   0.48218646   -7.2594273    3785.6182         1711 
   84100   0.49522994   -7.2695836     3785.332         1760 
   84200   0.48722047    -7.266328    3785.6308         1772 
   84300   0.49229294   -7.2652182    3787.4241         1677 
   84400   0.49927398    -7.261683    3791.7404         1653 
   84500   0.49164696   -7.2697929    3790.8289         1711 
   84600   0.48637911   -7.2642056    3783.6602         1725 
   84700   0.47407086   -7.2837792    3785.4908         1765 
   84800   0.48631919    -7.260827    3784.9596         1699 
   84900   0.49558642   -7.2698951    3788.2781         1714 
   85000   0.48344767   -7.2674909    3789.0642         1741 
   85100   0.50630176   -7.2619729    3783.4875         1750 
   85200   0.48632789   -7.2649918     3788.472         1773 
   85300   0.48673941   -7.2691952    3787.9506         1770 
   85400   0.47166243    -7.274813    3783.9429         1672 
   85500     0.492736   -7.2745925    3780.7848         1774 
   85600   0.49953929   -7.2723364    3788.1615         1743 
   85700   0.49316098   -7.2715343    3789.6469         1724 
   85800   0.49251918   -7.2686577    3789.1221         1708 
   85900   0.48969215   -7.2599551    3789.1408         1683 
   86000   0.48419112   -7.2735694    3789.1149         1759 
   86100   0.49423006   -7.2675031    3787.0218         1708 
   86200   0.49026315   -7.2588971    3783.7776         1715 
   86300   0.49001453   -7.2642346    3794.4862         1767 
   86400   0.48049873   -7.2583694    3777.0283         1782 
   86500   0.48194537   -7.2618436    3791.9915         1764 
   86600   0.48709526   -7.2515569     3783.717         1715 
   86700   0.49339626   -7.2670327    3796.1559         1760 
   86800   0.48617853   -7.2560388    3784.2104         1715 
   86900   0.48818838    -7.268184    3788.4953         1751 
   87000   0.50237149   -7.2592157    3784.6953         1778 
   87100   0.48879597     -7.26897    3792.0359         1806 
   87200   0.48864255   -7.2653427    3790.1527         1752 
   87300   0.48760959   -7.2362666    3788.1571         1747 
   87400   0.48705382    -7.260512    3799.2378         1739 
   87500   0.48581565   -7.2540234    3782.0291         1731 
   87600   0.49480353   -7.2688969    3786.3241         1794 
   87700   0.49501984   -7.2534388     3792.469         1783 
   87800   0.48852406   -7.2760664    3788.2912         1810 
   87900   0.47758288   -7.2583197    3784.3478         1836 
   88000   0.49186453   -7.2572468    3787.6425         1828 
   88100   0.49763581   -7.2633017    3784.3327         1810 
   88200   0.47952757   -7.2737247    3787.6335         1834 
   88300   0.49070208   -7.2701215    3778.9495         1876 
   88400   0.49261109   -7.2698843    3794.5118         1861 
   88500     0.502332   -7.2694361    3780.1585         1875 
   88600   0.49039118   -7.2850965    3789.4533         1882 
   88700   0.49038074   -7.2538954     3781.257         1874 
   88800   0.49251499   -7.2642502    3790.9486         1905 
   88900   0.48294839   -7.2693996    3784.6855         1904 
   89000   0.49561179   -7.2752536    3786.4217         1820 
   89100    0.4947363   -7.2592601    3785.8286         1815 
   89200   0.49625241   -7.2633675    3795.2807         1802 
   89300   0.48877961   -7.2584316    3778.2266         1819 
   89400   0.48464444     -7.27862    3794.5699         1771 
   89500   0.49443552   -7.2560443     3785.816         1825 
   89600   0.49907945   -7.2658163    3789.1382         1800 
   89700   0.49091459    -7.279768    3785.2261         1863 
   89800   0.48436308   -7.2765424    3790.9048         1803 
   89900   0.48845029    -7.254104    3785.0068         1767 
   90000   0.48566542    -7.273042    3788.9046         1814 
   90100   0.49223125   -7.2873875    3780.3729         1847 
   90200   0.49186003    -7.286773    3793.0851         1874 
   90300   0.48780209    -7.256953    3780.0989         1863 
   90400   0.47604009   -7.2758471    3786.8983         1856 
   90500   0.48898225   -7.2639316    3779.0057         1869 
   90600   0.48987576   -7.2680145    3793.3579         1867 
   90700   0.48853804    -7.268953    3779.1403         1908 
   90800   0.48130634    -7.287816    3787.2744         1896 
   90900   0.49468779     -7.26121    3779.6496         1848 
   91000   0.48875677   -7.2863161    3793.7684         1844 
   91100   0.48763753    -7.281354    3789.7312         1876 
   91200   0.49415433    -7.261129    3785.5444         1829 
   91300   0.49460246   -7.2792301    3793.1375         1855 
   91400   0.48441249   -7.2688708    3779.9255         1885 
   91500   0.49245932   -7.2665355    3784.5148         1846 
   91600   0.48796031   -7.2806588    3789.0165         1822 
   91700   0.47976504   -7.2782602     3778.979         1858 
   91800    0.4880296   -7.2747919    3791.3144         1899 
   91900   0.48931765    -7.250761    3779.4109         1909 
   92000   0.48299999   -7.2810097    3795.6259         1938 
   92100    0.4938263   -7.2829194    3772.9048         1942 
   92200   0.49594825   -7.2788681    3790.0757         1908 
   92300   0.49922409   -7.2683924    3785.8729         1913 
   92400   0.48505868   -7.2776575    3785.7899         1930 
   92500   0.48527699   -7.2750874    3784.4139         1943 
   92600   0.49321427   -7.2874865    3781.5652         1999 
   92700   0.49203544   -7.2765956    3797.3589         1926 
   92800   0.48237939   -7.2517518    3781.1945         1883 
   92900   0.49354214   -7.2784391    3787.7302         1942 
   93000   0.48312953   -7.2752203    3786.7601         1938 
   93100   0.48320415   -7.2891132    3784.2664         1998 
   93200   0.48561263   -7.2662464    3786.0528         1962 
   93300   0.48368172   -7.2706839    3792.8649         1990 
   93400   0.48693889   -7.2780794    3781.7302         1937 
   93500   0.48014361   -7.2772752    3784.3176         1989 
   93600   0.49228432   -7.2871047    3783.8803         1932 
   93700   0.48856516   -7.2630601    3784.8034         1903 
   93800   0.49011361   -7.2723511     3789.085         1915 
   93900   0.49203783   -7.2676958    3778.1703         1971 
   94000    0.4904394   -7.2723105    3806.3988         1922 
   94100   0.49075989   -7.2584586     3773.647         1914 
   94200   0.49409902   -7.2941297    3791.1213         1865 
   94300   0.49341792   -7.2861325    3781.5673         1946 
   94400   0.48865189   -7.2905553    3783.5335         1935 
   94500   0.49248106   -7.2738396    3786.8505         1973 
   94600   0.48673658   -7.2790588    3787.4305         1954 
   94700   0.48962202   -7.2763961    3776.0279         1952 
   94800   0.49113888   -7.2907934    3795.6615         1969 
   94900   0.49224419   -7.2752106    3780.4457         1982 
   95000   0.47535427   -7.2819311    3783.7725         1977 
   95100   0.49027461   -7.2756765    3782.4537         2009 
   95200   0.48737845   -7.2685443    3788.5468         1908 
   95300   0.49759971   -7.2603546    3785.5811         1966 
   95400   0.49612611   -7.2860212    3778.9934         1954 
   95500   0.48655521   -7.2866489    3786.9029         2003 
   95600   0.49469306   -7.2548222     3780.426         1982 
   95700   0.48879582   -7.2825025    3787.5429         1939 
   95800   0.49200722   -7.2695302    3785.3718         1945 
   95900   0.48770448   -7.2616152    3782.7279         1964 
   96000   0.47735505   -7.2869362    3790.8083         1968 
   96100   0.49866212   -7.2681643    3779.3423         2005 
   96200   0.49791116   -7.2821916    3790.5344         2040 
   96300   0.48561485   -7.2749559    3778.1357         1989 
   96400   0.49562512     -7.27241    3785.8824         1965 
   96500   0.49245528   -7.2736184    3784.7236         1958 
   96600    0.4941426   -7.2763883    3781.0204         2010 
   96700   0.48475204    -7.285285    3780.0423         2013 
   96800    0.4851391   -7.2816362    3785.7926         1964 
   96900   0.48683922   -7.2660936    3779.7714         1970 
   97000   0.49582635   -7.2809462     3785.214         1980 
   97100   0.48865335   -7.2861631    3785.1468         1995 
   97200   0.50220712    -7.264954    3777.7064         1986 
   97300   0.49235332   -7.2763575    3792.9303         2037 
   97400   0.48965295   -7.2841892    3779.8605         2012 
   97500   0.49182551   -7.2738655    3782.7339         1990 
   97600    0.4906139   -7.2692363    3789.0463         2009 
   97700   0.50421579   -7.2973206    3779.1296         2051 
   97800   0.48309101   -7.2868765    3789.4468         2071 
   97900   0.49568691   -7.2761018    3780.5195         2060 
   98000   0.50485773   -7.3050915    3784.8032         2097 
   98100   0.48359668   -7.2773702     3767.843         2030 
   98200   0.48652442    -7.293641    3786.7033         2057 
   98300   0.49426454   -7.2736318    3774.8429         2040 
   98400   0.49090551   -7.2873196    3789.2712         2060 
   98500    0.5005713   -7.2827966    3780.2382         2075 
   98600   0.49754549   -7.2770034    3786.2564         2124 
   98700     0.486711   -7.2825158    3777.0287         2097 
   98800   0.49339168   -7.2809854    3781.3957         2073 
   98900   0.49018504   -7.2624358    3784.9551         2065 
   99000   0.48198844   -7.2701334    3786.9372         2089 
   99100   0.49402666   -7.2834612    3781.0121         2068 
   99200   0.47632719   -7.2909032    3779.7322         2105 
   99300   0.48455701   -7.2814368    3787.1509         2077 
   99400   0.48596857   -7.2666155     3777.207         2079 
   99500   0.47970906    -7.288928    3784.7529         2073 
   99600    0.4872946    -7.290692    3779.7256         2133 
   99700   0.49313806   -7.2799619    3784.4204         2146 
   99800   0.47861632   -7.2699734    3777.2034         2108 
   99900   0.48098639   -7.2773535    3785.6704         2123 
  100000   0.49096769   -7.2901716    3786.9648         2077 
  100100   0.48466782    -7.276346    3777.9611         2046 
  100200   0.48781201   -7.2763377    3788.2135         2042 
  100300   0.48914477   -7.2867673    3781.4432         2137 
  100400   0.49092464   -7.2941179    3785.2124         2128 
  100500   0.49206957   -7.2662875    3776.6116         2076 
  100600   0.49656411   -7.2896275    3792.3466         2197 
  100700   0.48398174   -7.2752005    3778.8954         2176 
  100800   0.47879374    -7.289919    3781.6167         2236 
  100900   0.48634703   -7.2858901    3785.7853         2258 
  101000   0.49116905   -7.2810369    3779.4742         2214 
  101100   0.48686166   -7.2913743    3791.3898         2149 
  101200   0.49194714   -7.2761943    3781.0817         2085 
  101300   0.49564231   -7.3009659    3785.5118         2180 
  101400   0.48971129   -7.2886953    3771.5875         2188 
  101500   0.49268771   -7.2846629    3781.8745         2131 
  101600   0.48779365   -7.2832063    3778.2184         2180 
  101700   0.48463884   -7.3039327    3782.4666         2204 
  101800   0.48514145   -7.2741159    3778.2563         2175 
  101900   0.49872409   -7.2884715    3784.4497         2179 
  102000   0.47889036    -7.286099    3781.2172         2211 
  102100   0.49544772   -7.2899467     3779.849         2255 
  102200   0.48622978   -7.3003869     3783.894         2226 
  102300   0.48500348   -7.2793575    3780.5464         2219 
  102400   0.48589245   -7.2837662    3782.4873         2261 
  102500   0.48676737   -7.2938508    3776.5843         2243 
  102600   0.49962734   -7.2992372    3781.3999         2232 
  102700   0.48890573   -7.2861835    3784.8875         2174 
  102800   0.50068588   -7.2725703    3781.2388         2184 
  102900   0.48386835   -7.2847303    3786.3357         2179 
  103000   0.49251297   -7.2811135    3772.7525         2132 
  103100   0.48526016   -7.2899196    3788.8519         2113 
  103200   0.48981327   -7.2919633    3773.6205         2104 
  103300   0.49667533   -7.2813367    3785.2618         2148 
  103400   0.49630502   -7.2884231     3784.158         2222 
  103500   0.49076321   -7.2926016    3773.2652         2245 
  103600    0.4911038   -7.2896785    3781.5059         2207 
  103700   0.50014111   -7.2869555    3778.6327         2185 
  103800    0.4880985   -7.2886434    3782.3074         2218 
  103900    0.4903889   -7.2917805    3772.0636         2218 
  104000     0.484447   -7.2872229    3780.6263         2232 
Loop time of 190.727 on 32 procs for 100000 steps with 4000 atoms

Performance: 90600.476 tau/day, 524.308 timesteps/s
99.7% CPU use with 32 MPI tasks x no OpenMP threads

MPI task timing breakdown:
Section |  min time  |  avg time  |  max time  |%varavg| %total
---------------------------------------------------------------
Pair    | 16.628     | 17.194     | 17.721     |   6.2 |  9.02
Neigh   | 1.3353     | 1.3782     | 1.418      |   1.5 |  0.72
Comm    | 8.0759     | 9.3341     | 10.918     |  24.1 |  4.89
Output  | 5.4969     | 5.4976     | 5.511      |   0.1 |  2.88
Modify  | 150.45     | 154.13     | 156.71     |  15.2 | 80.81
Other   |            | 3.19       |            |       |  1.67

Nlocal:        125.000 ave         135 max         117 min
Histogram: 1 3 4 8 3 3 7 2 0 1
Nghost:        2025.38 ave        2042 max        2013 min
Histogram: 4 2 6 3 3 6 3 2 2 1
Neighs:        15277.1 ave       16546 max       14125 min
Histogram: 1 2 5 4 6 4 4 4 1 1
FullNghs:      30555.0 ave       32755 max       28410 min
Histogram: 1 2 4 7 4 1 6 4 2 1

Total # of neighbors = 977761
Ave neighs/atom = 244.44025
Neighbor list builds = 4140
Dangerous builds = 0

#clear
#
#next RN
#
#jump SELF
Total wall time: 0:03:11
