
units lj                  # Use reduced LJ style units
atom_style atomic         # Uncharged point particles
atom_modify map hash      # Needed for indexing of clusters etc
                          # Used to be able to find where atoms are in relation to each other.

lattice fcc 1.0 spacing 1 1 1
Lattice spacing in x,y,z = 1.5874011 1.5874011 1.5874011
region box block 0 10 0 10 0 10 units lattice
create_box 2 box
Created orthogonal box = (0.0000000 0.0000000 0.0000000) to (15.874011 15.874011 15.874011)
  3 by 4 by 4 MPI processor grid
create_atoms 1 box
Created 4000 atoms
  using lattice units in orthogonal box = (0.0000000 0.0000000 0.0000000) to (15.874011 15.874011 15.874011)
  create_atoms CPU = 0.002 seconds
set type 1 type/fraction 2 0.12 78393
Setting atom values ...
  508 settings made for type/fraction
mass 1 1.0
mass 2 1.0
pair_style lj/cut  3.5
pair_modify tail  yes
pair_coeff 1  1  1.0  1.0   # Intearaction between 1 and 1 set with epsilon = 1 and sigma = 1
pair_coeff 1  2  1.5  0.8
pair_coeff 2  2  0.5  0.88

write_data data.0
System init for write_data ...
Neighbor list info ...
  update every 1 steps, delay 10 steps, check yes
  max neighbors/atom: 2000, page size: 100000
  master list distance cutoff = 3.8
  ghost atom cutoff = 3.8
  binsize = 1.9, bins = 9 9 9
  1 neighbor lists, perpetual/occasional/extra = 1 0 0
  (1) pair lj/cut, perpetual
      attributes: half, newton on
      pair build: half/bin/atomonly/newton
      stencil: half/bin/3d
      bin: standard
WARNING: Not all mixed pair coeffs generated from mixing. Use write_data with 'pair ij' option to store all pair coeffs. (../write_data.cpp:312)


#############################
#   M E L T   S Y S T E M   #
#############################

velocity all create 2.4 5833274 mom yes dist gaussian # Assign velocities
                                                    # Temperature 2.4, random number seed, zero linear momentum
                                                                                # Gaussian distribution

timestep 0.002   # simulation timestep
thermo 1000       # output thermodynamic data every 1000 steps bf 100

# Define a fix  in this case with index 1 applied to all
# particles in the simulation. This fix is for simulations
# in the anisotropic NPT ensemble. Note that we use the MTK
# correction.
fix 1 all npt temp 2.4 2.4 0.1 iso 5.68 5.68 0.5 mtk yes tchain 5 pchain 5 # Use NPT ensemble
                                                                         # Set temperature and pressure and damping
                                                                         # Numbers of thermostats in chain and in barostat
run 10000          # run for 10000 steps
Per MPI rank memory allocation (min/avg/max) = 3.642 | 3.644 | 3.648 Mbytes
Step Temp E_pair E_mol TotEng Press Volume 
       0          2.4   -7.5560252            0   -3.9569252   -3.1663949         4000 
    1000    2.3691443   -4.6552862            0   -1.1024582    5.7298194     4756.031 
    2000    2.3499152   -4.6525787            0   -1.1285872    5.8186069    4748.1276 
    3000     2.441479   -4.7047616            0   -1.0434587    5.5255114    4762.4958 
    4000    2.3637968   -4.7242321            0   -1.1794232     5.486978    4749.6736 
    5000    2.3653759   -4.6738637            0   -1.1266868    5.6257352    4761.2662 
    6000    2.4450146   -4.6882216            0   -1.0216165    5.6556705    4756.5751 
    7000    2.3922606   -4.6107833            0   -1.0232895     5.681232    4789.3041 
    8000    2.3649998   -4.6934223            0   -1.1468095     5.621073    4747.9467 
    9000    2.4349171     -4.64029            0  -0.98882751    5.8884702    4741.5795 
   10000    2.3830459   -4.6553357            0   -1.0816604    5.4309045     4796.681 
Loop time of 2.17721 on 48 procs for 10000 steps with 4000 atoms

Performance: 793676.339 tau/day, 4593.034 timesteps/s
99.6% CPU use with 48 MPI tasks x no OpenMP threads

MPI task timing breakdown:
Section |  min time  |  avg time  |  max time  |%varavg| %total
---------------------------------------------------------------
Pair    | 0.93011    | 0.97506    | 1.0392     |   2.7 | 44.78
Neigh   | 0.19571    | 0.2009     | 0.213      |   0.8 |  9.23
Comm    | 0.67123    | 0.75621    | 0.81533    |   3.7 | 34.73
Output  | 0.00024312 | 0.00024955 | 0.00039247 |   0.0 |  0.01
Modify  | 0.19955    | 0.23022    | 0.2624     |   3.2 | 10.57
Other   |            | 0.01458    |            |       |  0.67

Nlocal:        83.3333 ave          93 max          74 min
Histogram: 1 2 6 7 10 10 3 3 5 1
Nghost:        1451.44 ave        1482 max        1420 min
Histogram: 2 3 6 7 8 4 6 5 4 3
Neighs:        7941.19 ave        9061 max        6748 min
Histogram: 2 1 7 9 5 5 7 5 4 3

Total # of neighbors = 381177
Ave neighs/atom = 95.294250
Neighbor list builds = 915
Dangerous builds = 288

# Equilibrate just above the melting temperature to avoid step fn in T

fix 1 all npt temp 1.25 1.25 0.1 iso 5.68 5.68 0.5 mtk yes tchain 5 pchain 5
run 2000
Per MPI rank memory allocation (min/avg/max) = 3.642 | 3.644 | 3.648 Mbytes
Step Temp E_pair E_mol TotEng Press Volume 
   10000    2.3830459   -4.6553357            0   -1.0816604    5.4309045     4796.681 
   11000    1.2404391   -6.2760058            0   -4.4158123    5.5378374    3917.5537 
   12000    1.2586302   -6.3141392            0   -4.4266659    5.6535394    3903.5601 
Loop time of 0.479261 on 48 procs for 2000 steps with 4000 atoms

Performance: 721110.489 tau/day, 4173.093 timesteps/s
99.6% CPU use with 48 MPI tasks x no OpenMP threads

MPI task timing breakdown:
Section |  min time  |  avg time  |  max time  |%varavg| %total
---------------------------------------------------------------
Pair    | 0.21643    | 0.22936    | 0.24593    |   1.5 | 47.86
Neigh   | 0.03187    | 0.033404   | 0.035247   |   0.4 |  6.97
Comm    | 0.14956    | 0.16417    | 0.17855    |   1.8 | 34.26
Output  | 5.229e-05  | 5.3387e-05 | 6.4963e-05 |   0.0 |  0.01
Modify  | 0.042287   | 0.047773   | 0.052903   |   1.2 |  9.97
Other   |            | 0.004499   |            |       |  0.94

Nlocal:        83.3333 ave          91 max          71 min
Histogram: 1 0 1 2 9 9 5 8 10 3
Nghost:        1672.29 ave        1689 max        1641 min
Histogram: 1 0 2 1 6 9 9 9 5 6
Neighs:        9781.67 ave       10943 max        8061 min
Histogram: 1 0 1 6 12 5 5 11 5 2

Total # of neighbors = 469520
Ave neighs/atom = 117.38000
Neighbor list builds = 142
Dangerous builds = 10

#############################
# L I N E A R  Q U E N C H  #
#############################

# Define solid atoms. This closely follows ten Wolde  Ruiz-Montero and Frenkel  Faraday Discuss  1996  104  93-110
# Compute components of the per-atom q6 vector
compute q6 all orientorder/atom degrees 1 6 components 6 nnn NULL cutoff 1.3 # compute the Q6 parameter.
                                                                             # Use all neighbours within 1.3 unit cell.

# get number of connections
compute coord_number all coord/atom orientorder q6 0.5

# An atom is solid if it has 8 or more connections (of a possible 14)
variable is_solid atom c_coord_number>=8
group solid dynamic all var is_solid    # Must be dynamic to update
dynamic group solid defined

# do clustering
compute cluster solid cluster/atom 1.3 # Create a cluster where all atoms within are solid and max 1.3 units from another member

# define chunks one chunk per cluster
compute clus_chunks solid chunk/atom c_cluster nchunk every compress yes  # Says which atoms are in which chunk

# count the size of each chunk
compute size_chunks solid property/chunk clus_chunks count


# Find the maximum entry in the vector of chunk sizes
variable max_n equal max(c_size_chunks)


# Thermo style which includes this variable
# thermo_style custom step temp pe vol v_max_n

thermo ${N}  # Print the thermo information every 100 steps
thermo 1000  

# Reset the npt fix at a lower temperature (below freezing)
fix 1  all npt temp  ${temp} ${temp}  0.1  iso  5.68  5.68  0.5  mtk yes tchain  5  pchain  5
fix 1  all npt temp  0.45 ${temp}  0.1  iso  5.68  5.68  0.5  mtk yes tchain  5  pchain  5
fix 1  all npt temp  0.45 0.45  0.1  iso  5.68  5.68  0.5  mtk yes tchain  5  pchain  5

dump dmp2 all dcd ${N} traj.dcd
dump dmp2 all dcd 1000 traj.dcd


compute msd all msd com yes
variable twopoint equal c_msd[4]/6/(step*dt+1.0e-6)
fix 9 all vector 10 c_msd[4]
variable fit equal slope(f_9)/6/(10*dt)
thermo_style custom step temp pe c_msd[4] v_twopoint v_fit v_max_n

fix 1 all npt temp 1.25 ${temp} 0.1 iso 5.68 5.68 0.5 mtk yes tchain 5 pchain 5
fix 1 all npt temp 1.25 0.45 0.1 iso 5.68 5.68 0.5 mtk yes tchain 5 pchain 5
run 2000000 # 5000000  # Run for this many steps
Neighbor list info ...
  update every 1 steps, delay 10 steps, check yes
  max neighbors/atom: 2000, page size: 100000
  master list distance cutoff = 3.8
  ghost atom cutoff = 3.8
  binsize = 1.9, bins = 9 9 9
  4 neighbor lists, perpetual/occasional/extra = 1 3 0
  (1) pair lj/cut, perpetual
      attributes: half, newton on
      pair build: half/bin/atomonly/newton
      stencil: half/bin/3d
      bin: standard
  (2) compute orientorder/atom, occasional
      attributes: full, newton on
      pair build: full/bin/atomonly
      stencil: full/bin/3d
      bin: standard
  (3) compute coord/atom, occasional
      attributes: full, newton on
      pair build: full/bin/atomonly
      stencil: full/bin/3d
      bin: standard
  (4) compute cluster/atom, occasional
      attributes: full, newton on
      pair build: full/bin/atomonly
      stencil: full/bin/3d
      bin: standard
Per MPI rank memory allocation (min/avg/max) = 9.753 | 9.762 | 9.766 Mbytes
Step Temp PotEng c_msd[4] v_twopoint v_fit v_max_n 
   12000    1.2586302   -6.3141392 1.1347764e-30 7.8803914e-33 8.3333333e+20            2 
   13000    1.2242908   -6.2946049   0.53691034 0.0034417328  0.044138992            6 
   14000     1.275697   -6.2923596     1.024678 0.0060992735  0.041837669            2 
   15000    1.2430157   -6.2693991    1.5608681 0.0086714892  0.042052274            3 
   16000    1.2137418   -6.2736087    2.1462516  0.011178393  0.043700023            3 
   17000    1.2600389   -6.2722664     2.648918  0.012984892  0.044173348            1 
   18000    1.2828853   -6.2720917    3.1532641  0.014598445  0.044037337            2 
   19000    1.2630488   -6.2760052    3.7393898  0.016400832  0.044037569            1 
   20000    1.2483032   -6.3246972    4.2232382  0.017596825  0.044280861            4 
   21000    1.2447922   -6.2822467    4.7425977  0.018819832  0.044196336            2 
   22000    1.2479287   -6.3050698    5.3216867  0.020157904  0.044288044            1 
   23000    1.2525754   -6.2857895    5.8740895  0.021282933  0.044387723            2 
   24000    1.2195327   -6.3157898    6.3931009  0.022198266  0.044454824            1 
   25000    1.2421003   -6.2930448    6.8845905  0.022948634  0.044394509            4 
   26000    1.2556217   -6.2939159    7.4259704  0.023801187  0.044314899            3 
   27000    1.2307963   -6.2940981    8.0119884  0.024728359  0.044396061            2 
   28000    1.2460398   -6.3166124    8.4369501   0.02510997  0.044395961            3 
   29000    1.2408992   -6.3341445    8.9351889   0.02567583  0.044284448            3 
   30000    1.2464473   -6.3130237    9.4286905  0.026190806  0.044152299            5 
   31000    1.2163821   -6.3106171     10.03721  0.026981747  0.044070828            2 
   32000    1.2358681   -6.3129999    10.579276  0.027550197  0.044088047            3 
   33000    1.2634136   -6.2756762    11.036242  0.027869298  0.043995874            2 
   34000    1.2230012   -6.3745621    11.567302  0.028351229  0.043989048            2 
   35000    1.2616476   -6.3121125    12.157145  0.028945582  0.043947384            1 
   36000    1.2638227   -6.2379251    12.716814  0.029437069  0.043944423            2 
   37000    1.2416295   -6.2974371    13.244223  0.029829331  0.043991183            4 
   38000    1.2545897   -6.2604786    13.780884  0.030221236  0.043997707            3 
   39000    1.2294678   -6.2886407    14.373356  0.030712299  0.044012925            1 
   40000    1.2290583    -6.297664    14.765711  0.030761898   0.04400273            4 
   41000    1.2339235   -6.3192322    15.338444  0.031175698  0.044008567            2 
   42000    1.2645864   -6.2888075     15.76274  0.031275278  0.043982394            3 
   43000    1.2184352   -6.2619966    16.223389  0.031440676  0.043907445            5 
   44000     1.217914   -6.2836979    16.816463  0.031849361  0.043844038            4 
   45000    1.2455986   -6.3041849    17.151833  0.031762654  0.043792012            2 
   46000    1.2479372    -6.320082     17.68209  0.032032772  0.043699095            3 
   47000    1.2296742    -6.312819    18.189765  0.032251356  0.043613147            3 
   48000    1.2466584   -6.3123364    18.748868  0.032550118  0.043547117            3 
   49000    1.2397776   -6.3197805    19.443598  0.033067343  0.043534564            3 
   50000    1.2150614   -6.3051537    19.864894  0.033108156  0.043534551            2 
   51000    1.2090941   -6.2972359    20.130897  0.032893622   0.04348314            6 
   52000    1.2420914   -6.2677726    20.607084  0.033024173  0.043393753            2 
   53000    1.2226494   -6.3330798    21.291695  0.033477508  0.043310708            3 
   54000    1.2255877    -6.344332    21.892649  0.033784952  0.043279919            2 
   55000    1.2544764   -6.2976318    22.563217  0.034186691  0.043273085            1 
   56000    1.2353894   -6.3167215    22.965872  0.034175404  0.043295551            4 
   57000    1.2583999   -6.2986082    23.486645    0.0343372  0.043317757            2 
   58000    1.2329905   -6.3124372    23.868481  0.034293794  0.043307168            1 
   59000    1.2249003   -6.3249548    24.174979   0.03414545  0.043251424            5 
   60000    1.2343868   -6.3176648     24.68976  0.034291333  0.043182422            2 
   61000    1.2639178   -6.2860929    25.419207  0.034725692  0.043138094            3 
   62000    1.2083612   -6.3082254    25.878293  0.034782652  0.043107363            2 
   63000    1.2192518   -6.3143357    26.365161  0.034874551   0.04309196            1 
   64000    1.2260632   -6.3529463     26.72144  0.034793541  0.043057934            2 
   65000    1.1905622    -6.313182    27.327493  0.035035247  0.043020883            3 
   66000    1.2043505    -6.337936      27.7946  0.035094191  0.042982274            4 
   67000    1.2521311    -6.328743    28.227355   0.03510865  0.042949233            2 
   68000    1.2486446   -6.3522533    28.665788  0.035129642  0.042909674            2 
   69000    1.2243119   -6.3238098    29.153656   0.03520973   0.04286125            3 
   70000    1.2310393   -6.3006636    29.774014  0.035445255  0.042816823            3 
   71000    1.2255724   -6.3155589    30.273156  0.035531873  0.042795866            2 
   72000    1.2105011   -6.3314003    30.755507  0.035596652  0.042768338            1 
   73000    1.2251948    -6.327147     31.26432  0.035689863  0.042732415            2 
   74000    1.2423406   -6.3095687    31.727215  0.035728845  0.042698961            3 
   75000     1.224841   -6.3579294    32.233007  0.035814452  0.042662709            2 
   76000    1.2212827   -6.3398593    32.737583  0.035896473  0.042642529            3 
   77000     1.212155   -6.3785128    33.200669   0.03593146  0.042615721            1 
   78000    1.2212167   -6.2919759    33.649885  0.035950732  0.042580542            1 
   79000    1.1914885   -6.3703649    33.874385  0.035732474  0.042531067            2 
   80000    1.2029837   -6.3116017    34.350372  0.035781637  0.042466567            3 
   81000    1.2012411   -6.3297163    34.835912  0.035839416  0.042408438            1 
   82000    1.1951457   -6.3054559    35.607354  0.036186335  0.042360302            3 
   83000    1.2295902   -6.3194636    36.030419   0.03617512  0.042317331            2 
   84000    1.1921259   -6.3367157    36.447192  0.036157928  0.042270246            2 
   85000    1.2382104   -6.3231324    37.096188  0.036368811  0.042232299            3 
   86000    1.2101537   -6.3066401    37.653516  0.036485965  0.042202886            1 
   87000    1.2013179   -6.3666595    38.254955  0.036642677  0.042196623            1 
   88000    1.2370261   -6.3261277    38.929819  0.036865359  0.042199771            2 
   89000    1.2299884   -6.2820723    39.498723  0.036983823   0.04219912            2 
   90000    1.2261578   -6.3435025    39.640883  0.036704521  0.042201135            7 
   91000    1.2178901   -6.2807283    40.428128  0.037022095   0.04219721            2 
   92000    1.2106468   -6.2869967    40.828477  0.036982316  0.042184974            2 
   93000    1.2383314   -6.3328236    41.123748  0.036849236  0.042171661            1 
   94000    1.2118805   -6.3160301    41.687372   0.03695689  0.042158692            1 
   95000    1.2158529   -6.3485802    42.311584  0.037115424  0.042152372            2 
   96000    1.2145183    -6.296002    43.013364  0.037337989  0.042148759            2 
   97000    1.2181015   -6.3509247    43.552902  0.037416582  0.042153349            2 
   98000    1.2384081   -6.3793273    43.923034  0.037349519  0.042160149            2 
   99000    1.2165213   -6.3279517    44.602357  0.037544072  0.042168612            2 
  100000    1.2263257    -6.341762    45.106602  0.037588835  0.042178865            3 
  101000    1.2063193   -6.3446739    45.665507  0.037677811  0.042183665            2 
  102000    1.2099822   -6.3329721    45.893515  0.037494701  0.042185308            3 
  103000    1.2318374   -6.3069254    46.654514   0.03774637  0.042187394            1 
  104000    1.2486148   -6.3509078    47.015899  0.037672995  0.042194619            3 
  105000    1.2211181   -6.3621926    47.985489  0.038083722  0.042212107            2 
  106000    1.2168528   -6.3204706    48.639689  0.038238749  0.042240371            2 
  107000    1.2080999   -6.3369865    49.137812  0.038269324  0.042269554            3 
  108000    1.2118954   -6.3776215    49.616448  0.038284296  0.042298794            3 
  109000    1.2411047   -6.3239813    50.313689  0.038466123  0.042331959            3 
  110000    1.2044664   -6.3964654    50.571536  0.038311769  0.042361747            1 
  111000    1.1807967   -6.3371625    51.065402  0.038337388  0.042376734            3 
  112000    1.1852616   -6.3469282    51.567671  0.038368802  0.042393353            1 
  113000    1.1950795   -6.3605665    51.748046  0.038162276  0.042396914            3 
  114000    1.2270952   -6.3793992    51.794588  0.037861541  0.042396564            1 
  115000    1.2399129   -6.3430832    52.497859  0.038041927  0.042385493            1 
  116000    1.2335582   -6.3414248    52.943833  0.038034363  0.042375706            3 
  117000    1.1980744   -6.3298015    53.340596  0.037991878  0.042361206            2 
  118000    1.2158263   -6.3264068    53.981098  0.038122244  0.042344229            3 
  119000    1.2084352   -6.3904308    54.221267  0.037970075  0.042327795            4 
  120000    1.2250164   -6.3716603    54.669482  0.037964918   0.04231187            2 
  121000    1.2249462   -6.3660122    55.280924  0.038072262  0.042300385            3 
  122000    1.1957291   -6.3456807    55.872547  0.038164308  0.042287977            2 
  123000    1.2016642   -6.3896597    56.135568  0.038032227  0.042273359            2 
  124000    1.1917299   -6.3477409    56.563501  0.038013105  0.042256269            3 
  125000    1.1983936    -6.360343    57.017377  0.038011585  0.042233728            4 
  126000    1.1991106   -6.3804372    57.503894  0.038031676  0.042211714            2 
  127000    1.1893506   -6.3444636    58.189316  0.038181966  0.042189456            3 
  128000    1.2319143   -6.3283171    58.362312  0.037996297  0.042163828            3 
  129000    1.2177615   -6.3943098    58.506712  0.037795033  0.042133299            1 
  130000    1.1993712   -6.3896618    59.349572  0.038044597  0.042099743            2 
  131000    1.2055545   -6.3303964     59.59296  0.037909007  0.042068972            2 
  132000     1.183592   -6.3726122    60.545088  0.038222909   0.04204526            4 
  133000    1.1645933   -6.3666337    60.874726  0.038142059  0.042023878            5 
  134000    1.1953929   -6.3794824    61.201365   0.03806055  0.042004288            2 
  135000    1.2097947   -6.3818155    61.580535  0.038012676  0.041984625            2 
  136000    1.1915578   -6.3706469    61.843855  0.037894519  0.041959327            2 
  137000    1.2018272   -6.4021169    62.488526  0.038010052  0.041931221            1 
  138000    1.1978888   -6.3777776    62.966569   0.03802329  0.041901228            2 
  139000     1.204929   -6.3791678    63.653747  0.038161719  0.041876743            6 
  140000    1.1904852   -6.3638862    64.174798  0.038199284  0.041856843            2 
  141000    1.1923287   -6.3704743    64.538744  0.038143466   0.04183592            3 
  142000     1.222499   -6.3842491    64.947568   0.03811477  0.041814782            2 
  143000    1.1898133   -6.3558582    65.727182  0.038302553  0.041794535            3 
  144000    1.1679647   -6.3984801    66.065172   0.03823216  0.041773247            2 
  145000    1.2040099   -6.3648895    66.862873  0.038426938   0.04175502            2 
  146000    1.2235527   -6.3973516    67.079951  0.038287643  0.041737489            2 
  147000    1.2028306   -6.3695781    67.267616  0.038133569    0.0417169            2 
  148000    1.1908855   -6.3721616    67.959073  0.038265244  0.041695952            3 
  149000    1.2059477   -6.3345893    68.574094  0.038352401  0.041674003            1 
  150000    1.2035852   -6.3935628     68.76764  0.038204244  0.041658682            3 
  151000    1.1900562   -6.3933724    69.552356  0.038384302  0.041642039            1 
  152000    1.1851454   -6.3778843    69.917277   0.03833184  0.041627008            3 
  153000    1.1959598   -6.3758393    70.323875  0.038302764  0.041609007            3 
  154000    1.1771638   -6.3719643    70.663757  0.038237963  0.041585507            1 
  155000    1.1985579   -6.4234166     70.96028  0.038150688  0.041565784            3 
  156000    1.1961784   -6.3964931    71.552209  0.038222334  0.041542355            3 
  157000    1.1985885   -6.3645014     72.05648  0.038246539  0.041521065            2 
  158000    1.1858663   -6.4288122    72.573182  0.038276995   0.04150055            2 
  159000     1.184828   -6.3596405     73.12772  0.038326897  0.041481268            2 
  160000    1.1470989   -6.3668597    73.644372  0.038356444  0.041462455            2 
  161000    1.2221729   -6.3791072    73.687879  0.038140724  0.041442048            2 
  162000    1.1878865   -6.4191647    74.143843  0.038139837  0.041421673            4 
  163000    1.1783472   -6.3593847    74.750076  0.038215785  0.041397911            2 
  164000    1.1932129   -6.3876917    75.398942  0.038312471  0.041373779            2 
  165000    1.2042165   -6.3493893    76.105434  0.038437088  0.041354826            1 
  166000    1.1650299   -6.3976522    76.467926  0.038387513  0.041336172            2 
  167000    1.2044895   -6.3467981    77.039479  0.038442854  0.041318507            2 
  168000    1.2254586   -6.4083435    76.950842   0.03817006  0.041302615            2 
  169000    1.2138546   -6.4113429    77.803693   0.03836474  0.041285683            2 
  170000    1.2079895   -6.4529368    77.850449  0.038161985  0.041264738            2 
  171000    1.1851716   -6.3972164     78.49247  0.038251691  0.041241356            2 
  172000    1.1886597   -6.3956777    78.974729   0.03826295  0.041215691            2 
  173000    1.1823221   -6.3905928    79.409997  0.038251443  0.041192767            3 
  174000    1.1634966   -6.3510867    80.238805  0.038428546  0.041173896            1 
  175000    1.1670387   -6.4337327    80.329704   0.03825224  0.041153605            4 
  176000    1.1803943   -6.3950979    80.900054   0.03830495   0.04113537            2 
  177000    1.1801369    -6.445812    81.362724  0.038306367  0.041118025            2 
  178000    1.1743405   -6.4058299    81.817471  0.038304059  0.041099385            3 
  179000    1.1724133   -6.4083958    82.329648  0.038328514  0.041080085            7 
  180000    1.1684558   -6.4115726    83.029569  0.038439615  0.041063306            2 
  181000    1.1911652   -6.4106531    83.139146  0.038277691  0.041046487           12 
  182000    1.1553014   -6.3876828    83.840137  0.038388341  0.041030268            3 
  183000    1.2064418   -6.3899391    84.235632  0.038358667   0.04101268            2 
  184000    1.1928643   -6.4185191    84.382477  0.038216702  0.040994248            2 
  185000    1.1661575   -6.4244611    84.454215  0.038042439   0.04097338            6 
  186000    1.1734386   -6.4099236    85.356719  0.038242258  0.040951737            4 
  187000    1.1895814   -6.4359332    85.781209   0.03822692  0.040929374            1 
  188000    1.1815391   -6.4154402    85.907457  0.038079546  0.040905512            2 
  189000    1.1717935   -6.4313395    86.247837  0.038028147  0.040879987            4 
  190000    1.1775605   -6.3870976    86.968377  0.038144025  0.040855639            3 
  191000    1.2079345   -6.3964691    87.141323  0.038019774  0.040833401            5 
  192000    1.2100178   -6.3910832     87.58516  0.038014392  0.040808766            2 
  193000    1.1657058   -6.3796341    88.352629  0.038148803  0.040784688            2 
  194000    1.1805765   -6.4413967    88.476439  0.038005343  0.040759541            2 
  195000    1.1754844   -6.3966465    88.695373  0.037904005  0.040730985            2 
  196000    1.1700206   -6.3987501    89.100395  0.037882821  0.040703193            3 
  197000    1.1832783   -6.4121491    89.996036  0.038069389  0.040678994            4 
  198000    1.1721824   -6.4599093    89.982216  0.037871303  0.040651831            2 
  199000    1.1717489   -6.3980509    90.766006  0.038009215  0.040626868            3 
  200000    1.1559539   -6.3688375     91.66537  0.038193904  0.040602891            3 
  201000    1.1652627    -6.416525    91.873804    0.0380903  0.040580309            5 
  202000    1.1734657   -6.4139053    92.229224   0.03804836  0.040560171            5 
  203000    1.1672518   -6.3890355    92.981875  0.038169899   0.04053794            3 
  204000     1.195733   -6.4671393    93.096956  0.038029802  0.040516058            5 
  205000    1.1739138   -6.3918193    93.514031  0.038013834  0.040495503            3 
  206000    1.1737482   -6.4234689    93.936378  0.038000153   0.04047286            6 
  207000    1.2059249   -6.4251384    94.256977  0.037945643  0.040448894            2 
  208000    1.1667082   -6.4190361     94.74264  0.037957788    0.0404254            3 
  209000    1.1974504   -6.4160793    95.310206  0.038002474  0.040402563            2 
  210000    1.1650343   -6.4188564     95.72198  0.037984912  0.040380449            6 
  211000    1.1728183   -6.4461836    95.973928  0.037904395  0.040355858            1 
  212000    1.1660232   -6.4135608    96.508365  0.037935678   0.04033178            2 
  213000    1.1642147   -6.3726475    96.778694  0.037863339  0.040307609            1 
  214000    1.1733683   -6.4063683    97.126882  0.037821995  0.040283265            3 
  215000    1.1560252   -6.4497622    97.655419  0.037850937  0.040259391            5 
  216000    1.1706981   -6.4165054    98.037125  0.037822965  0.040235517            1 
  217000     1.172741   -6.4034085    98.575166  0.037855286  0.040213559            5 
  218000    1.1621944   -6.4034674    99.382073  0.037990089  0.040193153            3 
  219000    1.1644718   -6.4338617    99.846944   0.03799351  0.040173385            1 
  220000    1.1643266   -6.4307123    100.21046  0.037958508  0.040153463            2 
  221000    1.1555607   -6.4089132    100.50233  0.037896805   0.04013409            2 
  222000    1.1539194   -6.4266089     101.4103  0.038066929  0.040113189            2 
  223000    1.2148013   -6.4169246    101.66212  0.037990329  0.040093214            3 
  224000    1.1765939   -6.4047556    102.50724  0.038135134  0.040075997            2 
  225000    1.1542798   -6.4272109    102.32941  0.037899783  0.040056418            2 
  226000    1.1795505   -6.4211129    103.07264  0.038006137  0.040037085            2 
  227000    1.1574289   -6.4252178    103.50779  0.037998455  0.040019083            2 
  228000    1.1710834     -6.46371    103.95463  0.037995113   0.04000153            3 
  229000    1.1807418   -6.4523428    104.16856  0.037907046  0.039984338            5 
  230000    1.1925863   -6.4408952    105.04924  0.038061319  0.039967647            3 
  231000     1.145331   -6.4402259     105.2691  0.037975867  0.039951521            3 
  232000     1.164827    -6.425262    105.76022  0.037988583  0.039937167            4 
  233000    1.1712486   -6.3863612     106.8704  0.038222604  0.039924621            3 
  234000    1.1507658     -6.44465    107.22249  0.038184648  0.039912585            3 
  235000    1.1572565   -6.4284967    107.63562   0.03816866  0.039901434            2 
  236000     1.141193    -6.441862    107.99242  0.038132918  0.039889103            3 
  237000    1.1789725   -6.4366727    108.20253  0.038045896  0.039874918            2 
  238000    1.1719707   -6.4516984    108.44528  0.037971035    0.0398575            3 
  239000    1.1645748      -6.4895    108.54141   0.03784568  0.039840292            2 
  240000    1.1710885   -6.4659435       108.82  0.037784723  0.039821696            3 
  241000    1.1244513    -6.447585    109.64349  0.037912687  0.039801509            4 
  242000    1.1575241   -6.4372826    109.56315  0.037728358  0.039782721            2 
  243000    1.1611549   -6.4420162    110.46022  0.037880735  0.039762709            2 
  244000    1.1813326   -6.4549893    110.45395  0.037723342   0.03974244            4 
  245000    1.1371694    -6.426408    110.90642  0.037723272  0.039720902            6 
  246000    1.1704558   -6.4338311    111.47574  0.037762785  0.039700294            2 
  247000    1.1497619   -6.4708603    112.00784  0.037789419  0.039681497            2 
  248000    1.1238502    -6.471623    112.33914  0.037748366  0.039663726            2 
  249000    1.1455592   -6.4714265    112.72963  0.037727453  0.039645402            6 
  250000    1.1633356   -6.4689656    113.29602  0.037765339  0.039627895            1 
  251000    1.1264573   -6.4170108    114.09763  0.037881018  0.039611139            2 
  252000    1.1397428   -6.4825201    114.27849  0.037790505  0.039593818            2 
  253000    1.1653789   -6.4386761    114.88791  0.037841868  0.039576477            3 
  254000    1.1555995   -6.4314304    114.94988  0.037713216  0.039558603            2 
  255000    1.1469493   -6.4923568     115.2866   0.03767536  0.039540663            2 
  256000    1.1604352   -6.4630083     116.0621  0.037780631  0.039523753            3 
  257000    1.1656982   -6.4391647    116.81692  0.037878378  0.039507438            3 
  258000    1.1425513   -6.4683262    116.87268  0.037749574  0.039490308            2 
  259000    1.1732207   -6.4375187    117.15386  0.037694291  0.039472304            3 
  260000    1.1499886   -6.4798361    117.43921  0.037640771  0.039452795            6 
  261000    1.1789719   -6.4785238    117.69028  0.037576719  0.039432311            3 
  262000    1.1284406   -6.4727973    118.08515  0.037558888  0.039411032            3 
  263000    1.1397352   -6.4544921    118.60866  0.037581959  0.039391314            3 
  264000    1.1487297   -6.4602671    119.06185  0.037582653  0.039373341            3 
  265000    1.1622681   -6.5225721    119.52474  0.037586397  0.039353724            3 
  266000    1.1582916   -6.4179465    120.27705  0.037680781  0.039335709            1 
  267000    1.1351387   -6.4691518    120.91698  0.037739383  0.039319306            2 
  268000    1.1343858   -6.4835625    120.30652  0.037408743  0.039301475            1 
  269000     1.154496   -6.4755673    121.14291  0.037528782  0.039284595            1 
  270000    1.1728714   -6.4754872    121.70186  0.037562303  0.039267647            2 
  271000    1.1602189   -6.5232706    121.71317  0.037427173  0.039248605            4 
  272000    1.1685349   -6.4976105     122.1768  0.037431619  0.039230815            3 
  273000    1.1545544   -6.4879129    123.38756  0.037664091  0.039213359            2 
  274000    1.1516267   -6.4645551    123.02769   0.03741718  0.039197514            4 
  275000    1.1583196   -6.4783944    124.07752   0.03759925  0.039180091            4 
  276000    1.1474598   -6.4654723     124.5311  0.037599969  0.039164392            2 
  277000    1.1446879   -6.4764786    124.55523  0.037471488  0.039147301            4 
  278000     1.108443   -6.4582005    125.36332  0.037578934  0.039130982            4 
  279000    1.1406993   -6.4532977     125.5514  0.037500418  0.039115182            3 
  280000      1.12878   -6.4654235    125.96417  0.037489335  0.039097349            3 
  281000    1.1533275   -6.4790664    126.03414  0.037376672  0.039079322            2 
  282000    1.1484249   -6.4695181    126.54881  0.037396221  0.039061861            2 
  283000    1.1499409    -6.470589    127.03148  0.037406208  0.039043758            3 
  284000    1.1435569   -6.4951491    126.90612  0.037237712  0.039023258            3 
  285000    1.1245415   -6.4901208    127.19941  0.037192811  0.039002229            5 
  286000    1.1487674   -6.4808487    127.49422  0.037148665  0.038981722            3 
  287000    1.1415034   -6.5075261    127.98157  0.037160733  0.038959664            6 
  288000    1.1596866   -6.4429489    128.56614   0.03720085   0.03893805            3 
  289000    1.1294781   -6.4671552    128.46433   0.03704277  0.038916043            3 
  290000    1.1391872   -6.4752055    129.58037  0.037235737  0.038893494            3 
  291000    1.1427538   -6.4847817    129.81364  0.037174581  0.038871021            3 
  292000    1.1168917   -6.4699827    130.78356  0.037324075  0.038849334            4 
  293000    1.1539391   -6.4721016    130.98075  0.037252774  0.038829634            5 
  294000    1.1261425   -6.4819444    130.99348  0.037129672  0.038809839            2 
  295000    1.1458501     -6.43832    130.95351  0.036992516  0.038789193            2 
  296000    1.1410176   -6.4649907    131.77365  0.037098437  0.038767599            3 
  297000    1.1272041   -6.4503561    132.43341  0.037158644  0.038746682            2 
  298000    1.1173279   -6.5014169    132.64408  0.037092863  0.038726695            3 
  299000    1.1264841   -6.5100385    133.07705  0.037089478  0.038706266            2 
  300000    1.1159199    -6.498973    133.52512   0.03709031  0.038685822            2 
  301000    1.1208153   -6.5130032    133.66685  0.037006327  0.038666347            5 
  302000    1.1295007    -6.502866    133.95467  0.036963209  0.038646133            4 
  303000    1.1300383   -6.5246688    134.52782  0.036998851  0.038624315            2 
  304000    1.1442992   -6.5454732    134.77013  0.036943567    0.0386017            4 
  305000    1.1360002   -6.4650645    135.72018  0.037082016  0.038581215            3 
  306000    1.1154559   -6.4912744     136.3997  0.037145887  0.038561225            5 
  307000    1.1469366   -6.4958811    136.47875  0.037046348  0.038540785            4 
  308000    1.1102626    -6.506352     136.4334  0.036913798  0.038520963            3 
  309000    1.1566841    -6.498109    137.03987  0.036957894  0.038501366            2 
  310000    1.1176178   -6.5156615     137.8202  0.037048442  0.038481446            4 
  311000    1.1260091   -6.5442566    137.88637  0.036947044  0.038460745            4 
  312000    1.1242679   -6.5066907    138.55462  0.037007109  0.038440868            2 
  313000    1.1286811   -6.4982444     138.7071  0.036929473  0.038421379            2 
  314000    1.1040972   -6.4806494      139.471  0.037014596  0.038401835            1 
  315000    1.1258391     -6.46229    140.17325  0.037082871  0.038384517            4 
  316000    1.1423695   -6.5179421    140.29947  0.036998805  0.038366559            5 
  317000    1.1466583   -6.4840085    140.51348  0.036938349  0.038347932            2 
  318000    1.1305024   -6.4939976     140.4957   0.03681753  0.038328493            2 
  319000    1.1093532   -6.4530713    141.35499  0.036926592  0.038308613            5 
  320000    1.1204156   -6.5190781    141.29107  0.036794549  0.038288669            4 
  321000    1.0909982    -6.500751    141.82199  0.036817756  0.038267446            3 
  322000    1.1137482   -6.4882106    141.71917  0.036676803  0.038245835            5 
  323000    1.1330569   -6.4870362     142.0229  0.036641615  0.038223532            6 
  324000    1.1205267   -6.5056937    142.63714  0.036686507  0.038202258            4 
  325000    1.1466823   -6.5141489    143.70068  0.036846328  0.038181524            3 
  326000    1.1438294   -6.5092043    143.93087  0.036792146  0.038161529            3 
  327000    1.1394211   -6.4757709    144.02879  0.036704584  0.038142713            5 
  328000    1.1378016   -6.5327258    144.39509  0.036685745  0.038123205            3 
  329000    1.1324942   -6.5073615    145.00865  0.036729647  0.038103791            4 
  330000    1.1209749   -6.5328306    145.43923  0.036727079  0.038083977            2 
  331000    1.1509237   -6.5201535    145.80192  0.036707433  0.038064462            2 
  332000    1.1330905   -6.5241086    145.74941  0.036583688  0.038044267            8 
  333000    1.1204786   -6.4716507    146.58843  0.036683792  0.038023787            1 
  334000    1.1318492   -6.5792302    145.83998  0.036387221  0.038002717            2 
  335000    1.1177218   -6.5852619    146.00943  0.036320754  0.037979692            6 
  336000    1.1352879   -6.5279938    146.80093   0.03640896  0.037956979            2 
  337000    1.1363413   -6.5207714     147.2095  0.036401954  0.037934746            7 
  338000    1.1097033   -6.4931872    147.68106  0.036410517  0.037910744            2 
  339000    1.1219089   -6.5206086    147.56919  0.036275612  0.037887009            2 
  340000    1.1266715   -6.5229754    148.08357  0.036294993  0.037863278            3 
  341000    1.1270245   -6.5209853    148.48672  0.036287077  0.037839751            3 
  342000    1.1213344   -6.5522298    149.09902   0.03633017  0.037817627            3 
  343000    1.1133615    -6.555855    149.61911  0.036350609  0.037796337            3 
  344000    1.1139747   -6.5623756    149.82554  0.036294946  0.037774227            3 
  345000    1.1001925   -6.5752569    150.24796  0.036291778  0.037752578            2 
  346000    1.1077977   -6.4927031    151.41625  0.036468269  0.037732116            8 
  347000    1.0978118   -6.5912263    151.07591  0.036281438  0.037712112            3 
  348000    1.1332327   -6.5209928    152.10496  0.036423601  0.037692846            3 
  349000    1.1019152   -6.5495199    152.32898  0.036372726  0.037672841            3 
  350000     1.098773    -6.563686    152.33542  0.036270337  0.037652244            2 
  351000    1.1013175   -6.5589353     152.5795  0.036224953  0.037631119            2 
  352000    1.1269975   -6.5249658     153.2999  0.036292591   0.03761037            2 
  353000    1.1268394   -6.5164841    153.77926  0.036302942  0.037590079            3 
  354000    1.0965238   -6.5135887    154.17706  0.036294035  0.037570263            1 
  355000    1.1214902   -6.5544526    154.25014  0.036208954  0.037549775            4 
  356000    1.1544048   -6.4943431    154.47057  0.036158842  0.037529773            4 
  357000    1.1071972    -6.511754    155.43633   0.03628299  0.037510512            2 
  358000    1.1188457   -6.5349981    155.26598  0.036141987  0.037489082            2 
  359000    1.1015421   -6.5612775    154.97052  0.035972729  0.037465918            3 
  360000    1.1233136   -6.5048889    155.38461  0.035968659  0.037443257            4 
  361000    1.1344205   -6.5408902    155.66957  0.035934803  0.037420298            3 
  362000    1.0923028    -6.576259    156.21424  0.035960922  0.037396678            1 
  363000     1.105583   -6.5637713     156.6368  0.035958861  0.037373902            2 
  364000    1.1190175   -6.5019995    157.23579  0.035997205  0.037350671            3 
  365000    1.0979816   -6.5560811    157.30323  0.035913979  0.037327137            3 
  366000    1.1458922   -6.5604832    157.84733  0.035939737   0.03730423            4 
  367000    1.1031336    -6.507237    158.10737  0.035900856  0.037281503            3 
  368000    1.1358322   -6.5581942    158.15508  0.035814102   0.03725768            3 
  369000    1.1146496   -6.5499714    157.97662  0.035676742  0.037233753            3 
  370000    1.1085967   -6.5369365    158.91212  0.035791017   0.03721008            2 
  371000    1.1090655   -6.5373091    159.87943  0.035911822  0.037187084            3 
  372000    1.1086097    -6.539657    159.77769  0.035792494  0.037164024            4 
  373000    1.1005626   -6.5592241    159.44704  0.035622663  0.037141255            2 
  374000    1.1122883   -6.5624093     159.9808  0.035646347  0.037117589            4 
  375000    1.0984099   -6.5484531    160.25362  0.035611916  0.037093406            2 
  376000    1.1127558   -6.5280013    160.58991  0.035591736  0.037068194            3 
  377000    1.0845793   -6.5887166    160.60367   0.03550037  0.037042842            9 
  378000    1.1179319   -6.5824789    161.30677  0.035561458  0.037017184            2 
  379000    1.1028332   -6.5330119    161.23478  0.035451799  0.036991638            2 
  380000    1.0818599   -6.5255604    161.81124   0.03548492  0.036966119            2 
  381000    1.1068153   -6.5333575    162.26824  0.035491741  0.036941355            1 
  382000    1.1110902   -6.5818782    162.78745  0.035512096  0.036916707            4 
  383000    1.0913459   -6.5321189    163.04879  0.035476237  0.036892012            2 
  384000    1.0894176   -6.5387412    163.44487  0.035469807  0.036868176            3 
  385000    1.0935018   -6.5170847     163.9046  0.035477186  0.036844303            4 
  386000    1.1076665   -6.5669834    164.55595  0.035525897   0.03681998            1 
  387000    1.0852048   -6.5465144    164.61198  0.035446164  0.036795836            3 
  388000    1.1265258   -6.5737296    164.67544  0.035368436  0.036771869            4 
  389000    1.0910201   -6.5621399     165.2005  0.035389995  0.036748759            6 
  390000    1.1353724   -6.5395386    166.05608  0.035482069  0.036725355            2 
  391000    1.0883326   -6.5615399    166.15894  0.035413243  0.036703143            3 
  392000    1.1055984   -6.5405133    166.66644  0.035430791  0.036680964            2 
  393000    1.1048824   -6.5550377    166.71795  0.035351558  0.036658593            5 
  394000    1.1040829   -6.5248363    167.24522  0.035373354  0.036635356            6 
  395000    1.1142987    -6.571326    167.23969  0.035282635  0.036611989            2 
  396000    1.1142264   -6.5362022    167.81985  0.035315624   0.03658982            1 
  397000    1.1171967   -6.5567859    168.71148  0.035413828   0.03656778            2 
  398000    1.1083584   -6.6137969    168.36893  0.035253126  0.036545368            3 
  399000    1.0981294   -6.5598443    169.14899  0.035327693   0.03652264            2 
  400000    1.1295009    -6.544296    169.03044  0.035214675  0.036500953            3 
  401000    1.1043393   -6.5872263    169.81019    0.0352889  0.036479921            3 
  402000    1.0938255   -6.5828808    170.19976  0.035281874   0.03645814            7 
  403000    1.1119787   -6.5852282    170.16289  0.035186702   0.03643584            4 
  404000    1.0953957   -6.5552102    171.00587  0.035273488  0.036414715            2 
  405000    1.0885855   -6.5658005    171.40024  0.035267539  0.036392723            4 
  406000    1.0767679   -6.5775157    171.67336  0.035236732  0.036370328            4 
  407000     1.099836   -6.5738637    172.58751  0.035337328  0.036348743            4 
  408000    1.0933147    -6.582243    172.18143  0.035167775  0.036327214            4 
  409000    1.0713137   -6.5073864    172.75524  0.035198703  0.036305967            4 
  410000    1.0825521   -6.5716182    172.81454  0.035124906  0.036284961            2 
  411000    1.0675548   -6.5572117    173.41853  0.035161907  0.036263729            2 
  412000    1.0804912   -6.5288778    174.13848  0.035222184  0.036243895            6 
  413000    1.0771762    -6.596472    174.61536  0.035233124  0.036223742            5 
  414000    1.0773772   -6.5536346    174.57212  0.035139316  0.036203451            2 
  415000     1.097219   -6.5744627    174.91574  0.035123643   0.03618309            3 
  416000     1.105444   -6.6201413    174.62122  0.034980213    0.0361626            3 
  417000    1.0996691   -6.5630648    175.20018  0.035012026  0.036141476            7 
  418000    1.0929678   -6.5919726    175.24813  0.034937825  0.036120815            6 
  419000    1.0854445   -6.5812353    176.11761  0.035027369   0.03609899            7 
  420000     1.100252   -6.5490492    176.19749   0.03495982  0.036077135            1 
  421000     1.091559   -6.5961247    176.52314   0.03494124  0.036054226            2 
  422000    1.0914382   -6.5832262    175.87846  0.034731134   0.03603086            3 
  423000    1.0823448   -6.5697409    176.73151  0.034817083  0.036007773            4 
  424000    1.0645205   -6.5971653    176.76488  0.034741525  0.035984033            2 
  425000    1.0902501   -6.6172804    177.25105  0.034755108  0.035959759            2 
  426000    1.0972924   -6.6181147    177.22405  0.034668241  0.035935544            2 
  427000    1.0908125   -6.5743279    177.92762   0.03472436  0.035911161            2 
  428000    1.0973358     -6.56157    177.80024  0.034618427   0.03588761            5 
  429000     1.051579   -6.5638294    178.19366  0.034614154  0.035862411            3 
  430000    1.0759775   -6.5899615    178.53635  0.034600068  0.035837101            3 
  431000    1.0853405   -6.5948293    178.65654  0.034543028  0.035812849            2 
  432000    1.0815059   -6.5910115    178.95482  0.034520606  0.035788549            2 
  433000    1.0720614   -6.5488566    179.53683  0.034552893  0.035765126            3 
  434000    1.0807823   -6.5789311     180.2465  0.034609543  0.035742615            8 
  435000    1.0758278   -6.6050005    180.43948   0.03456695  0.035719571            4 
  436000    1.0825076   -6.6206643    180.38197  0.034476676  0.035696031            2 
  437000    1.0641615   -6.6035524      181.309  0.034574561  0.035673702            6 
  438000     1.057764   -6.5897016    181.25184  0.034484748  0.035651712            5 
  439000    1.0941369   -6.5922744     181.8932  0.034527943  0.035629257            5 
  440000    1.0942515    -6.591474     182.0748  0.034483863  0.035606434            5 
  441000    1.0621508   -6.6276889    182.45725  0.034477938  0.035583657            4 
  442000     1.078993   -6.6026274    182.90646  0.034484627  0.035560536            2 
  443000     1.083003   -6.5609874     183.5648  0.034530625  0.035537802            4 
  444000    1.0796909   -6.5593354    183.49886  0.034440477   0.03551516            3 
  445000     1.101527   -6.6105538    183.73381  0.034407081  0.035492577            3 
  446000    1.0493852   -6.5915029    183.82422  0.034346827  0.035470082            3 
  447000    1.0715156   -6.6647615     184.6074  0.034415995  0.035447356            4 
  448000    1.0852956   -6.6110836    184.44246  0.034308494  0.035425438            3 
  449000    1.0627635   -6.6034562    185.09951  0.034354028  0.035403647            3 
  450000    1.0725477   -6.5918861    185.95054  0.034435285  0.035382186            2 
  451000    1.0885721   -6.6219234    185.93463  0.034355992  0.035361342            3 
  452000     1.059596   -6.6454217    186.48592  0.034381623  0.035339988            2 
  453000    1.0710952   -6.6190197    187.01178  0.034402461  0.035319113            2 
  454000    1.0927587   -6.6184541     187.2383  0.034368264  0.035298489            5 
  455000    1.0623885   -6.6349803    187.63155  0.034364752   0.03527805            3 
  456000    1.0472217    -6.597743    187.88367  0.034335466  0.035258005            4 
  457000     1.084174   -6.6546508    187.61758  0.034211812  0.035237527            2 
  458000    1.0806301   -6.6003435    189.10562  0.034407864  0.035217228            2 
  459000    1.0983378   -6.6555078    189.49731  0.034404014  0.035197411            4 
  460000    1.0921816   -6.6033867    189.51358   0.03433217  0.035178283            2 
  461000    1.0972185   -6.6211625    189.93288  0.034333493  0.035158871            2 
  462000    1.0572644   -6.5831402    189.89956  0.034253167  0.035139167            2 
  463000    1.0734892   -6.5863563    190.46539  0.034281028  0.035119863            2 
  464000    1.0661518   -6.5920465    191.17683  0.034334919  0.035100338            3 
  465000    1.0456729   -6.5932042    190.91661  0.034214447  0.035080339            3 
  466000     1.072494   -6.6074021    191.85828  0.034309421  0.035060331            3 
  467000    1.0803998   -6.6343285    191.40738  0.034155492    0.0350404            3 
  468000    1.0594928   -6.6232942    192.11246  0.034208058  0.035020069            3 
  469000    1.0717221   -6.6063325    192.09556  0.034132118  0.034999494            2 
  470000    1.0854722   -6.6083553    192.35828  0.034106078  0.034979047            3 
  471000    1.0786362   -6.6541865    192.18435  0.034002892  0.034958261            6 
  472000     1.061213   -6.6629844    192.61057  0.034006103  0.034937084            3 
  473000    1.0637912   -6.5785394    193.32999  0.034060956  0.034916433            2 
  474000    1.0605401   -6.6240922    193.00717  0.033932344  0.034895512            3 
  475000    1.0433552    -6.556057    194.20978  0.034071891  0.034874598            2 
  476000    1.0559689   -6.5888598    193.26368  0.033834677  0.034853355            4 
  477000     1.048799   -6.6380674    193.81068  0.033859308  0.034831265            3 
  478000    1.0590686   -6.6185659    194.10043  0.033838988  0.034809438            2 
  479000    1.0546705   -6.6372719     194.4351  0.033826566   0.03478744            3 
  480000    1.0570304   -6.6357925    194.73887  0.033808831  0.034765758            3 
  481000    1.0560285   -6.6409735     195.3683  0.033847591  0.034743627            3 
  482000    1.0513981   -6.6509389    194.89416  0.033695394  0.034721424            4 
  483000    1.0585909   -6.6096769    196.03649  0.033822721  0.034699488            8 
  484000    1.0472617   -6.6097866    196.64107  0.033856934  0.034678648            1 
  485000    1.0831541   -6.6452795    196.41252  0.033747855  0.034657297            4 
  486000    1.0584253   -6.6221493    197.12554  0.033800675  0.034636061            4 
  487000    1.0612002   -6.5881083    197.18664  0.033741725  0.034614335            2 
  488000    1.0662178    -6.637292    196.79356  0.033605458  0.034592196            2 
  489000    1.0601897   -6.6307253    197.25574  0.033615498  0.034570381            4 
  490000    1.0670048   -6.6579861    197.52377  0.033592478  0.034548311            2 
  491000    1.0607609    -6.611444    198.53038  0.033694904  0.034526133            3 
  492000    1.0648719   -6.6312848    198.73279  0.033660703  0.034504549            2 
  493000    1.0405093   -6.6239171    198.82754  0.033608441  0.034482778            1 
  494000    1.0580254    -6.641253    198.42733  0.033472896  0.034460744            4 
  495000    1.0641717   -6.6428791    199.27364   0.03354775  0.034438864            5 
  496000    1.0566141   -6.6459808    199.38017  0.033498012  0.034416691            1 
  497000    1.0558224   -6.6751946     199.3498  0.033425519  0.034394791            6 
  498000     1.052101   -6.6433456    200.25779   0.03351034  0.034373167            2 
  499000    1.0637989   -6.6395253    200.09921  0.033416701  0.034351543            4 
  500000       1.0759   -6.6097332    201.08584  0.033514306  0.034329959            5 
  501000    1.0523495   -6.6216918    200.41974  0.033336616  0.034308481            7 
  502000    1.0808731   -6.6444612    201.32994  0.033421305  0.034286442            4 
  503000    1.0569498   -6.6271201    201.89517  0.033448504   0.03426487            5 
  504000    1.0542457   -6.6091719    201.87668  0.033379081  0.034243557            4 
  505000    1.0557699   -6.6241289    203.08239  0.033511945  0.034223296            3 
  506000    1.0562379   -6.6474232    202.52988  0.033354724  0.034202757            2 
  507000    1.0609382   -6.6145814    203.07932  0.033379244  0.034182504            3 
  508000    1.0605665   -6.6201301    204.01057  0.033466301  0.034162133            4 
  509000    1.0684639    -6.666217    202.77568  0.033198376  0.034141162            4 
  510000    1.0477589   -6.6764778    203.73166  0.033289487  0.034119712            4 
  511000    1.0357605   -6.6190693    204.28913  0.033315252  0.034098697            1 
  512000    1.0484661   -6.6612061    204.63558  0.033306573  0.034077869            2 
  513000    1.0544438   -6.6576204    204.89851  0.033284358  0.034057659            2 
  514000    1.0604608   -6.6356252    205.32908  0.033289409  0.034037372            3 
  515000    1.0436645   -6.6404983    205.42689  0.033240596  0.034017091            3 
  516000    1.0513562   -6.6745482    205.51516  0.033190433  0.033997072            3 
  517000    1.0472446   -6.6334776    206.31061   0.03325445  0.033977362            7 
  518000    1.0434305   -6.6738255    206.83975  0.033275377  0.033957041            3 
  519000    1.0573026   -6.6657962    206.80097  0.033205037    0.0339371            4 
  520000    1.0288263   -6.6389352    206.90619  0.033158044  0.033916977            3 
  521000    1.0512062   -6.6833636    206.69523  0.033060657  0.033896703            6 
  522000    1.0228458   -6.6789209    207.56051  0.033135458  0.033876096            6 
  523000    1.0434196   -6.6836898    207.46917  0.033057548  0.033855784            4 
  524000    1.0397048   -6.6556799    208.44006  0.033148865  0.033835408            3 
  525000    1.0538686    -6.669003    209.00269   0.03317503  0.033815522            3 
  526000    1.0405808   -6.6592552    208.87856  0.033092294  0.033795541            7 
  527000    1.0274005   -6.6861487    208.62276  0.032989052  0.033775237            2 
  528000    1.0465161   -6.6705768    210.71135   0.03325621  0.033755301            4 
  529000    1.0400014   -6.6932625     209.4136  0.032988909  0.033735317            2 
  530000     1.033791   -6.6634764    210.31401  0.033068241  0.033715228            2 
  531000    1.0426403   -6.6645577    210.24605    0.0329953  0.033695304            6 
  532000    1.0493317   -6.6573486    210.98696  0.033049335  0.033675677            3 
  533000    1.0382498   -6.6189879    211.03394  0.032994675  0.033656149            4 
  534000    1.0485222    -6.663243    211.67196  0.033032454  0.033636975            2 
  535000    1.0561638   -6.6326962    212.32863  0.033072996  0.033618044            4 
  536000    1.0466036   -6.6858453     211.5865  0.032895911  0.033598551            6 
  537000    1.0363248   -6.6672755     212.0376  0.032904656  0.033579357            4 
  538000    1.0575758    -6.686944    212.94279  0.032983704  0.033560441            3 
  539000    1.0341778   -6.6781927    213.28111  0.032974816  0.033541702            2 
  540000    1.0533115   -6.6780426    213.62906  0.032967447  0.033522534            1 
  541000    1.0308024    -6.676032    212.45273  0.032725313  0.033502848            2 
  542000    1.0395339   -6.6838573    213.73063  0.032861413  0.033483459            2 
  543000    1.0428543   -6.7025935     213.4406  0.032756385  0.033464077            5 
  544000    1.0478564   -6.6803257    213.82115  0.032754465  0.033444494            4 
  545000    1.0422087   -6.6975352    213.68491  0.032673533  0.033424466            5 
  546000    1.0726046   -6.6786872    214.38003  0.032719784  0.033404175            4 
  547000    1.0498951   -6.7061231    214.48307  0.032675666  0.033384158            2 
  548000    1.0308078   -6.6823458    215.41685  0.032758036  0.033364431            3 
  549000    1.0571962   -6.6645981    215.94316  0.032778257  0.033344617            3 
  550000    1.0236293   -6.6432587     216.5598  0.032812092  0.033325189           10 
  551000    1.0157987   -6.6930371    216.00459  0.032668571  0.033305852            4 
  552000    1.0490762   -6.7141424    216.73363  0.032719449  0.033286406            5 
  553000    1.0470655   -6.6996827    216.27117  0.032590592  0.033266902            6 
  554000    1.0333875   -6.6723083    217.18383  0.032669048  0.033247169            6 
  555000    1.0404924   -6.6854698    216.42251  0.032495872  0.033227756            5 
  556000    1.0370946   -6.7062589    217.53615  0.032604339   0.03320748            4 
  557000    1.0283592   -6.6454038    217.78006  0.032582295   0.03318728            4 
  558000    1.0452622   -6.6867058    218.68183  0.032658577  0.033167748            5 
  559000    1.0574784   -6.6889649    218.01634  0.032500945   0.03314854            3 
  560000     1.014323   -6.7069191    219.04723  0.032596314  0.033129444            5 
  561000    1.0330642   -6.6879888    218.86939  0.032511792  0.033110078            5 
  562000    1.0391517   -6.6907155    218.71872  0.032431602  0.033090787            2 
  563000    1.0358779   -6.6801956    219.66828  0.032514547  0.033071505            3 
  564000    1.0199446    -6.664937    220.59134  0.032593283  0.033053054            2 
  565000    1.0387744   -6.7017309     220.5542  0.032530118  0.033034768            7 
  566000    1.0287066   -6.6513835    221.35155  0.032590039  0.033016585            3 
  567000    1.0058088   -6.6623094    221.00102  0.032481044  0.032998011            2 
  568000    1.0164004   -6.7021384     220.5222   0.03235361  0.032979545            1 
  569000    1.0163262   -6.7340597     220.5907  0.032306781   0.03296058            3 
  570000    1.0469182   -6.7146976    221.65582  0.032405822  0.032941379            2 
  571000    1.0371969   -6.7017543    221.46274   0.03232089  0.032922291            3 
  572000    1.0327692   -6.6902714    222.40579  0.032401776  0.032902963            2 
  573000    1.0206088   -6.6643912    222.74848  0.032395066  0.032884244            2 
  574000    1.0178209      -6.6766    222.30558   0.03227433  0.032865357            3 
  575000    1.0408986   -6.6784146    222.80162  0.032290089  0.032846239            4 
  576000    1.0275488   -6.7277543    222.28509  0.032159301  0.032826677            4 
  577000    1.0312748   -6.6738422    223.78933  0.032320815  0.032807477            4 
  578000     1.020348   -6.6587287    223.95083  0.032288183  0.032788582            7 
  579000    1.0255084   -6.6953337    224.22026  0.032271194  0.032769457            4 
  580000   0.99599398   -6.7222627    224.04957   0.03219103  0.032750078            4 
  581000    0.9867011   -6.7402136    223.81852  0.032102485  0.032730139            3 
  582000    1.0507607   -6.7122232    224.33642   0.03212148  0.032710487            4 
  583000    1.0416234   -6.6792566    224.90661  0.032147885  0.032691524            9 
  584000    1.0555513   -6.7085925    225.51763  0.032180027  0.032672639            7 
  585000    1.0283025   -6.7087338    225.75967  0.032159498  0.032653504            7 
  586000    1.0216086   -6.7451658    225.23179   0.03202955  0.032633762            4 
  587000    1.0016603   -6.7384053    225.88343  0.032067495   0.03261398            3 
  588000    1.0229575   -6.6813153     226.5923  0.032113421  0.032594675            2 
  589000    1.0068563   -6.7119473    226.48969  0.032044382  0.032575127            4 
  590000    1.0064105   -6.7114639    227.12947  0.032080434  0.032555326            2 
  591000    1.0093945    -6.701309    227.05045  0.032015009  0.032535638            7 
  592000    1.0288827    -6.725967    227.05573  0.031961674   0.03251634            2 
  593000    1.0250879   -6.7191132    226.83216  0.031876357  0.032496999            6 
  594000    1.0098514   -6.7301887     227.9425  0.031978465  0.032477745            8 
  595000    1.0615349   -6.6706574    228.42303   0.03199202  0.032458852            4 
  596000    1.0213257   -6.6918498    228.16112  0.031901722  0.032439908            6 
  597000    1.0090248   -6.6923406    229.33059  0.032011528  0.032421152            2 
  598000    1.0188302   -6.7219054    229.35465   0.03196135  0.032402584            2 
  599000    1.0225125   -6.7304701     230.0759  0.032008333  0.032383762            3 
  600000    1.0232351    -6.738147    229.66401  0.031897779  0.032365337            4 
  601000    1.0091237   -6.7244294    229.54553  0.031828276  0.032346868            5 
  602000   0.99629668   -6.7086806    230.15685  0.031860029  0.032328417            4 
  603000   0.99416351   -6.7518127    231.38426  0.031976818  0.032310587            2 
  604000    1.0098495   -6.7284276    230.70112  0.031829625  0.032292104            4 
  605000   0.99494202    -6.698678    231.19478  0.031845011  0.032273517            3 
  606000     1.016246   -6.7140513    231.62244  0.031851271  0.032255324            4 
  607000    1.0047441   -6.7036679    232.01377  0.031852522  0.032237344            5 
  608000    1.0230062   -6.7233673    232.79897  0.031907753   0.03221921            2 
  609000   0.99389386   -6.7292553    232.33885  0.031792398  0.032201551            3 
  610000    1.0341981   -6.7138694    233.18717  0.031856171  0.032183708            4 
  611000   0.98752181   -6.7444639     232.4979  0.031710024  0.032166131            4 
  612000    1.0193023    -6.746767    233.36252  0.031775942  0.032148011            4 
  613000    1.0216668   -6.7277546    233.09526  0.031687773  0.032130093            4 
  614000    1.0310185   -6.6892586     233.6899   0.03171687   0.03211239            3 
  615000    1.0131919   -6.7244122     234.3024  0.031748293  0.032094678            3 
  616000   0.99603623   -6.7109438    235.16137  0.031812956  0.032077012            3 
  617000    1.0171084    -6.745959    234.11233  0.031619709  0.032059684            4 
  618000    1.0182219   -6.7277991    235.08099  0.031699162  0.032042241            5 
  619000    1.0020126   -6.7521052    234.99679  0.031636617  0.032024816            2 
  620000    0.9977448   -6.7535265    235.30842  0.031627476   0.03200704            2 
  621000    1.0217878   -6.7036943    236.73563  0.031768066  0.031989752            5 
  622000   0.99758197   -6.7257226    235.76575  0.031587052  0.031972226            4 
  623000    0.9959752   -6.7438017    235.87472  0.031550926   0.03195439            2 
  624000    1.0021016   -6.7246542    236.13008  0.031534466  0.031936758            3 
  625000   0.97434074   -6.7409576    236.26138  0.031501517  0.031918758            2 
  626000    1.0126075   -6.6909577    237.19251  0.031575147  0.031900772            3 
  627000    1.0158415   -6.7399529    235.90928  0.031354237  0.031882794            2 
  628000      1.01206   -6.7340355    237.15614  0.031469764  0.031864676            3 
  629000    1.0119455   -6.7704787    236.89503   0.03138514  0.031846528            4 
  630000   0.99561327   -6.7508844    236.81431  0.031324644  0.031828117            2 
  631000    1.0074027   -6.7503368    237.83448  0.031409731  0.031809219            4 
  632000    1.0143794   -6.7693094    237.47096  0.031312099  0.031790239            5 
  633000     1.015036   -6.7320417    237.51888  0.031268942  0.031771206            4 
  634000    1.0002915   -6.7261372    238.67076  0.031371026  0.031752206            2 
  635000    1.0043572   -6.7467367    238.47924  0.031296488  0.031733359            9 
  636000    1.0195902   -6.7334549    238.33896  0.031228899  0.031714221            6 
  637000    0.9944679   -6.7648648    238.20095   0.03116182  0.031695094            4 
  638000    1.0043476   -6.7594371    238.30172  0.031126138  0.031675861            4 
  639000   0.98834542   -6.7680352    238.72742  0.031132945  0.031656463            6 
  640000   0.99837453   -6.7221245    239.50308  0.031185296  0.031637138            2 
  641000    1.0150405   -6.7789407    238.57562  0.031016071  0.031617891           12 
  642000    0.9766933   -6.7323991    239.48147  0.031085342  0.031598722            4 
  643000    1.0091847   -6.7730617    239.76786  0.031074113  0.031579603            4 
  644000    1.0096328   -6.7452327    240.23655   0.03108651  0.031560483            5 
  645000    1.0022347   -6.7139644    240.64588  0.031091199  0.031541558            4 
  646000    1.0111791   -6.7724578    241.40898  0.031141509  0.031522991            4 
  647000    1.0000118   -6.7697701    240.28549  0.030948672  0.031504307            3 
  648000     0.997485   -6.7328022    241.78966   0.03109435  0.031485797            5 
  649000    1.0243789   -6.7370193    241.77184   0.03104415  0.031466874            3 
  650000    1.0042028   -6.7185118    242.24893  0.031057555  0.031448248            2 
  651000    1.0025768   -6.7335695    241.77302  0.030948927  0.031429429            4 
  652000    1.0013134   -6.7831536    242.07932  0.030940608  0.031410354            5 
  653000    1.0062124   -6.7295519    243.10048  0.031023543  0.031391374            4 
  654000   0.98909943   -6.7368238     243.4878  0.031025459  0.031372481            2 
  655000   0.97999927   -6.7854871    243.17405  0.030938175  0.031353723            4 
  656000   0.98032462   -6.7531609    242.96664  0.030864664   0.03133462            4 
  657000    1.0016357   -6.7535895     242.6811  0.030781468  0.031315397            4 
  658000   0.99023782   -6.7735089    243.02609  0.030778381  0.031295933            6 
  659000   0.99849962   -6.7287788    244.21654  0.030882213   0.03127665            4 
  660000   0.99434846    -6.762522    244.09268  0.030819783   0.03125741           10 
  661000   0.97089697   -6.7379872    243.52877  0.030702064  0.031238182            1 
  662000   0.97825011   -6.7087539    245.31951  0.030881106  0.031219199            3 
  663000   0.99898159   -6.7765832    245.25549  0.030826482  0.031200666            4 
  664000   0.95467124   -6.7736955    245.06568  0.030756235  0.031182361            4 
  665000   0.97855167   -6.7690546    245.37653  0.030748938  0.031163519            7 
  666000   0.97987904   -6.7667051    245.27128  0.030689599   0.03114506            6 
  667000    1.0069303    -6.783566    245.87096  0.030718511  0.031126516            2 
  668000   0.99240612   -6.7600897    246.26722  0.030721959  0.031107803            3 
  669000    1.0005673   -6.7613145    246.38325   0.03069049  0.031089057            7 
  670000   0.98745974   -6.7887414     246.2565  0.030628917  0.031070178           10 
  671000    0.9825089   -6.7836324    247.23938  0.030705337  0.031051447            8 
  672000   0.97436606   -6.8069625    247.23047   0.03065854  0.031032422            5 
  673000   0.97646836   -6.7878458     246.7386   0.03055208  0.031013276            2 
  674000   0.99759863   -6.7978372    246.74365  0.030507375  0.030993832            6 
  675000   0.97351755    -6.782628    247.41278  0.030544787   0.03097476            4 
  676000   0.98684757   -6.7478729    247.03988  0.030453635  0.030955921            4 
  677000   0.97422281   -6.7641062    248.14549  0.030544742  0.030936984            3 
  678000    1.0080707   -6.7578856    248.66149  0.030563113   0.03091811            4 
  679000   0.96779669   -6.7662649    248.20336  0.030461875  0.030899379            5 
  680000   0.98786989   -6.7667228    248.57532  0.030462662  0.030880821           11 
  681000   0.99576388   -6.7714343    249.13642  0.030486591  0.030862315            3 
  682000   0.99381929   -6.7713931    249.30489  0.030462475  0.030843378            4 
  683000   0.95967748   -6.7861221     249.6227  0.030456649  0.030824671            5 
  684000   0.98436686   -6.7485884    250.27138  0.030491152  0.030806207            2 
  685000   0.97473861   -6.7975797    250.13233  0.030429724  0.030788065            5 
  686000   0.96504741   -6.7864143    249.60283  0.030321044  0.030769679            5 
  687000   0.95104306    -6.783998    251.22547  0.030473735  0.030751572            4 
  688000    0.9866134   -6.8064222     250.8961  0.030389547  0.030733512            3 
  689000   0.98599971   -6.7755151    251.33029  0.030397954    0.0307155            4 
  690000   0.97817098   -6.7925258    251.26271  0.030345738  0.030697442            4 
  691000   0.97969951   -6.8078429      251.493  0.030329595  0.030679379            5 
  692000   0.97130364   -6.7951934     251.6454  0.030304119  0.030661308            3 
  693000   0.95809238   -6.7921551    253.12181  0.030437929  0.030643482            5 
  694000   0.98170426   -6.7792274    253.20821  0.030404444  0.030625655            3 
  695000   0.95624675   -6.8195883    253.19766  0.030359431  0.030607851            3 
  696000   0.96712583   -6.7934975    252.69971  0.030256191  0.030590022            3 
  697000   0.96696641   -6.7782483    254.10661  0.030380991  0.030572423            5 
  698000   0.98704278   -6.7844877     254.2415   0.03035357  0.030555216            6 
  699000   0.96823183    -6.797877    253.63932  0.030238354  0.030537689            2 
  700000   0.97840344   -6.8043628    254.31107  0.030275127  0.030519788            3 
  701000   0.97153637   -6.8082854    254.45568   0.03024913  0.030502181            2 
  702000   0.93912196   -6.7843495    254.95696  0.030265547  0.030484879            6 
  703000   0.96667315   -6.7860339    255.12771  0.030242734  0.030467734            6 
  704000   0.96983775    -6.782333    255.09075  0.030195401  0.030450389            6 
  705000   0.97145554   -6.7576225    255.66393  0.030220323  0.030433235            2 
  706000   0.95957941   -6.7715211    256.41203   0.03026582  0.030415862            3 
  707000   0.95391997   -6.7911251     256.3109  0.030211092  0.030398498            6 
  708000   0.98719765   -6.7632177    257.08092  0.030259054  0.030381126            7 
  709000   0.96627311   -6.8075447    256.29067  0.030123491  0.030363796            3 
  710000   0.97025707   -6.7508581    257.28157  0.030197368  0.030346456            7 
  711000   0.96566613   -6.8019997    257.69076  0.030202855  0.030329547            4 
  712000   0.95174924   -6.8158761    257.71927  0.030163772  0.030312921            2 
  713000   0.97539648   -6.7831706    257.61833   0.03010967  0.030296166            3 
  714000   0.96588878   -6.7896877    258.09781   0.03012346  0.030279521            4 
  715000   0.97596869   -6.8093229    257.47423  0.030008651  0.030262831            8 
  716000   0.98081139   -6.7764667    258.62217  0.030100346   0.03024605            6 
  717000   0.96376956   -6.8088619     258.9266  0.030093747  0.030228999            6 
  718000   0.99346119   -6.8017287    258.52897  0.030005684  0.030212062            2 
  719000   0.97066812   -6.7757104    258.98603  0.030016925  0.030195334            2 
  720000   0.96164058   -6.8147181    258.93388  0.029969199  0.030178872            7 
  721000   0.97230743   -6.8044178    259.54631  0.029998417  0.030162221            4 
  722000   0.95352243   -6.8142598    259.19785   0.02991665  0.030145515            3 
  723000   0.98405024    -6.848893    259.80355  0.029945085  0.030128594            8 
  724000   0.96980482   -6.7963237    260.57026  0.029991973  0.030112102            3 
  725000    0.9554918   -6.8128476     260.6297  0.029957437  0.030095782            5 
  726000   0.95258601   -6.7974189    261.84557  0.030055736  0.030080048            4 
  727000    0.9494781   -6.8187162    262.23839  0.030059422  0.030064023            2 
  728000   0.94987138   -6.8012627    262.41281  0.030038097  0.030048002            4 
  729000   0.96168568   -6.8439833    262.21867  0.029974699  0.030031891            5 
  730000   0.95501304   -6.7883224    262.59012  0.029976042  0.030015865            4 
  731000   0.97754386   -6.8140172    262.91563  0.029972143  0.030000353            3 
  732000   0.96332416   -6.8154407     263.9319  0.030046893  0.029984917            6 
  733000   0.95902369   -6.7954236    263.82128  0.029993325  0.029969485            7 
  734000   0.97161034    -6.850443     263.1465  0.029875852  0.029953917            2 
  735000   0.97259491    -6.815625    264.47348  0.029985656  0.029938424            2 
  736000   0.95797672   -6.8419136    264.54787  0.029953336  0.029922865            2 
  737000   0.95832344   -6.8617069    264.04382  0.029855701  0.029907223            6 
  738000   0.95330856    -6.825767    263.87488   0.02979617  0.029891228            2 
  739000   0.96374323   -6.8227256    265.23058  0.029908725  0.029875338            2 
  740000   0.95334987   -6.8474856    264.27857  0.029761101  0.029859443            3 
  741000    0.9567523   -6.8541231    264.88502  0.029789139  0.029843449            3 
  742000    0.9347644   -6.8328421    265.05648  0.029768248  0.029827474            6 
  743000    0.9487382   -6.8222252    265.81777  0.029813568  0.029811502            3 
  744000   0.96408481   -6.8179133    265.57245  0.029746018  0.029795249            5 
  745000   0.96655412   -6.8281575    265.25315  0.029670374  0.029778784            4 
  746000   0.95660161   -6.8195109    264.87606  0.029588478  0.029762364            4 
  747000   0.96288046   -6.8287164    265.86458  0.029659145   0.02974572            5 
  748000   0.95663714   -6.8651063    265.13445  0.029538152  0.029729314            3 
  749000   0.93981833   -6.8481197     266.3655  0.029635681  0.029712986            4 
  750000   0.94579894   -6.8281426    266.21956  0.029579951  0.029696579            3 
  751000   0.94151505   -6.7998666     266.5738  0.029579872   0.02967985            2 
  752000   0.96966576   -6.8197184    265.92598  0.029468747  0.029662661            6 
  753000   0.95950016   -6.8378278    267.46783  0.029600247  0.029645808            3 
  754000   0.95122028   -6.8265735    266.67523   0.02947339  0.029628648            6 
  755000   0.96235623   -6.8466321     266.3985  0.029403808  0.029611424            7 
  756000   0.94354805   -6.8277592    266.96574   0.02942744  0.029594393            4 
  757000    0.9574006   -6.8079591    267.13618   0.02940733  0.029577204            4 
  758000   0.96506156   -6.8727444    266.62727  0.029312584  0.029560089            4 
  759000   0.94962925   -6.8267152    267.16774  0.029333305  0.029543242            3 
  760000   0.98813765   -6.8919352    266.83372  0.029258084  0.029526232            9 
  761000   0.97043941   -6.8404186    267.18487   0.02925809  0.029508994            4 
  762000   0.94399341   -6.8283956    267.84999  0.029292431  0.029491707            4 
  763000   0.93388509   -6.8307323    268.54134  0.029329548  0.029474563            3 
  764000   0.94747948   -6.8196678    268.34946  0.029270229  0.029457517            2 
  765000   0.95752492   -6.8614652    268.27178  0.029223506  0.029440662            3 
  766000   0.94360482   -6.8499758    268.61809   0.02922303  0.029423572            6 
  767000   0.93441676   -6.8229213    269.15682  0.029243461  0.029406556           12 
  768000   0.94457535   -6.9099129    269.01005  0.029189458  0.029389363           11 
  769000   0.95524537   -6.8676711    268.77649  0.029126191  0.029371986            3 
  770000   0.95610601   -6.8280623    270.00678  0.029221513  0.029354698            7 
  771000   0.93853599   -6.8670937    268.85031  0.029058616  0.029337312            9 
  772000   0.94116827   -6.8670034    269.38314  0.029078491  0.029319704            8 
  773000   0.94162435   -6.8233993    269.61752  0.029066141  0.029302054           13 
  774000   0.94597281   -6.8651988    269.61875  0.029028719  0.029284042            5 
  775000   0.94199125   -6.8617563    269.26562  0.028953293  0.029266011            6 
  776000     0.947946    -6.894152    270.00629   0.02899552  0.029247835            4 
  777000   0.93578779   -6.8923336    269.49073  0.028902909  0.029229442            3 
  778000   0.92273391   -6.8537979    270.26723  0.028948932  0.029211037            4 
  779000    0.9398762   -6.8457133     269.8948   0.02887193  0.029192794            7 
  780000   0.93508602    -6.881317    269.44706  0.028787079  0.029174445            7 
  781000   0.94950029   -6.8974685    269.61972  0.028768643  0.029155778           12 
  782000   0.94094469   -6.8784381    269.91212  0.028763014  0.029137196            3 
  783000   0.94757145   -6.8711423    270.11458  0.028747826  0.029118592            6 
  784000   0.95043455   -6.8683219    270.90559  0.028795237  0.029099992            4 
  785000   0.95202903   -6.8427064    270.47989  0.028713364  0.029081295            5 
  786000   0.93529675   -6.8682827    271.08338  0.028740816  0.029062666            3 
  787000   0.94501554   -6.9099572    270.24147  0.028615149   0.02904411            5 
  788000   0.94994477   -6.8732767    271.05366  0.028664727  0.029025544            2 
  789000   0.93548654   -6.8461987     271.9787  0.028726099  0.029006957            3 
  790000   0.96249057   -6.8726189    272.28327  0.028721863   0.02898864            5 
  791000   0.92186343   -6.9158338    271.84866  0.028639766  0.028970455            6 
  792000   0.92498859   -6.8874684    271.80755  0.028599279  0.028952038            6 
  793000   0.93196025   -6.8820998    272.40471  0.028625967  0.028933748            8 
  794000   0.93250581   -6.8827113    272.14886  0.028563062  0.028915536            5 
  795000   0.94070924    -6.886279    272.60912  0.028575379  0.028897526            7 
  796000   0.95021559   -6.9064786    273.31668  0.028613556    0.0288793            4 
  797000   0.94349591   -6.8522219    273.66455  0.028614027  0.028861143            3 
  798000   0.92715291   -6.8797662    273.61673  0.028573176  0.028843201            2 
  799000   0.95027788   -6.8859169    273.85712  0.028562486   0.02882501            2 
  800000   0.92710775   -6.9260368    273.92989  0.028534364  0.028806721            4 
  801000   0.94467173   -6.8916158    273.74317  0.028479315  0.028788447            7 
  802000   0.92104938   -6.8860498    274.30996  0.028502697  0.028770207            4 
  803000   0.94965246   -6.9158306    273.74023  0.028408077  0.028751994            2 
  804000   0.95304153   -6.9097741    273.83484   0.02838255  0.028733633            7 
  805000   0.92448361   -6.8996658     274.4142  0.028407267  0.028715512            2 
  806000   0.94480626   -6.9099183    274.53718  0.028384738  0.028697138            4 
  807000   0.92647046   -6.8948113     274.3859  0.028333943  0.028678608            4 
  808000   0.94110823    -6.894135    275.23435  0.028386381   0.02866045            6 
[...]
 1800000   0.53503459   -7.7330143    331.15021  0.015331028   0.01419797           88 
 1801000   0.53119677   -7.7239409    331.19021  0.015324367  0.014186961          104 
 1802000   0.53271361   -7.7126019    330.91798  0.015303273  0.014175971          101 
 1803000   0.53607043   -7.7338117    331.16221  0.015306074  0.014164985           95 
 1804000   0.53562207   -7.7188921    331.29834  0.015303877  0.014153991          107 
 1805000   0.53310135   -7.7119524    331.10866  0.015286642  0.014143028           91 
 1806000   0.52726791   -7.7268316    330.84452  0.015265989  0.014132052           92 
 1807000   0.51560643   -7.7338058    331.35442  0.015281056  0.014121084           93 
 1808000   0.54306664   -7.7321538    331.21743   0.01526629  0.014110117          105 
 1809000   0.52471492   -7.7160133    331.20481   0.01525727  0.014099173           91 
 1810000   0.53097055   -7.7265886    331.18119  0.015247753  0.014088236          168 
 1811000   0.53206712   -7.7366378    331.02936  0.015232347   0.01407731           90 
 1812000   0.53011225   -7.7271125    331.48433  0.015244865   0.01406639           79 
 1813000   0.52132006   -7.7372577    331.00215  0.015214292  0.014055473           92 
 1814000   0.53026871   -7.7210587    331.30925  0.015220014   0.01404456          103 
 1815000   0.52551981    -7.731469     331.3207  0.015212153  0.014033662          111 
 1816000   0.54029756   -7.7315062    331.01851   0.01518991  0.014022791           99 
 1817000   0.52684708   -7.7130551    331.19321  0.015189562   0.01401193          111 
 1818000   0.53261254   -7.7287592    330.67451  0.015157431  0.014001064          105 
 1819000   0.53200171   -7.7248297    331.63483  0.015193093  0.013990197          140 
 1820000   0.51982239   -7.7189283    331.32111   0.01517038  0.013979346          125 
 1821000   0.51495037   -7.7291152    330.82254  0.015139234  0.013968495           97 
 1822000   0.51967675   -7.7524365     330.8962  0.015134294  0.013957645          184 
 1823000   0.52911134   -7.7425299    331.00357    0.0151309    0.0139468          112 
 1824000   0.52425561   -7.7206403    331.79545  0.015158783  0.013935983          109 
 1825000   0.52489721    -7.741784    330.90287   0.01510972  0.013925165          133 
 1826000    0.5277481   -7.7356229    330.41711  0.015079277  0.013914358          105 
 1827000   0.52718619   -7.7329864    331.17539   0.01510561  0.013903569           99 
 1828000   0.52707775   -7.7264516    330.67615  0.015074588  0.013892789          106 
 1829000   0.52131798   -7.7482869    331.08025  0.015084757  0.013882022           97 
 1830000   0.53124012   -7.7413658    330.86762  0.015066832  0.013871245           97 
 1831000   0.52048239   -7.7416565    330.82429  0.015056631  0.013860487          212 
 1832000   0.51914432   -7.7312182    331.30348  0.015070209  0.013849739           92 
 1833000   0.51536482   -7.7225439    330.79514  0.015038877  0.013838996           98 
 1834000   0.51746257   -7.7424398    331.45506  0.015060662  0.013828265          142 
 1835000   0.51843496   -7.7513295    331.47824  0.015053508   0.01381754          132 
 1836000    0.5116457   -7.7482982    330.61158  0.015005972  0.013806826          104 
 1837000   0.52337841   -7.7316721    330.79471  0.015006111  0.013796115          167 
 1838000   0.51352674   -7.7327607    330.77553  0.014997077  0.013785417          101 
 1839000   0.52476366   -7.7479635    330.96462   0.01499749  0.013774729          109 
 1840000   0.52985162   -7.7389522    331.13057  0.014996855  0.013764067          102 
 1841000   0.52093898   -7.7504929    330.74922  0.014971448  0.013753403          213 
 1842000   0.51866903   -7.7445966    330.80856  0.014966004  0.013742753          190 
 1843000   0.51889003   -7.7479357    330.89294  0.014961699  0.013732104          124 
 1844000   0.52452247   -7.7510009    330.80202  0.014949477  0.013721471          118 
 1845000   0.50700166   -7.7542016    330.92031  0.014946717  0.013710843           93 
 1846000   0.51348997   -7.7646284     330.6289  0.014925465  0.013700222          211 
 1847000   0.52605768   -7.7527874     331.1225  0.014939655  0.013689601          159 
 1848000   0.51624575   -7.7628143    330.76828  0.014915597  0.013678996          278 
 1849000   0.51980631   -7.7442551    330.34809  0.014888593  0.013668387          191 
 1850000   0.52086747   -7.7722643    330.72058  0.014897324  0.013657797          103 
 1851000   0.51151492   -7.7432023    330.89537  0.014897144  0.013647202          153 
 1852000   0.51313919   -7.7338059    330.85177  0.014887139  0.013636626          141 
 1853000    0.5168499   -7.7577823    331.05765  0.014888363  0.013626059          144 
 1854000   0.50034924   -7.7629634    330.94143  0.014875109  0.013615503          196 
 1855000   0.52410922   -7.7557955    330.45333  0.014845163  0.013604963          119 
 1856000   0.50198316   -7.7503127    330.23697   0.01482745  0.013594424          138 
 1857000   0.51845936   -7.7608866    330.93794  0.014850922  0.013583905          193 
 1858000   0.50762182    -7.766582    330.89673  0.014841081  0.013573373          200 
 1859000   0.51415585   -7.7590306    330.55024  0.014817565  0.013562846          130 
 1860000   0.52359237   -7.7584453    330.70925  0.014816722   0.01355233           84 
 1861000    0.5098359   -7.7775169    331.02566  0.014822929  0.013541819          105 
 1862000   0.51552498   -7.7657967    330.68218  0.014799596  0.013531317          107 
 1863000   0.50425281   -7.7645041    330.59913  0.014787937   0.01352081          140 
 1864000    0.5067304   -7.7743847     330.7817  0.014788166  0.013510324           91 
 1865000   0.50416311   -7.7575073    330.74556  0.014778622  0.013499846          129 
 1866000   0.51307231   -7.7772202    330.51213  0.014760277  0.013489374           95 
 1867000   0.49670915   -7.7534674    330.70919  0.014761167  0.013478913          223 
 1868000   0.50723377   -7.7734841    330.23769  0.014732231  0.013468458          129 
 1869000   0.50259166    -7.780773    330.83772  0.014751102  0.013458012          123 
 1870000   0.50558478   -7.7767178    330.08877  0.014709838  0.013447574          137 
 1871000   0.52075473   -7.7613933      329.903  0.014693702  0.013437139          148 
 1872000   0.49611876   -7.7659419    330.88633  0.014729627  0.013426709          145 
 1873000   0.50754847   -7.7683764    330.70772  0.014713815   0.01341629          118 
 1874000   0.51794267   -7.7811236    330.51697  0.014697482  0.013405889          124 
 1875000   0.49561377    -7.785419    330.29804  0.014679913  0.013395485          214 
 1876000   0.50177493   -7.7891326    330.44663  0.014678688  0.013385103          157 
 1877000   0.50769897   -7.7731394    330.38581  0.014668168  0.013374714          116 
 1878000   0.50220417   -7.7735823    330.20573  0.014652366  0.013364339          118 
 1879000   0.49428199   -7.7700367    330.31583  0.014649451   0.01335397          119 
 1880000   0.50395214   -7.7876154    330.60042  0.014654274  0.013343615          134 
 1881000   0.49650218   -7.7812624    330.79794  0.014655234  0.013333281          127 
 1882000    0.5161994   -7.7817536    330.24508  0.014622967  0.013322951          123 
 1883000   0.50673703   -7.7767656    330.13035  0.014610123  0.013312615          157 
 1884000   0.50481724   -7.7939009    330.35982  0.014612519  0.013302302          121 
 1885000   0.49848275   -7.7709868    330.71404  0.014620426  0.013291992          140 
 1886000   0.50436552   -7.7755708      330.345  0.014596368    0.0132817          115 
 1887000   0.49860536   -7.7815176    330.44073   0.01459286  0.013271425          138 
 1888000   0.50193231   -7.7933971    330.08546   0.01456945  0.013261143          144 
 1889000   0.50720888   -7.8065857    330.26371  0.014569601  0.013250887          157 
 1890000   0.49111817    -7.783918    330.02885  0.014551536  0.013240644          150 
 1891000   0.51064999   -7.7822004    330.17784  0.014550407  0.013230405          129 
 1892000   0.49909834    -7.775771    330.27444  0.014546971  0.013220191          175 
 1893000   0.49586377   -7.7831613    330.86891  0.014565456  0.013209982          150 
 1894000   0.51174286   -7.7753593    329.94099  0.014516939  0.013199771          137 
 1895000   0.50741768   -7.7852421    330.06026  0.014514523  0.013189575          166 
 1896000   0.49678876   -7.8032164    330.34806  0.014519517  0.013179386          163 
 1897000   0.49284364   -7.7920164    330.36184  0.014512469  0.013169206          199 
 1898000   0.49635964   -7.7763254    330.65327  0.014517618  0.013159027          194 
 1899000   0.49324587   -7.7918571    329.88425  0.014476226   0.01314886          126 
 1900000   0.49560297   -7.7751833    329.57404  0.014455002  0.013138697          194 
 1901000   0.49054459   -7.7904581    330.44365  0.014485519  0.013128552          144 
 1902000   0.50612401   -7.7774927     330.0668  0.014461392  0.013118416          195 
 1903000   0.49523411   -7.7881631     330.2091  0.014460024  0.013108273          104 
 1904000   0.49084451   -7.7904175    330.22794  0.014453253  0.013098149          171 
 1905000   0.49830676   -7.7944668    330.60421  0.014462126  0.013088025          195 
 1906000   0.48947471   -7.7961106    330.12289  0.014433495  0.013077901          171 
 1907000   0.48971232    -7.789318    329.76687  0.014410369  0.013067779          139 
 1908000   0.49693213   -7.8165807    330.19817  0.014421653  0.013057682          153 
 1909000   0.49623065   -7.7891295     329.7346  0.014393863  0.013047599          173 
 1910000   0.50476716   -7.7936503     330.0327  0.014399332  0.013037524          145 
 1911000   0.48999437   -7.7909401    330.09176  0.014394373  0.013027453          141 
 1912000   0.50391388   -7.8059387    329.78147  0.014373321  0.013017387          158 
 1913000    0.4922977   -7.7975482     330.1912  0.014383656  0.013007335          169 
 1914000   0.48366944   -7.7941952    329.53655  0.014347638  0.012997289          162 
 1915000   0.48267176   -7.7984928    330.17851  0.014368081  0.012987252          109 
 1916000   0.48672472   -7.7866946    329.87061  0.014347191  0.012977224          129 
 1917000   0.49334384   -7.8119497    330.18315  0.014353293  0.012967214          161 
 1918000   0.48258111   -7.7902654    329.91874  0.014334321  0.012957206          173 
 1919000   0.49044571   -7.7978007    330.20019  0.014339074  0.012947224          148 
 1920000   0.48566892   -7.7890143    329.74518  0.014311857  0.012937249          124 
 1921000   0.48050661   -7.8012888    330.57256  0.014340299  0.012927283          184 
 1922000   0.48449264   -7.8007502    330.09843   0.01431228  0.012917325          170 
 1923000   0.48604217   -7.7994297    330.40887   0.01431829  0.012907362          175 
 1924000    0.4888268   -7.8096836    330.06468  0.014295941   0.01289741          134 
 1925000   0.48905796   -7.7885857    329.87235  0.014280188  0.012887464          159 
 1926000   0.48548464   -7.8169089    329.75365  0.014267638  0.012877537          182 
 1927000   0.48941631   -7.8229605    330.07378  0.014274078  0.012867612          163 
 1928000   0.48078194   -7.8205857    329.87954  0.014258279  0.012857695          212 
 1929000   0.48653514   -7.7980651    329.88982  0.014251331   0.01284778          195 
 1930000   0.49189561   -7.8174829    329.51575  0.014227796  0.012837877          198 
 1931000   0.48739235   -7.8089428    330.11835  0.014246433  0.012827989          184 
 1932000   0.48292337   -7.8072818    329.98361  0.014233247  0.012818124          185 
 1933000   0.47284557   -7.8160845    329.47843  0.014204105  0.012808262          207 
 1934000   0.48155929   -7.8203977    330.13448  0.014225029  0.012798393          163 
 1935000   0.47414223     -7.80777     329.9892  0.014211421   0.01278854          229 
 1936000   0.47413782   -7.8089401    329.47678  0.014182024  0.012778694          121 
 1937000   0.46861763   -7.8201764     329.6576  0.014182482  0.012768843          163 
 1938000   0.48141131   -7.8136285    329.78422  0.014180608  0.012759001          218 
 1939000   0.46861063    -7.815043    330.21983  0.014192016  0.012749174          180 
 1940000   0.47714674   -7.8081419    329.89967  0.014170948  0.012739347          185 
 1941000   0.47778527   -7.8269156    329.42725  0.014143365  0.012729526          225 
 1942000   0.48485101   -7.8007859    329.67141  0.014146559  0.012719715          196 
 1943000   0.47343576     -7.81248    329.83485  0.014146288  0.012709916          228 
 1944000    0.4775732   -7.8037229    329.28182  0.014115305  0.012700121          124 
 1945000   0.48106559   -7.8154844    329.47691  0.014116406   0.01269034          188 
 1946000   0.47822264   -7.7945618    328.94945  0.014086564  0.012680562          145 
 1947000   0.47995122   -7.8255575    329.31986  0.014095183  0.012670796          186 
 1948000   0.47508396   -7.8298214    329.77266  0.014107318  0.012661021          184 
 1949000    0.4790813   -7.8104181    329.61694  0.014093421  0.012651247          253 
 1950000   0.46221676   -7.8148338    329.30521  0.014072872   0.01264149          172 
 1951000   0.47284006   -7.8163848     329.6393  0.014079929  0.012631747          204 
 1952000   0.48155951   -7.8261952    329.88024  0.014083002  0.012622013          155 
 1953000   0.47249723   -7.8211084    328.92086  0.014034855  0.012612296          158 
 1954000   0.47507772   -7.8129766    329.36795  0.014046739  0.012602575          137 
 1955000   0.46487187   -7.8283945    329.94522  0.014064161  0.012592862          185 
 1956000   0.46813463   -7.8201096    329.20225  0.014025317  0.012583161          212 
 1957000   0.47819427   -7.8377924    329.74323  0.014041187  0.012573468          221 
 1958000   0.46276701    -7.828321    329.55073  0.014025823  0.012563786          227 
 1959000   0.45720919   -7.8189023    329.23089  0.014005057  0.012554109          164 
 1960000   0.47411539   -7.8251955    329.66571  0.014016399   0.01254444          200 
 1961000   0.47423675   -7.8330845     329.2924  0.013993388  0.012534776          188 
 1962000   0.46857814   -7.8284933    329.10167  0.013978155   0.01252512          188 
 1963000   0.47117738    -7.822501    329.31151  0.013979942  0.012515484          164 
 1964000   0.46133357   -7.8187041    328.78953  0.013950676   0.01250585          181 
 1965000   0.47507839   -7.8255625    329.56386  0.013976415  0.012496228          164 
 1966000   0.47231027   -7.8380032    329.23699   0.01395545  0.012486616          156 
 1967000   0.47051224   -7.8439133    329.27275  0.013949871  0.012477012          149 
 1968000   0.46493368   -7.8368165     329.3244  0.013944969  0.012467422          182 
 1969000   0.46407428   -7.8492897    329.42375  0.013942092   0.01245784          170 
 1970000   0.46835692   -7.8483475    329.76966  0.013949647  0.012448275          212 
 1971000   0.46977061   -7.8348581    328.72754  0.013898509  0.012438711          187 
 1972000   0.46728063      -7.8439    329.12609  0.013908303  0.012429155          252 
 1973000    0.4606675    -7.828263    329.33002  0.013909867   0.01241961          210 
 1974000   0.45701817   -7.8319497    329.21348  0.013897901  0.012410073          264 
 1975000   0.46389411   -7.8296978    329.23667  0.013891843  0.012400543          165 
 1976000   0.46623319   -7.8227832    329.25699  0.013885669  0.012391022          207 
 1977000   0.47389769   -7.8296445    329.47519  0.013887843  0.012381511          237 
 1978000   0.46293768   -7.8526892    329.48612  0.013881283  0.012372013          195 
 1979000   0.45585029   -7.8313855    328.72861   0.01384237  0.012362521          138 
 1980000   0.46021575   -7.8454711    329.14989   0.01385311  0.012353042          210 
 1981000    0.4698861   -7.8510235    329.48956  0.013860405  0.012343566          157 
 1982000   0.47099365   -7.8379848    329.32979  0.013846695  0.012334109          193 
 1983000   0.46085987   -7.8453649    329.34367  0.013840295  0.012324655          175 
 1984000   0.46477323   -7.8538928    329.25656  0.013829661  0.012315203          209 
 1985000   0.46044555   -7.8465118    329.46695  0.013831526  0.012305768          192 
 1986000   0.46390796    -7.847721    329.43017  0.013823018  0.012296327          138 
 1987000   0.46039544   -7.8449156    329.10468  0.013802411   0.01228691          191 
 1988000   0.45173985   -7.8434001    329.21438  0.013800066  0.012277495          174 
 1989000    0.4628876   -7.8611938    329.16579  0.013791092  0.012268092          197 
 1990000   0.46171818   -7.8513908    328.52971  0.013757525   0.01225869          215 
 1991000   0.45038096   -7.8474781    328.89511  0.013765909  0.012249303          179 
 1992000   0.47267118   -7.8454149    329.10571  0.013767809  0.012239918          151 
 1993000   0.44902398    -7.844266    329.46873   0.01377608  0.012230538          150 
 1994000   0.46473195   -7.8429023    329.31994  0.013762953  0.012221175          167 
 1995000   0.46116369   -7.8485672    329.29956  0.013755203  0.012211819          183 
 1996000   0.45073174   -7.8736853    329.65716  0.013763241  0.012202466          188 
 1997000   0.45113706   -7.8465457    328.66032  0.013714752  0.012193121          187 
 1998000   0.45033117   -7.8502608    329.23892   0.01373202  0.012183788          230 
 1999000   0.45676425   -7.8490469    329.21097  0.013723986   0.01217446          190 
 2000000   0.46207005   -7.8565569    328.82679  0.013701116  0.012165135          141 
 2001000   0.45163049    -7.849028    329.36825  0.013716819  0.012155828          195 
 2002000   0.45396251   -7.8520352    329.17968  0.013702118  0.012146526          160 
 2003000   0.45250952   -7.8500145     329.0774  0.013691022  0.012137241          216 
 2004000    0.4570316   -7.8501129    328.98084  0.013680174  0.012127954          126 
 2005000   0.45069862   -7.8512934    329.00303  0.013674274  0.012118682          147 
 2006000   0.44875291   -7.8598706     329.2391  0.013677264  0.012109423          200 
 2007000   0.44726672    -7.880554    328.90578  0.013656609  0.012100165          171 
 2008000   0.44508887   -7.8512669    329.33721  0.013667713  0.012090921          159 
 2009000   0.45214131    -7.841409    328.82183  0.013639532  0.012081681          178 
 2010000    0.4504972   -7.8656054    328.87716   0.01363504  0.012072455          194 
 2011000   0.45763724    -7.851458     329.0573  0.013635724  0.012063233          183 
 2012000   0.44994555   -7.8645223    328.78951  0.013617856  0.012054017          181 
Loop time of 4416.98 on 48 procs for 2000000 steps with 4000 atoms

Performance: 78243.483 tau/day, 452.798 timesteps/s
99.4% CPU use with 48 MPI tasks x no OpenMP threads

MPI task timing breakdown:
Section |  min time  |  avg time  |  max time  |%varavg| %total
---------------------------------------------------------------
Pair    | 276.7      | 293.97     | 306.13     |  42.0 |  6.66
Neigh   | 27.767     | 28.324     | 29.012     |   5.4 |  0.64
Comm    | 248.07     | 263.53     | 283.46     |  48.7 |  5.97
Output  | 4.0204     | 4.0221     | 4.0522     |   0.2 |  0.09
Modify  | 3764       | 3779.9     | 3794.8     |  12.7 | 85.58
Other   |            | 47.28      |            |       |  1.07

Nlocal:        83.3333 ave          93 max          71 min
Histogram: 1 0 1 4 5 21 10 3 2 1
Nghost:        1840.23 ave        1859 max        1822 min
Histogram: 5 2 5 11 2 7 2 4 7 3
Neighs:        11370.3 ave       12433 max        8946 min
Histogram: 1 0 0 0 4 8 7 14 11 3
FullNghs:      22740.0 ave       25358 max       19063 min
Histogram: 1 0 2 2 7 14 13 6 1 2

Total # of neighbors = 1091518
Ave neighs/atom = 272.87950
Neighbor list builds = 107661
Dangerous builds = 0

#clear
#
#next RN
#
#jump SELF
Total wall time: 1:13:39
