
units lj                  # Use reduced LJ style units
atom_style atomic         # Uncharged point particles
atom_modify map hash      # Needed for indexing of clusters etc
                          # Used to be able to find where atoms are in relation to each other.

lattice fcc 1.0 spacing 1 1 1
Lattice spacing in x,y,z = 1.5874011 1.5874011 1.5874011
region box block 0 10 0 10 0 10 units lattice
create_box 2 box
Created orthogonal box = (0.0000000 0.0000000 0.0000000) to (15.874011 15.874011 15.874011)
  3 by 4 by 4 MPI processor grid
create_atoms 1 box
Created 4000 atoms
  using lattice units in orthogonal box = (0.0000000 0.0000000 0.0000000) to (15.874011 15.874011 15.874011)
  create_atoms CPU = 0.015 seconds
set type 1 type/fraction 2 0.15 78393
Setting atom values ...
  634 settings made for type/fraction
mass 1 1.0
mass 2 1.0
pair_style lj/cut  3.5
pair_modify tail  yes
pair_coeff 1  1  1.0  1.0   # Intearaction between 1 and 1 set with epsilon = 1 and sigma = 1
pair_coeff 1  2  1.5  0.8
pair_coeff 2  2  0.5  0.88

write_data data.0
System init for write_data ...
Neighbor list info ...
  update every 1 steps, delay 10 steps, check yes
  max neighbors/atom: 2000, page size: 100000
  master list distance cutoff = 3.8
  ghost atom cutoff = 3.8
  binsize = 1.9, bins = 9 9 9
  1 neighbor lists, perpetual/occasional/extra = 1 0 0
  (1) pair lj/cut, perpetual
      attributes: half, newton on
      pair build: half/bin/atomonly/newton
      stencil: half/bin/3d
      bin: standard
WARNING: Not all mixed pair coeffs generated from mixing. Use write_data with 'pair ij' option to store all pair coeffs. (../write_data.cpp:312)


#############################
#   M E L T   S Y S T E M   #
#############################

velocity all create 2.4 5300450 mom yes dist gaussian # Assign velocities
                                                    # Temperature 2.4, random number seed, zero linear momentum
                                                                                # Gaussian distribution

timestep 0.002   # simulation timestep
thermo 1000       # output thermodynamic data every 1000 steps bf 100

# Define a fix  in this case with index 1 applied to all
# particles in the simulation. This fix is for simulations
# in the anisotropic NPT ensemble. Note that we use the MTK
# correction.
fix 1 all npt temp 2.4 2.4 0.1 iso 5.68 5.68 0.5 mtk yes tchain 5 pchain 5 # Use NPT ensemble
                                                                         # Set temperature and pressure and damping
                                                                         # Numbers of thermostats in chain and in barostat
run 10000          # run for 10000 steps
Per MPI rank memory allocation (min/avg/max) = 3.642 | 3.644 | 3.648 Mbytes
Step Temp E_pair E_mol TotEng Press Volume 
       0          2.4   -7.3553801            0   -3.7562801   -3.3553213         4000 
    1000    2.3911465   -4.6942863            0   -1.1084632    5.6674494    4670.9719 
    2000    2.4223237   -4.7815011            0   -1.1489239    5.5453784    4640.3188 
    3000    2.4036981   -4.7083799            0   -1.1037341    5.5707756     4664.975 
    4000    2.4038668   -4.7310589            0   -1.1261601    6.1379318    4595.3328 
    5000    2.3845415   -4.7717668            0   -1.1958487    5.8234929    4605.9191 
    6000    2.3905482    -4.717125            0   -1.1321991    5.6108921     4669.636 
    7000    2.4066731   -4.7209668            0   -1.1118596      5.98131    4626.6426 
    8000    2.3630775   -4.6522901            0     -1.10856    5.9952623    4650.0407 
    9000    2.4393288   -4.7879165            0   -1.1298381    5.5995365    4626.0157 
   10000    2.4096605   -4.7358703            0   -1.1222832    5.8963942    4624.4906 
Loop time of 2.20296 on 48 procs for 10000 steps with 4000 atoms

Performance: 784398.446 tau/day, 4539.343 timesteps/s
99.7% CPU use with 48 MPI tasks x no OpenMP threads

MPI task timing breakdown:
Section |  min time  |  avg time  |  max time  |%varavg| %total
---------------------------------------------------------------
Pair    | 0.9142     | 0.99491    | 1.0756     |   3.3 | 45.16
Neigh   | 0.19067    | 0.19962    | 0.21009    |   0.9 |  9.06
Comm    | 0.67299    | 0.76399    | 0.84173    |   4.1 | 34.68
Output  | 0.00025151 | 0.00025814 | 0.00039421 |   0.0 |  0.01
Modify  | 0.20404    | 0.22943    | 0.25577    |   3.1 | 10.41
Other   |            | 0.01475    |            |       |  0.67

Nlocal:        83.3333 ave          94 max          73 min
Histogram: 2 1 7 5 6 9 14 2 1 1
Nghost:        1489.29 ave        1522 max        1457 min
Histogram: 2 3 4 6 7 14 4 2 3 3
Neighs:        8247.96 ave        9536 max        6675 min
Histogram: 1 1 2 7 5 13 11 6 1 1

Total # of neighbors = 395902
Ave neighs/atom = 98.975500
Neighbor list builds = 902
Dangerous builds = 168

# Equilibrate just above the melting temperature to avoid step fn in T

fix 1 all npt temp 1.25 1.25 0.1 iso 5.68 5.68 0.5 mtk yes tchain 5 pchain 5
run 2000
Per MPI rank memory allocation (min/avg/max) = 3.642 | 3.644 | 3.648 Mbytes
Step Temp E_pair E_mol TotEng Press Volume 
   10000    2.4096605   -4.7358703            0   -1.1222832    5.8963942    4624.4906 
   11000    1.2234982   -6.3451822            0   -4.5103937    5.7770223    3814.4307 
   12000    1.2582939   -6.4055235            0   -4.5185545     5.546034    3810.2836 
Loop time of 0.488853 on 48 procs for 2000 steps with 4000 atoms

Performance: 706961.296 tau/day, 4091.211 timesteps/s
99.7% CPU use with 48 MPI tasks x no OpenMP threads

MPI task timing breakdown:
Section |  min time  |  avg time  |  max time  |%varavg| %total
---------------------------------------------------------------
Pair    | 0.21374    | 0.23517    | 0.26243    |   2.0 | 48.11
Neigh   | 0.03158    | 0.033903   | 0.035907   |   0.5 |  6.94
Comm    | 0.13767    | 0.16551    | 0.19471    |   2.6 | 33.86
Output  | 5.2497e-05 | 5.3577e-05 | 6.6757e-05 |   0.0 |  0.01
Modify  | 0.04202    | 0.049628   | 0.059954   |   2.2 | 10.15
Other   |            | 0.004595   |            |       |  0.94

Nlocal:        83.3333 ave          92 max          75 min
Histogram: 1 2 7 6 9 9 5 6 2 1
Nghost:        1695.62 ave        1716 max        1667 min
Histogram: 2 1 1 5 8 7 8 8 5 3
Neighs:        10016.7 ave       11064 max        8661 min
Histogram: 1 1 3 5 11 7 7 6 3 4

Total # of neighbors = 480800
Ave neighs/atom = 120.20000
Neighbor list builds = 143
Dangerous builds = 8

#############################
# L I N E A R  Q U E N C H  #
#############################

# Define solid atoms. This closely follows ten Wolde  Ruiz-Montero and Frenkel  Faraday Discuss  1996  104  93-110
# Compute components of the per-atom q6 vector
compute q6 all orientorder/atom degrees 1 6 components 6 nnn NULL cutoff 1.3 # compute the Q6 parameter.
                                                                             # Use all neighbours within 1.3 unit cell.

# get number of connections
compute coord_number all coord/atom orientorder q6 0.5

# An atom is solid if it has 8 or more connections (of a possible 14)
variable is_solid atom c_coord_number>=8
group solid dynamic all var is_solid    # Must be dynamic to update
dynamic group solid defined

# do clustering
compute cluster solid cluster/atom 1.3 # Create a cluster where all atoms within are solid and max 1.3 units from another member

# define chunks one chunk per cluster
compute clus_chunks solid chunk/atom c_cluster nchunk every compress yes  # Says which atoms are in which chunk

# count the size of each chunk
compute size_chunks solid property/chunk clus_chunks count


# Find the maximum entry in the vector of chunk sizes
variable max_n equal max(c_size_chunks)


# Thermo style which includes this variable
# thermo_style custom step temp pe vol v_max_n

thermo ${N}  # Print the thermo information every 100 steps
thermo 1000  

# Reset the npt fix at a lower temperature (below freezing)
fix 1  all npt temp  ${temp} ${temp}  0.1  iso  5.68  5.68  0.5  mtk yes tchain  5  pchain  5
fix 1  all npt temp  0.45 ${temp}  0.1  iso  5.68  5.68  0.5  mtk yes tchain  5  pchain  5
fix 1  all npt temp  0.45 0.45  0.1  iso  5.68  5.68  0.5  mtk yes tchain  5  pchain  5

dump dmp2 all dcd ${N} traj.dcd
dump dmp2 all dcd 1000 traj.dcd


compute msd all msd com yes
variable twopoint equal c_msd[4]/6/(step*dt+1.0e-6)
fix 9 all vector 10 c_msd[4]
variable fit equal slope(f_9)/6/(10*dt)
thermo_style custom step temp pe c_msd[4] v_twopoint v_fit v_max_n

fix 1 all npt temp 1.25 ${temp} 0.1 iso 5.68 5.68 0.5 mtk yes tchain 5 pchain 5
fix 1 all npt temp 1.25 0.45 0.1 iso 5.68 5.68 0.5 mtk yes tchain 5 pchain 5
run 500000 # 5000000  # Run for this many steps
Neighbor list info ...
  update every 1 steps, delay 10 steps, check yes
  max neighbors/atom: 2000, page size: 100000
  master list distance cutoff = 3.8
  ghost atom cutoff = 3.8
  binsize = 1.9, bins = 9 9 9
  4 neighbor lists, perpetual/occasional/extra = 1 3 0
  (1) pair lj/cut, perpetual
      attributes: half, newton on
      pair build: half/bin/atomonly/newton
      stencil: half/bin/3d
      bin: standard
  (2) compute orientorder/atom, occasional
      attributes: full, newton on
      pair build: full/bin/atomonly
      stencil: full/bin/3d
      bin: standard
  (3) compute coord/atom, occasional
      attributes: full, newton on
      pair build: full/bin/atomonly
      stencil: full/bin/3d
      bin: standard
  (4) compute cluster/atom, occasional
      attributes: full, newton on
      pair build: full/bin/atomonly
      stencil: full/bin/3d
      bin: standard
Per MPI rank memory allocation (min/avg/max) = 9.760 | 9.768 | 9.774 Mbytes
Step Temp PotEng c_msd[4] v_twopoint v_fit v_max_n 
   12000    1.2582939   -6.4055235            0            0 8.3333333e+20            2 
   13000    1.2490614   -6.3961624   0.54000496 0.0034615701  0.044625559            1 
   14000    1.2553944   -6.3897657    1.1110592 0.0066134472  0.045465683            2 
   15000    1.2488891   -6.3652823    1.6206791 0.0090037726  0.045700138            1 
   16000    1.2563842   -6.3806151    2.1242156  0.011063623  0.044285342            1 
   17000    1.2134826   -6.4307806    2.6098339  0.012793303  0.043554994            5 
   18000    1.2669259   -6.4443132      3.13256  0.014502592  0.043234823            4 
   19000    1.2189487   -6.4109919     3.547118  0.015557535  0.042534795            3 
   20000    1.2424198    -6.405283    3.9872723  0.016613634  0.041627927            3 
   21000    1.2388251   -6.4180131    4.5056756  0.017879665  0.041077194            1 
   22000    1.2190442   -6.3889972    4.9825278  0.018873211  0.040788704            2 
   23000     1.240218   -6.4276063    5.4584101  0.019776848   0.04069354            1 
   24000     1.216005   -6.4021846    5.9273069  0.020580926  0.040530437            4 
   25000    1.2238861   -6.4279154    6.4466134  0.021488711  0.040438192            3 
   26000    1.2100096   -6.4584229    6.9089496  0.022144069  0.040292057            2 
   27000    1.2227221   -6.4262379    7.3998004   0.02283889   0.04027373            2 
   28000     1.242671    -6.420998    7.7759906  0.023142829  0.040224652            2 
   29000     1.207303    -6.415858    8.2628426    0.0237438   0.04012645            2 
   30000    1.2278788    -6.406959    8.7918933  0.024421925  0.040030944            2 
   31000    1.2190675   -6.4497659    9.2507596  0.024867633  0.040013089            5 
   32000    1.1988895   -6.4619734    9.6652406  0.025169897  0.039907248            2 
   33000    1.2439847   -6.4581096    10.200309  0.025758356  0.039867024            2 
   34000     1.209902   -6.4904758    10.792126  0.026451289  0.039931708            2 
   35000    1.2080321   -6.4936828    11.272146  0.026838443  0.040006049            2 
   36000    1.2403679   -6.4679111    11.677223  0.027030609  0.040015264            2 
   37000    1.2034011   -6.4189924     12.32711   0.02776376  0.040037631            2 
   38000    1.2147064   -6.4538755    12.765109  0.027993659  0.040130585            4 
   39000    1.1807365   -6.4638858    13.213271  0.028233485  0.040165231            3 
   40000    1.1974039    -6.443377    13.705806  0.028553762   0.04018171            2 
   41000    1.2051441   -6.4624216     14.16859  0.028797947  0.040197468            1 
   42000    1.1867497   -6.4640236    14.764505  0.029294652  0.040265604            2 
   43000    1.2066329   -6.4518432    15.241457  0.029537706  0.040322846            2 
   44000    1.2235925   -6.4506411    15.734397  0.029799994  0.040355755            3 
   45000    1.1985263   -6.5312671    16.111937   0.02983692  0.040393292            2 
   46000    1.1886681   -6.4684771    16.709186  0.030270264  0.040420492            2 
   47000    1.2152798   -6.4977414    17.068849  0.030263916  0.040455897            3 
   48000    1.1924837   -6.5015925    17.508412  0.030396548  0.040429987            3 
   49000     1.175604   -6.5082896    17.927603   0.03048912  0.040383611            3 
   50000    1.1743707   -6.4923882    18.365382  0.030608969  0.040335043            2 
   51000    1.2090646   -6.4961862    18.939909  0.030947564  0.040310284            3 
   52000    1.2001714   -6.4908414    19.521504  0.031284461  0.040316414            3 
   53000    1.1566121   -6.4974096    19.938789  0.031350296  0.040325956            2 
   54000    1.1805018   -6.5130648    20.266287  0.031275133  0.040301771            2 
   55000    1.1760785   -6.5294238    20.650519  0.031288665  0.040250222            5 
   56000    1.1856054   -6.5534008    21.085964  0.031377922  0.040195618            2 
   57000     1.158657   -6.5268697      21.5284  0.031474268  0.040124698            3 
   58000     1.171129    -6.583189    22.019978    0.0316379  0.040058114            6 
   59000    1.1486015   -6.5344381    22.416883  0.031662264  0.039995688            2 
   60000    1.1703726   -6.5473782    22.691347   0.03151576  0.039921056            2 
   61000    1.1632742   -6.5412407     23.28003   0.03180332  0.039835664            1 
   62000    1.1920501   -6.5283873    23.717047  0.031877751  0.039757459            4 
   63000    1.1289843   -6.5547717    24.090007  0.031865089  0.039680573            2 
   64000    1.1490125    -6.534967    24.590005  0.032018236  0.039603439            3 
   65000    1.1741631   -6.5217473    25.062812  0.032131809  0.039542305            7 
   66000    1.1425877   -6.5271761    25.410561  0.032084041  0.039481147            2 
   67000    1.1647007   -6.5658616     25.94954  0.032275547  0.039400344            2 
   68000    1.1452961    -6.565169     26.18911  0.032094498  0.039308637            2 
   69000    1.1503333   -6.5597126    26.719517  0.032269948  0.039229032            2 
   70000      1.17636   -6.5593957    27.057079  0.032210808  0.039158205            2 
   71000     1.145023   -6.6024958    27.510164  0.032288925   0.03908501            3 
   72000    1.1573772   -6.5474159    27.883774  0.032272886  0.039003408            2 
   73000    1.1640992   -6.5586241    28.467532  0.032497183  0.038916592            3 
   74000    1.1600875    -6.563361    28.584595  0.032189859  0.038831487            1 
   75000    1.1701971   -6.5662788    28.921231    0.0321347  0.038739786            3 
   76000    1.1241972    -6.601766    29.357272  0.032189991  0.038641602            2 
   77000    1.1455271   -6.5955404    29.626504  0.032063316  0.038535863            4 
   78000    1.1444518   -6.5725423    30.243373  0.032311295   0.03844374            1 
   79000    1.1270218   -6.5757505    30.721777  0.032406938  0.038369069            2 
   80000    1.1439551   -6.5993422    31.232493  0.032533847  0.038295555            2 
   81000    1.1291239   -6.6271872    31.555157  0.032464153  0.038221421            2 
   82000    1.1246682   -6.5716993    31.970616  0.032490464  0.038150027            2 
   83000    1.1137854   -6.5718665    32.278609  0.032408241  0.038080806            3 
   84000    1.1160467   -6.5966486     32.63932  0.032380277  0.038001995            1 
   85000    1.1249403   -6.5959002    33.240836  0.032589055  0.037929723            3 
   86000    1.1352471   -6.6282286    33.736037  0.032689958  0.037866967            2 
   87000      1.14018   -6.6422299    34.103855  0.032666528  0.037808975            6 
   88000    1.1401724   -6.6346623     34.41704  0.032591894  0.037745587            4 
   89000    1.1168405   -6.6143646    34.569238    0.0323682  0.037675203            5 
   90000    1.1276197   -6.6374011    35.114271  0.032513213   0.03759822            6 
   91000     1.138641   -6.6257181    35.642715  0.032639848  0.037534105            1 
   92000    1.1325735   -6.6209336    36.242078  0.032827969  0.037483885            3 
   93000    1.1286131    -6.591126     36.62672  0.032819641  0.037434682            1 
   94000    1.0792482   -6.6183173    36.845713  0.032664639  0.037384141            1 
   95000    1.1311935   -6.5975986    37.275704  0.032697986  0.037326948            2 
   96000    1.1000851   -6.6097453     37.58844  0.032628854  0.037266542            2 
   97000    1.1402589   -6.6584614    38.108845  0.032739558   0.03720133            3 
   98000    1.1216269   -6.6305965    38.648012  0.032863955  0.037152462            4 
   99000    1.1024598    -6.648525    39.031488  0.032854788   0.03710834            2 
  100000    1.1130188   -6.7101652    39.484434  0.032903695  0.037070515            4 
  101000    1.1107586   -6.6796804    39.832623  0.032865201   0.03703466            3 
  102000    1.1179862   -6.6565788    40.223377  0.032862236  0.036993524            2 
  103000    1.1026758   -6.6364578    40.558791  0.032814555  0.036952324            2 
  104000    1.1039028   -6.6871309    40.979312  0.032835987  0.036905655            5 
  105000    1.1188814   -6.6963944    41.443003  0.032891272  0.036859586            2 
  106000    1.0954479   -6.6785757    41.813619  0.032872342  0.036811593            3 
  107000    1.0748696   -6.7062597    41.832745  0.032580019  0.036758028            3 
  108000    1.1059893   -6.6283556    42.302675  0.032640952  0.036700779            3 
  109000    1.1007083   -6.6884185     42.41666  0.032428639  0.036634675            1 
  110000    1.0811854   -6.7350501    42.798423  0.032423048  0.036565599            2 
  111000    1.0844537   -6.7092325      43.2267  0.032452477  0.036496827            3 
  112000    1.1061986    -6.685621     43.49306  0.032360908  0.036429175            2 
  113000    1.0962852   -6.6764446     43.83602  0.032327448  0.036354679            4 
  114000    1.0806411   -6.6821928    44.080016  0.032222234  0.036280722            3 
  115000       1.0766   -6.7353984    44.382189  0.032161007  0.036204582            4 
  116000    1.0967345    -6.689102    44.830382  0.032205734  0.036128853            1 
  117000    1.0855787   -6.6995412    45.256291  0.032233825  0.036056102            2 
  118000    1.0935562   -6.7583853    45.342887  0.032021813  0.035982143            2 
  119000    1.0832299   -6.6664883    45.960341  0.032185113  0.035909771            6 
  120000    1.0763483   -6.6818397    46.137013  0.032039592  0.035835559            4 
  121000    1.0578461   -6.7024524    46.235471  0.031842611  0.035755764            5 
  122000    1.0736847   -6.7549346     46.67926   0.03188474  0.035671099            2 
  123000    1.0909143   -6.7098593     46.99414  0.031838848  0.035590479            4 
  124000    1.1038683   -6.7104547    47.151789   0.03168803  0.035506143            5 
  125000    1.0734417   -6.7589367    47.347746  0.031565164  0.035421317            1 
  126000    1.0708481    -6.763741    47.711819  0.031555436  0.035336391            3 
  127000    1.0751346   -6.7379661    48.126564   0.03157911  0.035252174            3 
  128000    1.0652704   -6.7371309    48.618829  0.031652883  0.035172689            3 
  129000    1.0587417   -6.7399994     49.04714  0.031684199  0.035094546            4 
  130000    1.0525634   -6.7371925     49.11855   0.03148625  0.035014588            2 
  131000    1.0601222   -6.7710063    49.380015  0.031412223  0.034931982            2 
  132000    1.0678708   -6.7317547    49.750951  0.031408428  0.034852373            4 
  133000    1.0754957   -6.7785713    50.187188  0.031445607  0.034775006            2 
  134000    1.0524316   -6.7641793    50.562107  0.031444096  0.034701714            2 
  135000    1.0583744   -6.7296374    51.036043   0.03150373  0.034627598            5 
  136000    1.0664723   -6.7432907    51.179997  0.031360292   0.03455489            2 
  137000    1.0451026   -6.7935169     51.35687  0.031238972   0.03447966            3 
  138000    1.0366752   -6.7525123    51.666253  0.031199428  0.034400172            2 
  139000    1.0423353   -6.7931954     51.90672  0.031119137  0.034320221            2 
  140000    1.0427429   -6.7996734    52.047153  0.030980448  0.034237906            2 
  141000    1.0067265   -6.8022325    52.277688  0.030896979  0.034152532            5 
  142000    1.0175426    -6.772763    52.573491  0.030852988  0.034067831            2 
  143000    1.0357276    -6.825557    52.750568  0.030740424  0.033985515            4 
  144000    1.0340285   -6.7417654    53.087618  0.030722001  0.033900399            2 
  145000    1.0348011   -6.7584492    53.150603  0.030546324  0.033812757            2 
  146000    1.0302896   -6.7838202    53.638185  0.030615402  0.033723504            3 
  147000    1.0677475   -6.7947767    53.777814  0.030486289  0.033632279            2 
  148000    1.0366941   -6.7709867    53.989436  0.030399457  0.033543617            3 
  149000    1.0280463   -6.7870276     54.33397  0.030388126    0.0334541            2 
  150000    1.0447238   -6.7853798    54.474468  0.030263593  0.033363818            2 
  151000    1.0281402   -6.8415497    54.800522  0.030243113  0.033272849            5 
  152000    1.0268976   -6.7873045    54.809686   0.03004917  0.033181138            8 
  153000    1.0109947   -6.8260321    54.950639  0.029929542  0.033087867            2 
  154000    1.0375146   -6.8401294    55.198943  0.029869558  0.032992843            3 
  155000    1.0272634   -6.8298206    55.598526   0.02989168  0.032899252            2 
  156000    1.0262446   -6.8170012    55.809395  0.029812711  0.032808715            4 
  157000    1.0021904   -6.8498978    56.133089  0.029794633   0.03271435            4 
  158000   0.99909616   -6.8315435    56.330655  0.029710261  0.032620751            3 
  159000    1.0032232   -6.8603578    56.455417  0.029588793  0.032526702            1 
  160000    1.0295074   -6.8496181    56.561113  0.029458913  0.032432526            1 
  161000    1.0144872   -6.8251447    56.931638  0.029467721  0.032338266            5 
  162000   0.99472568   -6.8523168    57.063538  0.029353672  0.032242805            2 
  163000    1.0075517   -6.8581761    57.291148  0.029289953  0.032148901            3 
  164000   0.99016661   -6.8550783    57.659759  0.029298658  0.032055426            2 
  165000   0.99571023   -6.8631993      57.7658  0.029174646  0.031963249            6 
  166000    0.9936155   -6.8987829    58.094915  0.029164114  0.031872716            6 
  167000   0.99204124   -6.8604425     58.19862  0.029041228  0.031780135            2 
  168000   0.99419007   -6.8837729    58.535912   0.02903567  0.031687845            2 
  169000    1.0121224   -6.9031212    58.603799  0.028897337  0.031594901            2 
  170000   0.99711719   -6.8544791    58.804549  0.028825759  0.031500058            3 
  171000    1.0039365   -6.8958875     59.22446  0.028861823  0.031406839            4 
  172000   0.99805808   -6.8806351    59.353272   0.02875643  0.031316095            4 
  173000   0.97351047   -6.9062629    59.550456  0.028685191   0.03122481            1 
  174000    1.0060635   -6.9192513    59.687451  0.028585944  0.031133056            4 
  175000   0.98518449   -6.8544212     60.25677    0.0286937  0.031043731            6 
  176000   0.97690752   -6.8449943    60.607602  0.028696781  0.030957868            2 
  177000   0.97511184   -6.8817029    60.796717   0.02862369  0.030872751            1 
  178000   0.98454372   -6.9049691    60.819913  0.028473742  0.030787643            5 
  179000   0.99230677   -6.8745344    61.001784  0.028399341  0.030700906            3 
  180000   0.96328897   -6.8797549    61.239429  0.028351588  0.030614317            3 
  181000   0.98784389   -6.9224344    61.402305  0.028269938  0.030526467            3 
  182000    1.0014472   -6.9373271    61.556181  0.028185064  0.030441575            5 
  183000   0.97286486   -6.8972836    61.920613     0.028197  0.030356529            2 
  184000   0.96236391   -6.9106777     62.08624  0.028118768  0.030271799            5 
  185000     0.954073   -6.9345966     62.03052  0.027941676  0.030186443            9 
  186000   0.98108896   -6.9149482    62.604812  0.028048751  0.030101224            2 
  187000   0.95690088   -6.9200034    62.699477  0.027940944  0.030016232            4 
  188000   0.99136635   -6.9169107    62.827864   0.02784923  0.029932263            2 
  189000   0.95875173   -6.9175193     63.25064  0.027888289  0.029849048            5 
  190000   0.96373232   -6.9233855    63.081772  0.027667444  0.029764633            3 
  191000   0.94419802   -6.9551606    63.324224   0.02762837  0.029680503            4 
  192000     0.957926   -6.9511031    63.584073  0.027597254  0.029597055            3 
  193000   0.98962866   -6.9528169    63.636013  0.027476689  0.029514005            4 
  194000   0.97732915   -6.9763169    63.925709  0.027459497   0.02943059            2 
  195000    0.9514663   -6.9432688    64.112416  0.027398468  0.029346788            3 
  196000   0.94327543   -6.9815202    64.005339  0.027213154  0.029261759            5 
  197000   0.95142148   -6.9622956    64.405907  0.027244461    0.0291759            7 
  198000   0.94862922   -6.9851339    64.545347   0.02716555  0.029091708            2 
  199000   0.95610723   -6.9802894    64.418002  0.026975713  0.029007045            4 
  200000   0.94384069   -6.9467013    64.911864   0.02704661  0.028922703            3 
  201000    0.9665431   -6.9765944    65.178854  0.027022742  0.028841408            3 
  202000   0.95061274   -6.9770592    65.423973  0.026990088   0.02876166            2 
  203000   0.94367972   -6.9948744    65.641376  0.026946378  0.028681713            4 
  204000   0.94952974   -7.0039015    65.919617  0.026927948  0.028602392            5 
  205000   0.92638374   -6.9778971    65.956181  0.026811456  0.028524422            3 
  206000   0.93926918   -7.0001213    66.141495  0.026756268  0.028445489            4 
  207000   0.93921077   -6.9987758    66.448043   0.02675042  0.028366013            1 
  208000   0.93687923   -6.9942936    66.515855   0.02664898  0.028287388            4 
  209000   0.95392317   -6.9796041     66.69414   0.02659256  0.028210031            5 
  210000   0.92366509   -6.9922149    66.945517  0.026565681   0.02813043            4 
  211000   0.92495126   -6.9723915    67.129712  0.026512524  0.028051223            3 
  212000   0.92513892     -7.01972    67.237357  0.026429779  0.027973851            5 
  213000   0.93311224   -7.0064153    67.644769   0.02646509  0.027897096            2 
  214000   0.92414791   -7.0171975    67.646667   0.02634216  0.027822656            6 
  215000   0.91479467   -7.0160593    67.955346  0.026339281  0.027748501            3 
  216000   0.92122395   -7.0187357    68.002832  0.026235661  0.027674428            3 
  217000   0.92194908   -6.9933661    68.275397   0.02621943   0.02759968            4 
  218000   0.94336345   -7.0263673    68.305578  0.026110695  0.027524641            2 
  219000   0.92428507   -7.0372149    68.378727  0.026019302  0.027449149            3 
  220000   0.92060139   -6.9988705    68.515333  0.025952777  0.027373149            4 
  221000   0.93093748   -7.0538139    68.514177  0.025834908  0.027296741            2 
  222000    0.9135205   -7.0405285    68.663925  0.025774747  0.027219973            5 
  223000   0.89443188   -7.0318157    68.923138   0.02575603  0.027143732            5 
  224000   0.90013385   -7.0555851    68.848459  0.025613266  0.027068053            5 
  225000   0.91144779   -7.0527544    69.536892  0.025754404  0.026993382            3 
  226000    0.8847717   -7.0237037    69.610737  0.025667676  0.026919683            2 
  227000    0.9057382    -7.053267    69.859081  0.025645771  0.026846478            6 
  228000   0.91404719   -7.0433764    69.945484   0.02556487  0.026774338            7 
  229000   0.89634911   -7.0583046    70.164282  0.025532854  0.026702833            8 
  230000   0.88260502    -7.065884    70.310518  0.025474825  0.026631731            2 
  231000   0.92001645   -7.1071006    70.411312  0.025400906   0.02656156            5 
  232000   0.86856231   -7.0719531    70.702576   0.02539604  0.026491242            4 
  233000   0.92023982   -7.0734396    70.615965  0.025256068  0.026419536            3 
  234000    0.8764518    -7.075178    70.618258  0.025148952   0.02634708           10 
  235000   0.88826084   -7.0995474    70.964675  0.025164778  0.026274985            6 
  236000    0.9120389   -7.1259289    70.840389  0.025014262  0.026201987            3 
  237000   0.87449659   -7.0725151    71.067049  0.024988414  0.026128591            4 
  238000   0.89490877   -7.0535146    71.265278  0.024952828  0.026055679            4 
  239000   0.89252796   -7.0840767     71.19437  0.024823699  0.025982355            5 
  240000   0.88383104   -7.1306219    71.048109  0.024669482  0.025908392            3 
  241000   0.89472943   -7.0705596    71.369877  0.024678381  0.025834519            2 
  242000   0.87632937   -7.1436804    71.541025  0.024635339  0.025761463            5 
  243000   0.88857905   -7.1332193    71.472767  0.024510551  0.025688416            3 
  244000   0.87655571   -7.1021545    71.911997  0.024560108  0.025615682            3 
  245000   0.90129884   -7.1363669    72.032525  0.024500859  0.025543012            3 
  246000    0.8824316   -7.1140896    72.106288  0.024426249  0.025471461            3 
  247000   0.87481634   -7.1361744    72.306496  0.024394904   0.02539985            7 
  248000   0.84566685   -7.1514299    72.587809  0.024391065  0.025328206            4 
  249000   0.88647975   -7.1095368    72.677996  0.024323292  0.025257348            5 
  250000   0.86713541   -7.1437008    72.515908  0.024171969  0.025186623            5 
  251000   0.84850462   -7.1689176     72.50891  0.024073343  0.025115766            4 
  252000   0.84422593   -7.1347101    72.997107  0.024139255  0.025045734            9 
  253000   0.85655141   -7.1617482    72.989074  0.024041197  0.024976137            3 
  254000   0.87971445   -7.1532951    73.262961  0.024036405  0.024906413            3 
  255000   0.84979373   -7.1707096    73.274408  0.023945885   0.02483647            8 
  256000    0.8629346   -7.1543116    73.298198  0.023860091  0.024765997            5 
  257000   0.85451895   -7.1421849    73.500085  0.023832712  0.024695535            5 
  258000   0.84410809   -7.1351443    73.627238  0.023781408  0.024626331            2 
  259000   0.87363662   -7.1767971    73.621525  0.023687749  0.024556736            6 
  260000   0.86145206   -7.1886628     73.86557  0.023674862  0.024488155            3 
  261000   0.84686235   -7.1930488    74.250286  0.023706988  0.024420843            4 
  262000   0.82805167    -7.203418    74.270636  0.023622976  0.024354016            4 
  263000    0.8541214   -7.1691361    74.448397  0.023589479  0.024287128            3 
  264000   0.84244183   -7.1609237    74.519491  0.023522566   0.02421999            7 
  265000    0.8570493   -7.1900272    74.558552  0.023446086  0.024153539            1 
  266000   0.84824083   -7.1854396    74.874389  0.023456889  0.024088065            4 
  267000   0.82513466   -7.1802406    74.949302  0.023392416  0.024023183            3 
  268000   0.82562248    -7.183915    75.180208   0.02337693  0.023958485            9 
  269000   0.82737248   -7.1922691    75.143855  0.023278765  0.023894035            4 
  270000   0.83066161   -7.1814289    75.435205  0.023282471  0.023829555            4 
  271000   0.81664417   -7.2282319    75.378353  0.023179075  0.023765779            9 
  272000   0.83308758   -7.2279589    75.389641  0.023097316  0.023701242            7 
  273000   0.82593495   -7.2278237    75.521575  0.023052984  0.023636737            8 
  274000   0.82774077   -7.2501005    75.452415  0.022947815  0.023572101            7 
  275000   0.82941165   -7.2243796    75.816435  0.022974677  0.023508001           16 
  276000   0.80874625   -7.2242025    75.790498  0.022883604   0.02344367            6 
  277000   0.81790475   -7.2443833    75.898889  0.022833601  0.023379756           11 
  278000   0.82378049   -7.2481715    76.060279  0.022799844  0.023315725            3 
  279000   0.81930761   -7.2454055    75.999129  0.022699859  0.023252016            2 
  280000   0.82961518   -7.2066235    76.233882  0.022688655  0.023188526            9 
  281000   0.83820641   -7.2306916    76.274323  0.022619906  0.023124986           11 
  282000   0.80958853   -7.2673898    75.978475  0.022452268  0.023060447            9 
  283000    0.8302012   -7.2618603    76.382231  0.022491823  0.022996001            4 
  284000   0.80038232   -7.2377289    76.478477  0.022440867  0.022932571            6 
  285000   0.81321128   -7.2725481    76.237417  0.022291642   0.02286865            4 
  286000   0.81495355   -7.2682064    76.564417  0.022308979  0.022804264            7 
  287000   0.80692971   -7.3061765    76.696351  0.022269556  0.022740026            5 
  288000   0.79967243   -7.3156559    76.579783  0.022158502  0.022675938            8 
  289000   0.80440034    -7.263992    76.847105  0.022158911  0.022612404            3 
  290000   0.79977875   -7.2712094    76.898532  0.022097279   0.02254934            3 
  291000   0.79823464   -7.2701608    76.957746  0.022038301  0.022486662            4 
  292000   0.80470754   -7.2565712    76.979751  0.021969107  0.022424026            4 
  293000   0.80602935   -7.2766672    77.199307  0.021956572  0.022361243            4 
  294000   0.78506735   -7.2864597    77.103648  0.021854776  0.022298657            8 
  295000   0.78269846    -7.286311    77.326813  0.021843732  0.022235558            6 
  296000   0.77827209   -7.2985005     77.31717  0.021767221  0.022172718            3 
  297000   0.79018387   -7.2857464     77.39379  0.021715429  0.022110031            5 
  298000    0.7890346   -7.3067094    77.547215  0.021685463   0.02204755            5 
  299000     0.794968   -7.3070889    77.645828   0.02164042  0.021985392            6 
  300000   0.79107728   -7.3062255    77.735519    0.0215932  0.021923386            4 
  301000   0.79915243   -7.3167128    77.642068  0.021495589  0.021861215            8 
  302000    0.7931956   -7.3444448    77.690702  0.021437832  0.021799216            6 
  303000   0.76835554   -7.3321758    77.918541  0.021429742  0.021737225            4 
  304000   0.78151116   -7.3116661    78.114546  0.021412979  0.021676355            4 
  305000   0.77649023   -7.3272612    78.308791  0.021395844  0.021615875            5 
  306000    0.7726393   -7.2984748    78.177146  0.021290073  0.021555858            6 
  307000   0.77953062   -7.3288591    78.115888  0.021204096  0.021495256           13 
  308000   0.77343154   -7.3582175    78.224859  0.021164734  0.021435366           11 
  309000   0.78659567   -7.3467583    78.489305  0.021167558  0.021375421           16 
  310000   0.77070434   -7.3616864    78.556919  0.021117451  0.021315543            7 
  311000   0.76388674   -7.3711559    78.532771  0.021043079  0.021255989            9 
  312000    0.7605194    -7.357519    78.482293  0.020962151  0.021196385           10 
  313000   0.75992493   -7.3775823    78.484482  0.020895762   0.02113683           10 
  314000   0.78655189    -7.358883    78.741163  0.020897336  0.021076987           15 
  315000   0.76518067   -7.3849184    78.644753   0.02080549  0.021016767            7 
  316000   0.77412393   -7.3871724    78.664123  0.020744758  0.020956611            7 
  317000   0.77445365   -7.3812115    78.798043  0.020714522  0.020896385            6 
  318000   0.76582161   -7.3674382    78.830387  0.020657858  0.020836686            3 
  319000   0.75461777   -7.3936417    78.771411  0.020577693  0.020777106           10 
  320000   0.75266705   -7.3783588    78.948304  0.020559454  0.020717658           11 
  321000   0.74116579   -7.3845143    78.908153  0.020484983  0.020657928           11 
  322000   0.76506647   -7.3693964      78.9055  0.020420678  0.020598099            7 
  323000   0.75191395   -7.3852753    78.910082  0.020358638  0.020538658           12 
  324000   0.77075436   -7.3852729    79.255242  0.020384579  0.020479593           22 
  325000   0.75217452   -7.3994512    79.082092  0.020277459  0.020421244           14 
  326000    0.7342212   -7.3954563    79.380484  0.020291535  0.020363099            4 
  327000   0.74340936   -7.4216615    79.617179  0.020289801    0.0203052            7 
  328000   0.75508125     -7.38597    79.758507  0.020263848  0.020247851            5 
  329000   0.74230877   -7.4107176    79.489459  0.020134108  0.020190633            5 
  330000   0.74179268    -7.412356    79.481779  0.020071156  0.020133055            8 
  331000   0.73287334   -7.4285183    79.644161    0.0200514  0.020075937            5 
  332000   0.73373102   -7.4215307    79.660143  0.019995016  0.020019318            7 
  333000   0.71812421   -7.4258146    79.690984  0.019942689  0.019962365           10 
  334000   0.73872593   -7.4396799    79.784943  0.019906423  0.019905553            6 
  335000   0.73768755   -7.4217151     80.07566  0.019919318  0.019849433            4 
  336000   0.73187481   -7.4474057    79.981409  0.019836659  0.019793308            4 
  337000   0.74412308   -7.4594429    79.845926  0.019744294  0.019737245            5 
  338000   0.73125409   -7.4597632    79.849247  0.019686698  0.019680984            6 
  339000   0.72643013   -7.4845746    79.950035  0.019653401  0.019624815            3 
  340000   0.70685034   -7.4453603    80.158394  0.019646665  0.019568778            7 
  341000   0.73575967   -7.4631827     79.87253  0.019519191   0.01951294            8 
  342000   0.71646201   -7.4702941    80.143815   0.01952822  0.019457429            5 
  343000   0.71244455   -7.4835601    80.170385  0.019477742   0.01940184           15 
  344000   0.72826273    -7.485652    80.147948  0.019415685  0.019346175            4 
  345000   0.74308428   -7.4635799    80.149626  0.019359813  0.019290271           10 
  346000   0.71759218   -7.5041058    79.981209  0.019263297  0.019234538            7 
  347000   0.73111019   -7.4858443    80.166316  0.019252237  0.019178721            7 
  348000    0.7193144   -7.4919574    80.215951  0.019208801  0.019122781           11 
  349000   0.70198575   -7.5054442    80.333979  0.019181943  0.019067153            4 
  350000   0.69766572   -7.4892516    80.397368   0.01914223  0.019011627            7 
  351000   0.70668218   -7.5261442    80.184851  0.019037239  0.018956277            8 
  352000   0.71248198   -7.5068908    80.389383  0.019031577  0.018900637           10 
  353000   0.71612128   -7.5070238    80.272347  0.018950035  0.018845357            9 
  354000   0.71078149   -7.4945093    80.261879  0.018894039  0.018790404            9 
  355000   0.70852696   -7.5244738    80.445932  0.018884021  0.018735572            9 
  356000   0.69628147   -7.4809797    80.457849  0.018833766  0.018680942            6 
  357000   0.68535198   -7.4967195    80.510662  0.018793338  0.018626595           12 
  358000   0.70449045   -7.4903647     80.70874  0.018786951  0.018572279            4 
  359000   0.71084394   -7.5235677    80.665765  0.018724644  0.018518309            8 
  360000   0.70090608    -7.539551    80.718937  0.018684939  0.018464466            7 
  361000    0.6900902    -7.520171    80.501757  0.018583046  0.018410395            4 
  362000   0.68260987   -7.5355878    80.759295  0.018590998  0.018356921            4 
  363000      0.67359   -7.5288016    80.550982  0.018491961  0.018303235           10 
  364000   0.66923154   -7.5359356     80.66004  0.018466126  0.018249579            6 
  365000   0.67752012   -7.5265996    80.693881   0.01842326  0.018196095           13 
  366000   0.67529625   -7.4985999     80.80274  0.018397709  0.018142721            4 
  367000   0.68730251   -7.5444794    80.787351  0.018344085  0.018089657           16 
  368000   0.68104049   -7.5400123    80.697571  0.018273907  0.018036325           19 
  369000   0.68502537   -7.5492208    80.786784  0.018244531  0.017983292            8 
  370000   0.68219561   -7.5599699    80.719436  0.018180053  0.017930125            9 
  371000   0.68062646   -7.5578727    80.746142  0.018137049  0.017877226           14 
  372000    0.6778794   -7.5418979    80.712598  0.018080779  0.017824633           10 
  373000   0.66766108   -7.5720419    80.884924  0.018070805   0.01777216            4 
  374000   0.66928437   -7.5730907    80.942075  0.018035222  0.017720093            7 
  375000   0.66261371   -7.5835206    80.998923  0.017999761  0.017668351           13 
  376000   0.66838026   -7.5934538    81.001331  0.017952423  0.017616203           14 
  377000   0.66696862   -7.5951696    80.873351  0.017876514  0.017564039            9 
  378000   0.68679834   -7.5859169    80.951514  0.017846454  0.017512274           10 
  379000    0.6647922   -7.5839631    80.766661  0.017758721  0.017460515            8 
  380000   0.66599566   -7.6027044    80.885137  0.017737969  0.017408705           13 
  381000   0.65743214   -7.6024702    80.924119  0.017699939  0.017357135           12 
  382000   0.66048174   -7.6139747    80.913239   0.01765123  0.017305468           14 
  383000   0.66442844   -7.6000014    80.940121  0.017610992  0.017254057            5 
  384000   0.65135029   -7.6170483    80.813367  0.017537623  0.017202534            9 
  385000   0.65617454   -7.5966305    80.977308  0.017527556   0.01715123            8 
  386000   0.63399864   -7.6009579    80.853238  0.017455362  0.017100099            3 
  387000   0.64953646   -7.6199515    80.942374  0.017429452  0.017049097            4 
  388000   0.64860203   -7.6326062    81.042906  0.017406122   0.01699799            9 
  389000   0.64126824   -7.6139759    80.997518  0.017351653  0.016947202            6 
  390000   0.65264667   -7.6245998    81.008379  0.017309483  0.016896626            9 
  391000   0.64485025    -7.630326    81.013749  0.017266357  0.016846159            4 
  392000   0.64891946   -7.6400331    81.049851  0.017229985  0.016795776            7 
  393000   0.64354822   -7.6247156    81.064052  0.017189154  0.016745548            7 
  394000   0.64799405   -7.6214824    80.980303  0.017127814  0.016695433            7 
  395000   0.63709293   -7.6586243    81.080942  0.017105684  0.016645355           14 
  396000   0.64656924   -7.6287301    80.990619   0.01704348  0.016595469            9 
  397000   0.64759807   -7.6166749    81.189921  0.017042385  0.016545764            8 
  398000   0.63842756   -7.6371502    81.091465   0.01697895  0.016496234            6 
  399000   0.61902118   -7.6462931    81.021832  0.016921853    0.0164464           19 
  400000   0.64116824   -7.6524753    81.044681  0.016884309  0.016396785            7 
  401000   0.64723669   -7.6687221    81.124503  0.016858791   0.01634744            9 
  402000   0.64552128    -7.658044     81.11802   0.01681551  0.016298287            5 
  403000   0.62548612   -7.6743921    81.154731  0.016781375  0.016249394           11 
  404000   0.61492587   -7.6860315    81.129274  0.016734586  0.016200588           10 
  405000    0.6177561   -7.6792802    81.066563  0.016680363  0.016151711           10 
  406000   0.61665968    -7.672993    81.181925  0.016662957  0.016103213           16 
  407000   0.61901668   -7.6891049    81.122761  0.016609902  0.016054664            8 
  408000   0.60750431   -7.6793657     81.06422  0.016557234  0.016006265            8 
  409000   0.62776922   -7.7016889    81.041477  0.016512118  0.015957868            5 
  410000   0.62103409   -7.6764057    81.083459  0.016480378    0.0159097            7 
  411000   0.60973315   -7.7023314    81.126503  0.016449007  0.015861559            6 
  412000    0.5977857   -7.7051445    81.147936  0.016413418   0.01581352            6 
  413000   0.60252997   -7.7022542    81.127335  0.016369519  0.015765583           11 
  414000   0.60811462   -7.7233265    81.031314  0.016310651  0.015717795           19 
  415000   0.61637406   -7.7188376     80.95213  0.016255448  0.015669967            6 
  416000   0.59691074    -7.700268    80.946446  0.016215233  0.015622129            7 
  417000   0.58771629   -7.7140217    81.097016  0.016206438  0.015574571           18 
  418000   0.59540866   -7.7157064    80.998099  0.016147946  0.015527136           17 
  419000   0.61641173   -7.7389709    80.816552    0.0160733  0.015479755           10 
  420000   0.59808695    -7.729104    81.082928  0.016087883  0.015432524           11 
  421000   0.60051936   -7.7360087    81.037068  0.016040591  0.015385663            9 
  422000   0.59277822    -7.717233    81.029984  0.016001182  0.015338871            7 
  423000    0.5893253   -7.7063713    81.033229  0.015963993   0.01529226            6 
  424000    0.5941242   -7.7311916    81.073632  0.015934283  0.015245774           13 
  425000   0.60023041   -7.7137831    81.033332  0.015888889  0.015199385            7 
  426000   0.59706706    -7.732619     81.01573  0.015848147  0.015153187           13 
  427000   0.58269235   -7.7340323    81.035452  0.015814881  0.015107157           10 
  428000   0.59206465   -7.7712093    81.066594  0.015783994  0.015061142           11 
  429000   0.58751568    -7.751451    80.985988  0.015731544  0.015015089           11 
  430000   0.58400538   -7.7449162    81.029544    0.0157034  0.014969319           13 
  431000   0.57420039   -7.7713477    80.846107  0.015631498   0.01492359           11 
  432000   0.57261131   -7.7716306    80.815344   0.01558938  0.014877962           14 
  433000   0.58581084   -7.7725182    80.996608  0.015588262  0.014832397            9 
  434000   0.57349621    -7.750696    80.984803  0.015550077  0.014787139           12 
  435000   0.57182096   -7.7831554    80.846522  0.015487839  0.014741914           12 
  436000   0.57063023   -7.7682896    80.829458  0.015449055  0.014696791            8 
  437000   0.57260408    -7.772379    80.885314  0.015424354  0.014651966            9 
  438000   0.57442773   -7.7706797    80.937966  0.015399156   0.01460719           20 
  439000   0.57249845   -7.7809864    81.038732  0.015383206  0.014562583           10 
  440000   0.57190486   -7.7862259    80.853957  0.015313249  0.014517985           19 
  441000    0.5647188   -7.7894925    80.962535  0.015299043  0.014473498           25 
  442000   0.55931556   -7.7996293    80.860531  0.015245198  0.014429275            9 
  443000   0.56168377   -7.7994425    80.795129  0.015198482  0.014384966           18 
  444000   0.57089182   -7.7945331    80.928391  0.015189263  0.014340875           17 
  445000   0.55241947   -7.8127828    80.935871   0.01515653  0.014296996           13 
  446000   0.55510311   -7.8158862    80.747405  0.015087333  0.014253123           11 
  447000   0.54747999   -7.8142995    80.755294  0.015055051  0.014209495           11 
  448000    0.5512136   -7.8236672    80.761733  0.015022644   0.01416589           15 
  449000   0.55194104   -7.8042579    80.867624  0.015008839  0.014122447           13 
  450000    0.5505012    -7.805753    80.842816  0.014970892  0.014079138           19 
  451000   0.53621894   -7.8044252    80.880196  0.014944604  0.014035851           11 
  452000   0.54794512   -7.8125722    80.860842  0.014907972  0.013992821           23 
  453000   0.54197302   -7.8120781    80.839714  0.014871176  0.013949883           14 
  454000   0.55151883   -7.8299064     80.74176  0.014820441  0.013907101           24 
  455000   0.53395001   -7.8433682    80.751984  0.014789741  0.013864387           22 
  456000   0.53198244   -7.8183647      80.7451  0.014756049  0.013821758           14 
  457000   0.55375732   -7.8308415    80.668457  0.014709784  0.013779261           14 
  458000   0.54746086   -7.8510939    80.696333  0.014682739  0.013736944           19 
  459000   0.53485687   -7.8260383    80.646671  0.014641734  0.013694771           17 
  460000   0.53398161   -7.8401628    80.753921  0.014629333  0.013652874           15 
  461000   0.52603246   -7.8500727    80.743099  0.014595643   0.01361101           30 
  462000   0.54051919   -7.8542761    80.511119  0.014522208  0.013569107           16 
  463000   0.52136357   -7.8494395    80.675588  0.014520444  0.013527398           12 
  464000   0.52404025   -7.8858802    80.723209  0.014497703  0.013485792           19 
  465000   0.52448059   -7.8541051    80.575788  0.014440105   0.01344432           13 
  466000   0.51197703   -7.8835776    80.551261  0.014404732  0.013402985           20 
  467000   0.50295693    -7.891899    80.645107  0.014390633  0.013361804           16 
  468000   0.51450705   -7.8598165    80.594596   0.01435089  0.013320817           13 
  469000   0.50308839   -7.8648114    80.748645  0.014347663  0.013279911           12 
  470000   0.52675796   -7.8827446    80.679778  0.014304925  0.013239118           19 
  471000   0.53088675   -7.8868096    80.627683  0.014265337  0.013198406           20 
  472000   0.52279605   -7.8789844    80.576316  0.014226044  0.013157903           20 
  473000   0.51664513   -7.8753771     80.52854  0.014187551  0.013117391           17 
  474000   0.50895038   -7.8749536    80.434048  0.014141007  0.013077087           12 
  475000   0.51911673   -7.8912939     80.46089  0.014115946  0.013036911           14 
  476000   0.49739295   -7.9030233    80.505531  0.014094106  0.012996901           12 
  477000   0.50015161   -7.8844076    80.447797  0.014054472  0.012956977           12 
  478000   0.48926849   -7.8847525    80.645802  0.014059589   0.01291717           18 
  479000   0.50920428   -7.9114458    80.509686  0.014006556  0.012877539           14 
  480000   0.50581122   -7.8982103    80.345997  0.013948958  0.012838015           13 
  481000   0.49516231   -7.9075691     80.53193  0.013952171  0.012798674           11 
  482000   0.49894512   -7.8923198    80.488932  0.013915791  0.012759454           15 
  483000   0.49086775   -7.9192684    80.428757  0.013876597  0.012720309            9 
  484000   0.50566171   -7.8929698    80.593203   0.01387624  0.012681425           16 
  485000   0.48776177   -7.9165625    80.407744  0.013815764  0.012642768           19 
  486000   0.48728914   -7.9215351     80.37996  0.013782572  0.012604183           14 
  487000   0.48386111   -7.9027698    80.470133  0.013769701  0.012565749           18 
  488000   0.49508668   -7.9119775    80.356367  0.013722057  0.012527425           15 
  489000   0.47838855   -7.9050607     80.42794  0.013706193   0.01248919           10 
  490000    0.4898306   -7.9209347    80.385329  0.013670974  0.012451074           10 
  491000   0.47682327   -7.9283288    80.269084  0.013623402  0.012413078           12 
  492000   0.48635005    -7.928668    80.496886  0.013634296  0.012375183           11 
  493000    0.4839494    -7.927462    80.292487   0.01357209   0.01233748           23 
  494000   0.48113611   -7.9404082     80.29584  0.013545182  0.012299953           22 
  495000   0.48314635   -7.9302646    80.443265  0.013542637  0.012262485           15 
  496000   0.46773505   -7.9492272    80.413735  0.013510372  0.012225112           11 
  497000    0.4681527   -7.9358441    80.491149  0.013496168  0.012187971           24 
  498000   0.47721718   -7.9339517    80.428034  0.013458506  0.012150934           16 
  499000   0.47635662   -7.9557102     80.42388  0.013430842   0.01211404           16 
  500000   0.47121602   -7.9338392    80.217266  0.013369544  0.012077292           18 
  501000   0.47371236   -7.9566518    80.329828  0.013361582  0.012040649            8 
  502000   0.45165015   -7.9455409    80.313047  0.013332179  0.012004172           15 
  503000   0.46543447   -7.9488869    80.342933  0.013310625  0.011967839           15 
  504000   0.46447994    -7.959799    80.222227  0.013264257  0.011931566           18 
  505000   0.45879192   -7.9431598    80.275841  0.013246838  0.011895425           17 
  506000   0.45851297   -7.9695857    80.246459   0.01321582  0.011859353           23 
  507000   0.45665151   -7.9508188    80.394485  0.013214084   0.01182346           14 
  508000   0.45738879   -7.9616462    80.243134  0.013163244  0.011787662           17 
  509000   0.46083322   -7.9613132    80.211778  0.013132249  0.011752014           11 
  510000   0.45742862   -7.9603355    80.086604  0.013086046  0.011716448           18 
  511000   0.45306397   -7.9821053    80.170875  0.013074181  0.011680994           26 
  512000   0.44857392   -7.9689269    80.239689  0.013059845  0.011645667           14 
Loop time of 1127.67 on 48 procs for 500000 steps with 4000 atoms

Performance: 76617.883 tau/day, 443.391 timesteps/s
99.4% CPU use with 48 MPI tasks x no OpenMP threads

MPI task timing breakdown:
Section |  min time  |  avg time  |  max time  |%varavg| %total
---------------------------------------------------------------
Pair    | 66.313     | 72.01      | 76.997     |  26.5 |  6.39
Neigh   | 6.999      | 7.2518     | 7.5151     |   4.1 |  0.64
Comm    | 64.242     | 70.157     | 76.014     |  29.2 |  6.22
Output  | 0.82831    | 0.82877    | 0.83766    |   0.1 |  0.07
Modify  | 959.95     | 964.35     | 968.05     |   6.0 | 85.52
Other   |            | 13.08      |            |       |  1.16

Nlocal:        83.3333 ave          97 max          76 min
Histogram: 2 10 11 12 3 2 6 1 0 1
Nghost:        1869.98 ave        1886 max        1853 min
Histogram: 2 1 4 9 8 8 6 3 3 4
Neighs:        11647.2 ave       13513 max       10030 min
Histogram: 1 2 5 13 9 7 3 4 2 2
FullNghs:      23295.4 ave       27627 max       21239 min
Histogram: 4 10 13 10 1 4 5 0 0 1

Total # of neighbors = 1118178
Ave neighs/atom = 279.54450
Neighbor list builds = 26929
Dangerous builds = 0

#clear
#
#next RN
#
#jump SELF
Total wall time: 0:18:50
