
units lj                  # Use reduced LJ style units
atom_style atomic         # Uncharged point particles
atom_modify map hash      # Needed for indexing of clusters etc
                          # Used to be able to find where atoms are in relation to each other.

# Define a lattice with which to populate the simulation cell. With units
# set to 'lj' the second argument to the lattice command is the reduced
# density rho* and the spacings are multiples of that required to acheive
# that density. Also define a simulation cell called 'box' in lattice units
# and fill it with atoms. Here we're creating a box which is ten lattice
# constants in each direction.
lattice fcc 1.0 spacing 1 1 1                 # All equal sizes - gives the right reduced density.
Lattice spacing in x,y,z = 1.5874011 1.5874011 1.5874011

region box block 0 10 0 10 0 10 units lattice # Defines a region, "box", in lattice units
create_box 1 box                              # Creates a simulation box as specified above,
Created orthogonal box = (0.0000000 0.0000000 0.0000000) to (15.874011 15.874011 15.874011)
  4 by 4 by 4 MPI processor grid
                                              # with one type of atom
create_atoms 1 box                            # Creates particles on lattice points
Created 4000 atoms
  using lattice units in orthogonal box = (0.0000000 0.0000000 0.0000000) to (15.874011 15.874011 15.874011)
  create_atoms CPU = 0.002 seconds


# Set the mass of the first (and only) atom type.
mass 1 1.0

# Lennard-Jones interactions between particles, 3.5 sigma cut-off. Apply
# long range tail corrections to energy and pressure and set all coefficients
# to unity since we work in reduced units here. Note that this doesn't shift
# the potential such that it goes to zero at the cutoff. That would require
# pair_modify('shift', 'yes').
pair_style lj/cut  3.5      # non-GPU version
pair_modify tail  yes
pair_coeff 1  1  1.0  1.0   # Intearaction between 1 and 1 set with epsilon = 1 and sigma = 1

write_data data.*
System init for write_data ...
Neighbor list info ...
  update every 1 steps, delay 10 steps, check yes
  max neighbors/atom: 2000, page size: 100000
  master list distance cutoff = 3.8
  ghost atom cutoff = 3.8
  binsize = 1.9, bins = 9 9 9
  1 neighbor lists, perpetual/occasional/extra = 1 0 0
  (1) pair lj/cut, perpetual
      attributes: half, newton on
      pair build: half/bin/atomonly/newton
      stencil: half/bin/3d
      bin: standard

#############################
#   M E L T   S Y S T E M   #
#############################

velocity all create 2.4 5300450 mom yes dist gaussian # Assign velocities
                                                    # Temperature 2.4, random number seed, zero linear momentum
						                                                        # Gaussian distribution

timestep 0.002   # simulation timestep
thermo 100       # output thermodynamic data every 100 steps

# Define a fix  in this case with index 1 applied to all
# particles in the simulation. This fix is for simulations
# in the anisotropic NPT ensemble. Note that we use the MTK
# correction.
fix 1 all npt temp 2.4 2.4 0.1 iso 5.68 5.68 0.5 mtk yes tchain 5 pchain 5 # Use NPT ensemble
                                                                         # Set temperature and pressure and damping
                                                                         # Numbers of thermostats in chain and in barostat
run 1000         # run for 10000 steps
Per MPI rank memory allocation (min/avg/max) = 3.630 | 3.630 | 3.630 Mbytes
Step Temp E_pair E_mol TotEng Press Volume 
       0          2.4   -8.3859253            0   -4.7868253   -2.2405722         4000 
     100    1.2568457    -6.520638            0   -4.6358408    5.4054415    4090.5418 
     200    1.4749962   -6.3123998            0   -4.1004586    5.9706789    4139.2832 
     300    1.6124068   -6.0569481            0   -3.6389426    5.7397492    4264.5301 
     400    1.7168752   -5.7431758            0   -3.1685069    5.9205944    4390.8204 
     500    1.7900089   -5.4300953            0   -2.7457532    5.8244207    4548.9907 
     600    1.8749878   -5.1356604            0   -2.3238818    5.7834378    4705.6354 
     700    1.9882515   -4.8678934            0   -1.8862617    5.9915018     4837.506 
     800    2.1327811   -4.6988753            0   -1.5005035    5.7798366    4974.3967 
     900    2.2952123   -4.5871705            0   -1.1452128    5.7568633    5062.5276 
    1000    2.3419515   -4.4435081            0  -0.93145903    5.7034406     5160.776 
Loop time of 0.201809 on 64 procs for 1000 steps with 4000 atoms

Performance: 856254.152 tau/day, 4955.174 timesteps/s
99.0% CPU use with 64 MPI tasks x no OpenMP threads

MPI task timing breakdown:
Section |  min time  |  avg time  |  max time  |%varavg| %total
---------------------------------------------------------------
Pair    | 0.059039   | 0.062785   | 0.066872   |   0.7 | 31.11
Neigh   | 0.013934   | 0.01467    | 0.015614   |   0.3 |  7.27
Comm    | 0.089928   | 0.094597   | 0.098776   |   0.6 | 46.87
Output  | 0.0003309  | 0.00033974 | 0.00040569 |   0.0 |  0.17
Modify  | 0.02454    | 0.027336   | 0.029984   |   0.8 | 13.55
Other   |            | 0.002081   |            |       |  1.03

Nlocal:        62.5000 ave          69 max          56 min
Histogram: 7 2 3 12 7 7 13 5 2 6
Nghost:        1253.14 ave        1273 max        1234 min
Histogram: 2 7 6 8 11 5 9 8 7 1
Neighs:        5540.11 ave        6253 max        4768 min
Histogram: 2 5 5 12 10 8 5 5 7 5

Total # of neighbors = 354567
Ave neighs/atom = 88.641750
Neighbor list builds = 87
Dangerous builds = 24

# Equilibrate just above the melting temperature to avoid step fn in T

fix 1 all npt temp 1.25 1.25 0.1 iso 5.68 5.68 0.5 mtk yes tchain 5 pchain 5
run 1000
Per MPI rank memory allocation (min/avg/max) = 3.631 | 3.631 | 3.631 Mbytes
Step Temp E_pair E_mol TotEng Press Volume 
    1000    2.3419515   -4.4435081            0  -0.93145903    5.7034406     5160.776 
    1100    1.9505664   -4.6860744            0   -1.7609562    5.6875043    4990.5455 
    1200    1.7145364   -4.9478458            0   -2.3766842    5.6803952    4813.9806 
    1300    1.5789627   -5.2178493            0   -2.8499973     5.626771    4671.2595 
    1400     1.466042   -5.4083802            0    -3.209867    5.7430009    4553.7478 
    1500    1.3483489   -5.5238765            0   -3.5018588    5.7608991    4484.5069 
    1600    1.3065005   -5.6674797            0   -3.7082189    5.6719356    4427.5375 
    1700    1.2613667   -5.7293973            0   -3.8378202     5.676448    4393.2208 
    1800    1.2706154   -5.8058844            0   -3.9004378    5.6537836    4362.5534 
    1900    1.2416506   -5.8085169            0   -3.9465067    5.6540218    4357.9646 
    2000    1.2530204     -5.85012            0   -3.9710592    5.4158949    4363.6997 
Loop time of 0.191272 on 64 procs for 1000 steps with 4000 atoms

Performance: 903425.153 tau/day, 5228.155 timesteps/s
99.9% CPU use with 64 MPI tasks x no OpenMP threads

MPI task timing breakdown:
Section |  min time  |  avg time  |  max time  |%varavg| %total
---------------------------------------------------------------
Pair    | 0.058092   | 0.061815   | 0.065606   |   0.7 | 32.32
Neigh   | 0.01195    | 0.012616   | 0.013264   |   0.3 |  6.60
Comm    | 0.084268   | 0.089503   | 0.094082   |   0.6 | 46.79
Output  | 0.00030518 | 0.00031064 | 0.00036648 |   0.0 |  0.16
Modify  | 0.022577   | 0.024681   | 0.026909   |   0.7 | 12.90
Other   |            | 0.002347   |            |       |  1.23

Nlocal:        62.5000 ave          68 max          53 min
Histogram: 1 1 3 0 5 10 20 8 12 4
Nghost:        1399.92 ave        1420 max        1382 min
Histogram: 6 4 6 9 5 11 12 6 2 3
Neighs:        6535.45 ave        7153 max        5253 min
Histogram: 1 0 2 4 2 9 13 19 7 7

Total # of neighbors = 418269
Ave neighs/atom = 104.56725
Neighbor list builds = 74
Dangerous builds = 4


# Small amount of linear quench

fix 1 all npt temp 1.25 ${temp} 0.1 iso 5.68 5.68 0.5 mtk yes tchain 5 pchain 5
fix 1 all npt temp 1.25 2 0.1 iso 5.68 5.68 0.5 mtk yes tchain 5 pchain 5
run 2000
Per MPI rank memory allocation (min/avg/max) = 3.631 | 3.631 | 3.631 Mbytes
Step Temp E_pair E_mol TotEng Press Volume 
    2000    1.2530204     -5.85012            0   -3.9710592    5.4158949    4363.6997 
    2100      1.26251   -5.8266282            0   -3.9333366    5.5199631    4363.2481 
    2200    1.3096913   -5.7896722            0   -3.8256263    5.5560913     4379.442 
    2300     1.343921     -5.75881            0   -3.7434325    5.5995173    4389.3965 
    2400    1.3439632   -5.6782577            0   -3.6628168    5.5606006    4430.4079 
    2500     1.429823   -5.6857125            0   -3.5415143    5.5138366    4440.0775 
    2600    1.4474775   -5.6187304            0   -3.4480569    5.6291127    4456.7018 
    2700    1.4761371   -5.5611536            0   -3.3475014    5.6784843    4484.9478 
    2800     1.496253   -5.4768767            0   -3.2330584    5.7396278    4518.6059 
    2900    1.5333873   -5.4287859            0   -3.1292799    5.5948143    4558.0311 
    3000    1.5877038    -5.374894            0   -2.9939338     5.635461    4586.2659 
    3100    1.6192593   -5.3122702            0   -2.8839885    5.7734385    4605.5173 
    3200    1.6571349   -5.2577292            0   -2.7726483    5.6065736    4649.3625 
    3300    1.6824122   -5.2032991            0   -2.6803117    5.5673525    4682.1576 
    3400    1.7476604   -5.1383204            0   -2.5174852    5.8515463    4690.8787 
    3500    1.7710478   -5.0976183            0   -2.4417107    5.6851524    4739.4482 
    3600    1.8326399   -5.0600134            0   -2.3117408    5.6400479    4766.3282 
    3700    1.8432787   -4.9865863            0   -2.2223595     5.587921    4811.6703 
    3800    1.8783071   -4.9459402            0   -2.1291839    5.5756305    4838.4353 
    3900    1.9394559   -4.9013306            0   -1.9928742    5.7311923    4851.1353 
    4000    1.9644231   -4.8153062            0   -1.8694083    5.9408945     4871.727 
Loop time of 0.387553 on 64 procs for 2000 steps with 4000 atoms

Performance: 891749.212 tau/day, 5160.586 timesteps/s
99.8% CPU use with 64 MPI tasks x no OpenMP threads

MPI task timing breakdown:
Section |  min time  |  avg time  |  max time  |%varavg| %total
---------------------------------------------------------------
Pair    | 0.11756    | 0.12322    | 0.12844    |   0.6 | 31.80
Neigh   | 0.024472   | 0.025467   | 0.026458   |   0.2 |  6.57
Comm    | 0.17218    | 0.18125    | 0.18985    |   0.7 | 46.77
Output  | 0.00062887 | 0.00063918 | 0.00074022 |   0.0 |  0.16
Modify  | 0.048582   | 0.052196   | 0.057138   |   0.9 | 13.47
Other   |            | 0.004775   |            |       |  1.23

Nlocal:        62.5000 ave          68 max          56 min
Histogram: 2 1 7 4 10 17 5 8 6 4
Nghost:        1304.28 ave        1322 max        1284 min
Histogram: 2 2 3 13 8 10 12 7 3 4
Neighs:        5853.03 ave        6442 max        5028 min
Histogram: 1 1 3 11 5 14 8 9 6 6

Total # of neighbors = 374594
Ave neighs/atom = 93.648500
Neighbor list builds = 148
Dangerous builds = 4

#############################
# F R E E Z E  S Y S T E M  #
#############################

# Define solid atoms. This closely follows ten Wolde  Ruiz-Montero and Frenkel  Faraday Discuss  1996  104  93-110
# Compute components of the per-atom q6 vector
compute q6 all orientorder/atom degrees 1 6 components 6 nnn NULL cutoff 1.3 # compute the Q6 parameter.
                                                                             # Use all neighbours within 1.3 unit cell.

# get number of connections
compute coord_number all coord/atom orientorder q6 0.5

# An atom is solid if it has 8 or more connections (of a possible 14)
variable is_solid atom c_coord_number>=8
group solid dynamic all var is_solid    # Must be dynamic to update
dynamic group solid defined

# do clustering
compute cluster solid cluster/atom 1.3 # Create a cluster where all atoms within are solid and max 1.3 units from another member

# define chunks one chunk per cluster
compute clus_chunks solid chunk/atom c_cluster nchunk every compress yes  # Says which atoms are in which chunk

# count the size of each chunk
compute size_chunks solid property/chunk clus_chunks count


# Find the maximum entry in the vector of chunk sizes
variable max_n equal max(c_size_chunks)


# Thermo style which includes this variable
thermo_style custom step temp pe vol v_max_n

thermo ${N}  # Print the thermo information every 100 steps
thermo 100  

# Reset the npt fix at a lower temperature (below freezing)
fix 1  all npt temp  ${temp} ${temp}  0.1  iso  5.68  5.68  0.5  mtk yes tchain  5  pchain  5
fix 1  all npt temp  2 ${temp}  0.1  iso  5.68  5.68  0.5  mtk yes tchain  5  pchain  5
fix 1  all npt temp  2 2  0.1  iso  5.68  5.68  0.5  mtk yes tchain  5  pchain  5

dump dmp2 all dcd ${N} traj_${rand}.dcd
dump dmp2 all dcd 100 traj_${rand}.dcd
dump dmp2 all dcd 100 traj_462431.dcd


# fix rnuntil all halt ${N} v_max_n >= 3980 error soft message no   # Stop when solidified


run 100000 # 5000000  # Run for this many steps
Neighbor list info ...
  update every 1 steps, delay 10 steps, check yes
  max neighbors/atom: 2000, page size: 100000
  master list distance cutoff = 3.8
  ghost atom cutoff = 3.8
  binsize = 1.9, bins = 9 9 9
  4 neighbor lists, perpetual/occasional/extra = 1 3 0
  (1) pair lj/cut, perpetual
      attributes: half, newton on
      pair build: half/bin/atomonly/newton
      stencil: half/bin/3d
      bin: standard
  (2) compute orientorder/atom, occasional
      attributes: full, newton on
      pair build: full/bin/atomonly
      stencil: full/bin/3d
      bin: standard
  (3) compute coord/atom, occasional
      attributes: full, newton on
      pair build: full/bin/atomonly
      stencil: full/bin/3d
      bin: standard
  (4) compute cluster/atom, occasional
      attributes: full, newton on
      pair build: full/bin/atomonly
      stencil: full/bin/3d
      bin: standard
Per MPI rank memory allocation (min/avg/max) = 9.291 | 9.296 | 9.301 Mbytes
Step Temp PotEng Volume v_max_n 
    4000    1.9644231   -4.8153062     4871.727            2 
    4100    1.9926051   -4.7761538    4902.6932            1 
    4200     2.004102   -4.7916951    4931.6058            1 
    4300    1.9418221    -4.801181    4916.3654            1 
    4400    2.0016378   -4.7877701    4887.2964            1 
    4500    1.9710246    -4.803702    4906.6078            1 
    4600     1.994282   -4.7538002    4956.5977            1 
    4700    2.0063977   -4.7263902    4914.7146            1 
    4800    1.9737408   -4.7785857    4918.4763            1 
    4900    1.9993559   -4.8389109    4945.7012            2 
    5000    1.9788079   -4.8125337    4893.0226            1 
    5100    2.0218905   -4.7959131    4895.2948       -1e+20 
    5200    2.0111486   -4.7899374    4949.7554            1 
    5300    2.0319669   -4.8047701    4958.6492       -1e+20 
    5400    1.9825676    -4.756961    4904.9009            1 
    5500    1.9849964   -4.8393275    4917.5976            2 
    5600    2.0330875   -4.8853778    4919.8728            3 
    5700    2.0310392   -4.8094324     4911.836            1 
    5800    1.9741281   -4.7618274    4929.3566            1 
    5900    1.9404599   -4.7921695    4899.4159       -1e+20 
    6000    2.0183088   -4.7984876    4906.2512       -1e+20 
    6100    1.9749493   -4.8138594    4917.7804            1 
    6200    1.9285771   -4.8067415    4867.6467            1 
    6300     1.962104   -4.8128986    4886.9372            2 
    6400    2.0114462   -4.8128332    4900.0877            1 
    6500     2.047795   -4.8338428    4947.7149            1 
    6600    1.9905302   -4.7602899     4972.846            1 
    6700    2.0115218   -4.8448633    4897.5589            1 
    6800    1.9832803   -4.8424385    4906.3407            1 
    6900    1.9575006   -4.7404922    4925.4403            1 
    7000    2.0217731   -4.7758141    4952.0052            2 
    7100    1.9621258   -4.7914089    4911.9165            1 
    7200    1.9876378   -4.7922994    4937.4735            1 
    7300    2.0491389   -4.8114001    4926.5203            2 
    7400    1.9654216   -4.8015967    4935.2221            2 
    7500    2.0504078   -4.7965697    4884.9229            1 
    7600    1.9708897    -4.800062    4911.0474            2 
    7700    1.9637743   -4.8172975    4928.0988            1 
    7800    2.0523572   -4.7733814    4890.4405            2 
    7900    1.9946453   -4.8251245    4920.7574            1 
    8000    1.9699782    -4.848864    4929.9492            1 
    8100    2.0178318   -4.7805641    4902.5007            1 
    8200    1.9647379   -4.7612641    4942.2783       -1e+20 
    8300    2.0158401   -4.7455313    4961.7384            1 
    8400    2.0311234   -4.7836301    4934.5296            1 
    8500    2.0131346   -4.8417677    4916.2328            1 
    8600     2.014446   -4.7850697    4930.8501       -1e+20 
    8700    1.9847384     -4.76708    4910.6594            1 
    8800    1.9640565   -4.7743254    4905.1554            1 
    8900     2.013448      -4.7692    4945.9342            1 
    9000     1.971151   -4.7528457    4923.4849            1 
    9100    1.9793419   -4.8510616    4900.1263            1 
    9200    2.0478188   -4.8572344    4896.5717       -1e+20 
    9300    1.9987128   -4.8072094    4925.7708       -1e+20 
    9400    2.0277851   -4.7736908     4942.971            2 
    9500    1.9988967   -4.8186338    4921.2259            1 
    9600    2.0012644   -4.8572319    4885.1349            1 
    9700    2.0057786    -4.819967    4890.3268            2 
    9800    1.9608555   -4.7756459    4944.7086            3 
    9900    2.0343893   -4.7798198    4912.6289            1 
   10000    2.0233555   -4.8238684    4911.2418            1 
   10100    1.9615927   -4.8131774    4943.5694            1 
   10200    2.0113296   -4.7676356    4892.2907            1 
   10300    2.0008387   -4.8469897    4915.4106       -1e+20 
   10400    1.9735031   -4.8082535    4898.2407            1 
   10500    1.9926733   -4.7659733    4910.7412            2 
   10600    1.9869723   -4.7486803     4936.927            1 
   10700    2.0094596   -4.7280475     4948.148            1 
   10800    2.0088215   -4.8060285    4913.7246            1 
   10900    2.0058287   -4.8109193    4918.6106            1 
   11000    2.0125029   -4.7434103    4967.9392            1 
   11100    2.0080042   -4.7723913    4923.0432            1 
   11200    2.0077875   -4.8276348    4909.5434            2 
   11300    2.0235927   -4.8049006    4918.8829            2 
   11400    2.0317574   -4.7840305    4973.7431            1 
   11500    2.0068672    -4.810272    4907.1684            1 
   11600    1.9869032   -4.7831459    4936.2559            1 
   11700    2.0233368   -4.8128592    4920.9521            2 
   11800    1.9552908   -4.7563603    4908.4311            1 
   11900    1.9978167   -4.7483066    4919.3846            1 
   12000    1.9810246   -4.7886414     4926.246            2 
   12100    2.0149988    -4.806029    4911.9905            1 
   12200    1.9529176   -4.8245627    4908.5596       -1e+20 
   12300    2.0320078   -4.8250253    4890.0025            1 
   12400    2.0096526   -4.7845704     4950.636            1 
   12500    2.0022454   -4.8153536    4941.5217            1 
   12600     2.031763   -4.8010802     4893.365       -1e+20 
   12700    1.9684658   -4.8226171    4932.3855            1 
   12800    2.0088603   -4.8198596    4930.3613       -1e+20 
   12900    2.0302153   -4.7518134    4904.7343            1 
   13000    1.9736769   -4.8153115    4942.1964            1 
   13100    2.0223336   -4.7731389     4921.082       -1e+20 
   13200    1.9656739   -4.7887097    4924.9819       -1e+20 
   13300    2.0106394   -4.7726822    4924.3789            1 
   13400    1.9918414   -4.7789231    4928.6576            1 
   13500    2.0089463   -4.7454872    4935.1273       -1e+20 
   13600    1.9925856   -4.7562451    4937.3883       -1e+20 
   13700    2.0155093    -4.813754    4914.9524            1 
   13800    1.9541627   -4.8111701    4883.8302            1 
   13900    1.9879041   -4.8312077    4894.6435            1 
   14000    2.0218384    -4.810894    4929.1319            1 
   14100    2.0029349   -4.8266132     4919.007       -1e+20 
   14200    1.9976335    -4.818166     4884.038            1 
   14300    1.9817438   -4.8093283    4907.1191            2 
   14400    1.9686942   -4.8244067    4935.1595            1 
   14500    2.0504721   -4.8025252    4924.1848            1 
   14600    2.0272835   -4.8270536    4930.7952            1 
   14700    1.9534859   -4.8338192    4918.4136            1 
   14800     1.998601   -4.8151718     4896.745       -1e+20 
   14900    2.0022062   -4.7789543    4930.7636            1 
   15000    2.0034368   -4.8070764    4909.1578       -1e+20 
   15100    2.0208126   -4.8245033     4907.421            1 
   15200    1.9981148   -4.7468978    4953.7868            1 
   15300    1.9989762   -4.7325276    4939.5629            1 
   15400    1.9875431   -4.7703663    4908.5665            1 
   15500    1.9441939   -4.8397819    4928.2981            1 
   15600    2.0367397    -4.832732    4910.6011            1 
   15700    2.0145343   -4.8235657    4883.2376            1 
   15800    1.9455564   -4.8610655     4892.009            1 
   15900    2.0013285   -4.8583315    4926.7649            1 
   16000    2.0422949   -4.8136742    4909.5227            1 
   16100    1.9775786    -4.779516    4925.1201            1 
   16200    1.9857834    -4.809168    4897.1126            1 
   16300    1.9857285   -4.8267962    4919.4158       -1e+20 
   16400    1.9894544   -4.8180334    4895.0411            1 
   16500    2.0358977   -4.7997569    4894.2464            1 
   16600    1.9931608   -4.8206625    4939.0897            1 
   16700     1.967096   -4.8495803     4917.022            1 
   16800    1.9963215   -4.7695965    4895.0931            1 
   16900    2.0256438    -4.835576    4933.7422       -1e+20 
   17000    1.9879192   -4.8271111     4924.483            1 
   17100    2.0187597   -4.7931518    4905.4936            1 
   17200    1.9981702   -4.7708134     4945.213            2 
   17300    1.9831198   -4.8002164    4918.1287            1 
   17400    2.0031794   -4.8344728    4895.1175            2 
   17500    2.0055402   -4.8263882    4908.8293            1 
   17600    2.0184099   -4.8165414    4946.3393            1 
   17700    1.9803098   -4.8303118    4899.5679            1 
   17800    1.9624499   -4.8271601    4895.6124            1 
   17900    2.0278473   -4.8118301    4922.6231            1 
   18000    1.9460484     -4.81623    4956.6407            1 
   18100     2.039238   -4.7716904    4915.1928            1 
   18200    1.9889565   -4.7809296    4901.4805            1 
   18300    1.9889438   -4.8247809    4913.3538       -1e+20 
   18400    1.9691509   -4.8313537    4901.4604            1 
   18500    2.0019142   -4.7862509    4942.1422            1 
   18600    1.9835366   -4.7240934    4936.1889            1 
   18700    1.9893223   -4.7669895    4918.1581       -1e+20 
   18800    1.9912217   -4.8162431    4929.6518            2 
   18900    2.0114816   -4.7771567    4952.5317            1 
   19000    2.0189251   -4.8150445    4919.9018            1 
   19100    1.9904606   -4.8361355    4894.6006            1 
   19200     2.007801   -4.7966181    4920.0744            1 
   19300    1.9863371    -4.790678    4908.2981            1 
   19400    1.9938606   -4.7813401    4900.1037       -1e+20 
   19500    2.0106359   -4.7941001     4965.804            1 
   19600    2.0517914   -4.7657987    4935.9035            1 
   19700    2.0131632   -4.8030011    4895.4121            1 
   19800    1.9913448   -4.8477487    4913.9809            2 
   19900    1.9824374   -4.8628354    4879.9556            1 
   20000    1.9716774   -4.8205743    4908.3326            2 
   20100    1.9973148   -4.7866842    4921.4865            1 
   20200    2.0252769   -4.7441165    4964.1854            1 
   20300     2.029142   -4.7445909    4947.2503            1 
   20400    1.9932306    -4.794432    4959.4165       -1e+20 
   20500    1.9893196   -4.7971256    4890.9116       -1e+20 
   20600    2.0210089   -4.8187818    4906.5863            1 
   20700    1.9772773   -4.7927102    4955.1134            1 
   20800    2.0353948   -4.7576816    4960.3311       -1e+20 
   20900    2.0361872   -4.8017876    4922.2562            1 
   21000    1.9767601   -4.8132132    4937.3487            1 
   21100    1.9942253   -4.7766296    4910.7678            1 
   21200    1.9684492   -4.8093185    4913.9612       -1e+20 
   21300    2.0192824   -4.8343484    4926.1982            1 
   21400    2.0391816   -4.7745918    4914.2673            1 
   21500    1.9830313   -4.7871042    4952.0146            1 
   21600    2.0061651   -4.7904047    4922.6449       -1e+20 
   21700    2.0583767    -4.764018    4927.2557       -1e+20 
   21800    1.9842335   -4.7828114    4987.1182            1 
   21900    2.0282662   -4.7745528     4917.757            1 
   22000    1.9719325    -4.775034    4904.3247            1 
   22100    1.9959918   -4.7967635    4928.6845            2 
   22200    1.9914787   -4.7606674    4930.6698            1 
   22300     2.015445   -4.7538494    4928.7817            2 
   22400    1.9572518   -4.7709495    4961.4345            1 
   22500    2.0144864   -4.7817598    4910.5076            1 
   22600    1.9880487   -4.8069843     4929.321            1 
   22700     1.974067   -4.7714655    4901.6542            1 
   22800     2.010807   -4.8107996     4904.066            1 
   22900    1.9923171   -4.7782972     4949.099            2 
   23000    1.9665648   -4.8049164    4895.2645            1 
   23100    1.9585381   -4.8228663     4877.322            1 
   23200    2.0098194   -4.7979441    4904.4787            1 
   23300    1.9884016   -4.7870447    4909.8815            1 
   23400     2.033414   -4.7941952    4929.7132            2 
   23500    1.9713944   -4.7450271    4949.2009            1 
   23600    1.9641549   -4.8263729     4882.814            2 
   23700    2.0051468   -4.8515907    4894.0915            1 
   23800    2.0233555   -4.7878434    4932.5515            1 
   23900    1.9997519   -4.7450627    4969.0609       -1e+20 
   24000    2.0178407   -4.7892561    4939.1443            1 
   24100    2.0316493   -4.8538884    4909.8836            2 
   24200    1.9611035   -4.8187395     4878.383            1 
   24300      2.00223   -4.8176489    4902.7317            1 
   24400    2.0145043   -4.8270659    4927.3124            1 
   24500    1.9518068   -4.8072429      4904.88            1 
   24600    2.0149868   -4.8001574    4892.0309            1 
   24700    1.9936643   -4.8368836    4908.8494            1 
   24800    1.9645128   -4.8541085     4908.415            1 
   24900    2.0206749    -4.805012     4880.349       -1e+20 
   25000    1.9642639   -4.8013504    4909.3835            1 
   25100    2.0018074   -4.8470108     4919.955            1 
   25200    2.0129692   -4.7563826     4897.641            1 
   25300    1.9489689   -4.8104218     4930.195            2 
   25400    2.0149446   -4.8439938    4909.6695            2 
   25500    2.0631873   -4.7785474    4907.8308            1 
   25600    1.9617146   -4.7723348    4954.1903            1 
   25700    2.0162772   -4.7900043     4915.221            1 
   25800    1.9656466   -4.7554859    4911.1813            1 
   25900    2.0190717   -4.8003456    4931.8112            3 
   26000    2.0078183   -4.7971945    4943.3644            1 
   26100    2.0280295   -4.7781454    4951.9117            1 
   26200    2.0185839   -4.7856225    4911.6624            1 
   26300    1.9676424   -4.7785949    4945.1179            1 
   26400    2.0205186   -4.7736148    4939.8761            1 
   26500    1.9836245   -4.7796998     4918.702            1 
   26600    1.9695522   -4.7860621    4913.6987       -1e+20 
   26700    2.0220612   -4.8003279    4912.6291            1 
   26800    2.0085313   -4.7657256    4964.0739            1 
   26900    1.9972711   -4.8180283    4919.1086            1 
   27000    2.0095994   -4.8339301    4894.1342            1 
   27100    1.9162667   -4.8354388    4890.1937            1 
   27200     2.016415   -4.8648795    4857.3531            1 
   27300    1.9601447   -4.7853935    4936.7616            1 
   27400    2.0159866   -4.7840882    4935.2984            1 
   27500     2.001366   -4.8215601    4888.1472            1 
   27600     1.984482   -4.8395161    4908.4375            2 
   27700    2.0110476   -4.8444389    4911.7014       -1e+20 
   27800    1.9933875   -4.7872907     4926.476            2 
   27900    1.9866564    -4.772515    4946.9099       -1e+20 
   28000      2.01397   -4.7841374    4932.6627            1 
   28100    1.9883742    -4.839392     4891.919            1 
   28200    1.9821122   -4.8720399     4905.248            2 
   28300     1.986954   -4.8040207    4929.2911            1 
   28400    1.9846979   -4.7640088    4902.2314            2 
   28500    1.9938677   -4.8132561     4905.194            1 
   28600    1.9579773   -4.7628825    4967.9645            1 
   28700    2.0361175   -4.7449975    4940.4021       -1e+20 
   28800    2.0115237   -4.7844456    4919.5487            1 
   28900    1.9944001   -4.8176425     4932.007            1 
   29000    2.0155339   -4.7733103    4931.4599            1 
   29100    1.9930422   -4.7642336    4941.3528            1 
   29200    1.9557889   -4.7541123    4907.7229            1 
   29300     1.989849   -4.7933774    4916.3371       -1e+20 
   29400    2.0195973   -4.8329245    4916.2099            1 
   29500    1.9910568   -4.8191582     4881.215            1 
   29600    1.9678237   -4.8022942    4908.4913            1 
   29700    2.0208205    -4.796632    4932.0317            1 
   29800    1.9996774   -4.7716486    4922.7347            1 
   29900    1.9751764   -4.8583514     4919.872            2 
   30000    2.0166714   -4.8323964     4912.412            1 
   30100    2.0217718   -4.7536057    4923.5067            1 
   30200     2.006239   -4.7874682    4948.4316            1 
   30300    2.0012695   -4.7993858     4919.039            1 
   30400     2.032084   -4.8219913    4917.0094            1 
   30500    2.0084746   -4.8268305    4955.6541            1 
   30600    2.0061914   -4.7861602    4895.7117            2 
   30700    1.9544981   -4.7913485    4901.3093            1 
   30800    1.9810131   -4.7785403    4910.4607            1 
   30900    1.9787561   -4.7897419    4910.7499       -1e+20 
   31000     2.039763   -4.8145651    4924.2105            1 
   31100    1.9477006    -4.802669    4949.1769       -1e+20 
   31200    2.0403098   -4.7648186    4896.9387            1 
   31300    2.0002778   -4.7928427    4941.0576       -1e+20 
   31400    1.9858968   -4.8307635    4929.8829            2 
   31500    2.0345335   -4.8370431    4907.5573            1 
   31600     2.012306   -4.8583842    4916.4623            1 
   31700    1.9803508   -4.8389216    4879.8784            1 
   31800    2.0265854   -4.8119082    4917.2204       -1e+20 
   31900    2.0034642   -4.7952313    4920.6686            1 
   32000    1.9377015   -4.8163413    4909.9927       -1e+20 
   32100    2.0015167   -4.8488226    4879.9326            1 
   32200    1.9979891   -4.8067093    4923.6156            1 
   32300    1.9751774   -4.7757415    4940.6818       -1e+20 
   32400    2.0558221   -4.7710272    4928.9072            1 
   32500    2.0028066   -4.8139398    4945.8816            1 
   32600    1.9957856   -4.8293363    4906.1688            1 
   32700    1.9787026   -4.8017155     4921.413            1 
   32800    2.0006596   -4.7974555    4920.8471            1 
   32900    1.9985395   -4.8106119    4903.5061            2 
   33000    1.9915136   -4.8030311    4932.1991            1 
   33100    2.0428122   -4.8026376    4951.0085            2 
   33200    2.0351084   -4.7678308    4923.9922            1 
   33300    1.9853168   -4.8232623     4929.745            1 
   33400    2.0214677   -4.7647204    4915.2896       -1e+20 
   33500    2.0263067   -4.7849464    4945.7228            2 
   33600    1.9757256   -4.7886693    4967.2951       -1e+20 
   33700    2.0134525   -4.8003509    4906.7626            1 
   33800    1.9971064   -4.8012605    4914.4065            1 
   33900    2.0164502   -4.7858666    4944.2207            1 
   34000    1.9983509   -4.8112058    4933.2591       -1e+20 
   34100    1.9825693   -4.7822965    4895.2769            1 
   34200    1.9946164   -4.7421023    4936.9389            1 
   34300    2.0184296   -4.8181222    4926.9499            1 
   34400    1.9815792   -4.7800495    4928.7108            1 
   34500     2.008557    -4.751402    4938.3179            1 
   34600    2.0323883   -4.7303108    4953.9506            1 
   34700     1.984624   -4.7709895    4938.3823            1 
   34800    1.9734194   -4.7980056    4932.0055            1 
   34900    2.0626728   -4.7755173    4896.4434            1 
   35000    1.9785956   -4.7971856    4951.2514            1 
   35100    2.0031476    -4.808105    4897.2744            1 
   35200    1.9840079   -4.7898582    4887.2241            1 
   35300    2.0153171   -4.8311892    4919.6996            1 
   35400    2.0050297   -4.8450431    4931.9445       -1e+20 
   35500    2.0502418   -4.8088892    4888.0084       -1e+20 
   35600    1.9736208   -4.8104315    4954.1572       -1e+20 
   35700    2.0176424   -4.8267097    4903.4529            3 
   35800    2.0083861   -4.7951884    4910.9689            1 
   35900    2.0195483   -4.8151751    4942.8485            1 
   36000    1.9831638   -4.8336792    4902.9526            1 
   36100    2.0161446   -4.8228239    4903.6582            1 
   36200    1.9969024   -4.8384949    4906.8005            1 
   36300    2.0085298    -4.848995    4916.3746            1 
   36400    2.0158983   -4.7998168    4950.4214            1 
   36500    1.9808968   -4.7597015    4902.5033       -1e+20 
   36600    1.9689765   -4.8036907    4925.7236            2 
   36700    2.0438896   -4.8053306    4927.4026            1 
   36800    1.9751873   -4.7961495     4902.238       -1e+20 
   36900      1.99547     -4.82557    4937.6034            1 
   37000    2.0283848   -4.8282036    4912.7819            2 
   37100    1.9994423   -4.8139475    4894.9382            1 
   37200    1.9966343   -4.8250589    4938.0722            2 
   37300     2.022109   -4.7786441    4940.2426            1 
   37400    2.0150225   -4.7998887    4914.2088            1 
   37500    1.9996189   -4.8829945     4907.803            1 
   37600    2.0190675   -4.8204766    4920.8637            1 
   37700    2.0169567   -4.7890783    4906.9088            1 
   37800    1.9692916   -4.7978691    4942.9415       -1e+20 
   37900    1.9859187   -4.7541794    4938.1816       -1e+20 
   38000    2.0371927   -4.7742884    4923.8544            1 
   38100    1.9573885   -4.7799862    4951.4806            1 
   38200    2.0530718   -4.7980712     4925.454            1 
   38300    1.9778182   -4.7749296     4903.966            1 
   38400    1.9562563   -4.7700765    4919.5939            2 
   38500    1.9727725    -4.795322    4885.2669       -1e+20 
   38600    2.0074508    -4.776274    4930.2111       -1e+20 
   38700    2.0026157   -4.7550713    4939.3973       -1e+20 
   38800    1.9742878   -4.7760314    4936.4898            1 
   38900    1.9640725   -4.7868163    4902.2262            1 
   39000    2.0011367   -4.7920462    4936.8576            1 
   39100    2.0036282   -4.7659317     4912.526            1 
   39200    1.9857429   -4.8191739    4891.1102       -1e+20 
   39300    1.9928404   -4.8110699    4936.7181            1 
   39400    2.0177197   -4.8016177    4923.5892            1 
   39500    2.0235152   -4.8200818    4900.1337            1 
   39600    1.9527363   -4.8287415    4918.6946            1 
   39700    2.0086725   -4.7888346    4930.0193            1 
   39800    2.0404318    -4.786095     4902.028            1 
   39900    1.9646939   -4.8194986    4895.8374            1 
   40000    1.9948185   -4.8015098    4928.1911       -1e+20 
   40100     2.027863   -4.8235446    4919.3833            2 
   40200    1.9880297   -4.8058431    4906.3908            1 
   40300    2.0083629   -4.8344829    4919.8669            1 
   40400    2.0206772   -4.7840831    4947.5149            1 
   40500    2.0048998   -4.8237655    4920.7796            2 
   40600    1.9728742   -4.8126231    4878.5097            1 
   40700    1.9638968    -4.842631    4883.9687            1 
   40800    2.0137305   -4.8234092    4923.1844       -1e+20 
   40900    2.0112149   -4.8135169    4922.1083            2 
   41000    1.9838856   -4.8002188    4901.3179            1 
   41100    2.0376929   -4.8078832    4929.4074            1 
   41200    1.9982263   -4.8068113    4938.2858            2 
   41300    1.9922657   -4.8260275    4895.3237            1 
   41400    1.9977484   -4.7954842     4890.951            1 
   41500    2.0189808    -4.790072    4942.3132       -1e+20 
   41600    2.0033047   -4.7285873    4941.8333            1 
   41700    2.0094585   -4.8056787    4900.9457            1 
   41800    1.9662779   -4.7835996    4943.9441            1 
   41900    2.0091672   -4.7454746    4937.6847            2 
   42000    2.0203313   -4.7892937     4955.162            1 
   42100    1.9773956   -4.7395001    4965.1674            1 
   42200    2.0471893   -4.7608613    4895.4212            2 
   42300    1.9917876   -4.8303299    4937.3037       -1e+20 
   42400    2.0259479   -4.8297354    4904.2119            1 
   42500    1.9542986    -4.756206    4908.9372            1 
   42600    2.0365514   -4.8405896    4929.9155            1 
   42700    1.9865179   -4.8396733     4894.554            1 
   42800    2.0091895   -4.8026204    4894.0868       -1e+20 
   42900    2.0138233    -4.811472    4931.7539            1 
   43000    1.9767956   -4.7737312    4943.0693            1 
   43100    2.0504401   -4.7612526    4915.2446       -1e+20 
   43200    1.9677503   -4.7812496    4969.7126            1 
   43300    2.0473526    -4.775482    4934.1742            2 
   43400    2.0134453   -4.7871887    4913.1446       -1e+20 
   43500    1.9658061   -4.8044533    4951.7149            1 
   43600    2.0620451   -4.7904328    4903.3324            2 
   43700    1.9885568   -4.8156963     4906.846            1 
   43800    1.9808806   -4.7761851    4907.1838            1 
   43900     1.999572   -4.7460966    4948.5883            2 
   44000     1.985607   -4.7458972    4919.8176            1 
   44100    1.9784835   -4.7751237    4913.4269       -1e+20 
   44200    2.0138669   -4.7791423    4951.1436            2 
   44300    2.0544802   -4.7778478    4925.2649       -1e+20 
   44400    2.0000351   -4.8286036    4927.9838            1 
   44500    2.0140384   -4.8957052    4879.7904       -1e+20 
   44600    1.9869401   -4.8456767     4898.982       -1e+20 
   44700    1.9883258   -4.7940853    4918.2492            1 
   44800    2.0298052   -4.7783153    4947.3125            1 
   44900    1.9683298   -4.7463167    4937.8721            1 
   45000      2.00544   -4.8267072    4903.2737            1 
   45100    2.0248422   -4.8223913    4915.4174            1 
   45200    1.9988842   -4.7652114    4946.1437            1 
   45300    1.9966342    -4.791826    4907.7787            1 
   45400    1.9950358   -4.7930421    4930.2271            1 
   45500    1.9739823   -4.8199449    4904.9354            1 
   45600    2.0621332   -4.8708072    4883.7348            1 
   45700    1.9495616   -4.8037193    4943.9542            1 
   45800    2.0325988   -4.8110849    4914.0998            1 
   45900    1.9819855   -4.7824852    4896.1636            1 
   46000    2.0190852   -4.7961915    4929.5363            1 
   46100     1.995288   -4.7423524     4954.691       -1e+20 
   46200    2.0231148   -4.8343685    4894.9832            1 
   46300    1.9679769   -4.8403374    4911.9606            1 
   46400    2.0218229   -4.8217171    4882.3239            2 
   46500    1.9938759   -4.8403056    4914.5248            1 
   46600      2.00925   -4.8406748    4941.5192       -1e+20 
   46700    2.0560089   -4.7974213    4929.6784            1 
   46800    1.9731513   -4.7678263    4948.6028            1 
   46900    1.9920366   -4.8452333     4901.469            1 
   47000    2.0188203   -4.8265582    4896.6216            1 
   47100    1.9753962   -4.8082458    4944.9249            2 
   47200    2.0427847   -4.8060519    4916.8018            1 
   47300    2.0007776   -4.8219348    4933.1671            1 
   47400    2.0186529   -4.7857922    4901.4899            1 
   47500    1.9576673   -4.7957174     4918.482            1 
   47600    1.9931265   -4.7905866     4930.789            1 
   47700    2.0450666   -4.8110498    4911.1615            1 
   47800    1.9929218   -4.8534998    4944.6225       -1e+20 
   47900    2.0385499   -4.8320248    4925.6033            3 
   48000    1.9775652   -4.7959378    4895.6972            1 
   48100    2.0613392   -4.8292744    4903.9363            1 
   48200    1.9757288   -4.8273095     4949.467            2 
   48300    1.9979036   -4.8411982    4891.9099            1 
   48400    1.9965914   -4.7691103    4913.1921            1 
   48500    2.0115686   -4.7486358     4962.943            1 
   48600    1.9852835   -4.7882815    4921.3778            1 
   48700    2.0018354   -4.7646856       4917.5       -1e+20 
   48800    1.9853204   -4.7976616    4942.0567            1 
   48900    2.0123032   -4.8580223    4889.0335            2 
   49000    2.0263319   -4.8124524    4914.7547            1 
   49100    1.9699185   -4.8001177    4934.9754            1 
   49200    2.0432421   -4.7762858    4914.3518            2 
   49300    1.9889247   -4.7416559    4957.8731            1 
   49400    1.9556749   -4.7624534    4935.6179            1 
   49500    2.0266641   -4.8110804    4887.8718            1 
   49600    1.9513715   -4.8378202    4914.9799            1 
   49700    1.9860812   -4.8233213    4907.7632            1 
   49800    2.0198861   -4.7734925    4918.9203            2 
   49900     2.018424   -4.8047641    4950.4068            1 
   50000    1.9798585   -4.8289861    4920.7904            1 
   50100    2.0351412   -4.8216751    4907.7599            1 
   50200    1.9722859   -4.7698442    4935.6814            1 
   50300    1.9995494   -4.7587971    4937.8561            1 
   50400    1.9882194   -4.7696102     4918.864            1 
   50500    2.0092985    -4.811123    4942.3412            1 
   50600    1.9564018   -4.7809681     4886.603            1 
   50700    2.0023498   -4.7747384    4917.7183            1 
   50800    1.9824205   -4.7914524    4937.9372            1 
   50900    2.0313902   -4.7937133    4915.5234            1 
   51000    1.9793393   -4.8136411    4890.2308            1 
   51100    2.0112895   -4.8780711    4930.0338            1 
   51200    1.9769326   -4.7487546    4923.1591            1 
   51300    2.0463332   -4.8236551    4907.8249            2 
   51400    1.9582583   -4.7882849     4917.416            1 
   51500    2.0280443    -4.801292    4922.3694            1 
   51600    1.9886564   -4.8285951    4927.4515            1 
   51700    1.9654521   -4.7987437    4900.4125            1 
   51800    2.0447383   -4.8287484    4932.9199            1 
   51900    1.9878136   -4.7868445     4936.706            1 
   52000    2.0574696   -4.7850428    4940.9635            3 
   52100    1.9735252   -4.7492048    4934.0194            1 
   52200    2.0164552   -4.7832879    4931.4609            1 
   52300    2.0000005   -4.8132869    4940.2882       -1e+20 
   52400    1.9974243   -4.8366915    4878.8114            1 
   52500    1.9769692   -4.8023752    4920.7242            2 
   52600    2.0189809   -4.7983536    4924.4718            2 
   52700    1.9653557    -4.805113    4903.2014            4 
   52800    2.0347687   -4.8313706    4913.0005            2 
   52900    1.9495246   -4.8059375    4920.1074            1 
   53000     2.055277   -4.8398284    4901.8785       -1e+20 
   53100    1.9930562   -4.8088992    4930.9088            1 
   53200    2.0094092   -4.7907678    4924.2774            2 
   53300    2.0284124   -4.7967692    4919.6944            1 
   53400    1.9564156   -4.7896744    4924.5971            2 
   53500    2.0136354   -4.7672336    4924.4051            1 
   53600    1.9815601   -4.7530598    4947.4938            1 
   53700    2.0104207   -4.8366332    4905.9818            1 
   53800    1.9967347   -4.8109372    4914.4513            1 
   53900    2.0057591   -4.8275967    4926.7331            2 
   54000    2.0060799   -4.7601844    4918.7761            2 
   54100    2.0026093   -4.7616177    4939.5121            1 
   54200    1.9829875   -4.7893969    4913.6337            1 
   54300    2.0160616   -4.8077091     4916.452       -1e+20 
   54400    1.9833151    -4.828837    4939.6221            1 
   54500    1.9825677   -4.8178935    4885.9123            1 
   54600    1.9984185   -4.8071445    4883.3319            1 
   54700    1.9999965   -4.8347079    4931.8343            1 
   54800    1.9917281   -4.7796463    4924.0874            1 
   54900    2.0166853    -4.746725    4917.4501            1 
   55000    1.9588677   -4.7970778    4922.5831            1 
   55100    1.9729382   -4.7876746    4925.5871            1 
   55200    2.0305665   -4.8015563    4902.4029       -1e+20 
   55300    1.9792597   -4.8482814     4893.531            1 
   55400    2.0081445   -4.8336084    4907.6198            2 
   55500    1.9978534   -4.7503623    4929.1934            2 
   55600    2.0355045   -4.7578661     4931.869            1 
   55700    1.9844269   -4.7824485    4968.2408            1 
   55800    2.0365742   -4.7930527    4918.5569            1 
   55900    1.9764018   -4.7894024    4937.6906            1 
   56000     2.076998   -4.8518785    4939.7859            1 
   56100    1.9959779   -4.8130505    4889.9126            2 
   56200    2.0037566   -4.8737703    4918.8793            2 
   56300    2.0306304   -4.8291239    4927.7163            1 
   56400    2.0728459   -4.7783873    4919.5289       -1e+20 
   56500    1.9975377   -4.8158867    4930.7554            2 
   56600    1.9762127   -4.8119278    4911.0073            1 
   56700    2.0294762   -4.7949075    4894.0281            1 
   56800    1.9703752   -4.8161441    4920.2232            1 
   56900    2.0229705   -4.8614662    4903.5063            1 
   57000    2.0016314   -4.7958916    4917.1101            1 
   57100    2.0317325   -4.7750674    4944.3241            1 
   57200    1.9687279   -4.7806929    4927.8256            1 
   57300     2.013779    -4.839263    4911.1058            1 
   57400     1.960654   -4.8447454    4900.6725            1 
   57500    2.0191608   -4.8159384    4921.8158            2 
   57600     2.001284   -4.7972186    4924.1785            1 
   57700    1.9293273   -4.7679182     4927.152            1 
   57800     2.040116   -4.7992052    4937.3821            1 
   57900    2.0148785   -4.8188023    4904.7686            1 
   58000    1.9952887   -4.8292907    4938.3201            1 
   58100    2.0001316   -4.8001609    4925.9743            1 
   58200    2.0301199   -4.7489577    4926.3732       -1e+20 
   58300    1.9609743   -4.7571306     4963.214            1 
   58400    2.0028697   -4.8196813    4896.6099            1 
   58500    1.9881759   -4.7981711    4889.9298            2 
   58600    1.9817694   -4.8547478    4903.8803            1 
   58700    1.9912669   -4.8428707    4883.1803            1 
   58800    2.0354365   -4.8323595    4901.8256            1 
   58900    1.9926506   -4.8179219    4924.2976            1 
   59000    1.9707984   -4.8450639     4896.673            3 
   59100    2.0003669   -4.7494619    4896.8025            1 
   59200    2.0090478   -4.7626896    4945.5525            1 
   59300    1.9983004   -4.7948946    4918.2474            1 
   59400     1.999042   -4.8127168    4899.8092            1 
   59500    1.9202174   -4.7973826    4900.4021            1 
   59600    2.0171976   -4.8146798    4926.2689            1 
   59700    2.0485246   -4.7959111    4932.0864            2 
   59800    1.9743601   -4.8178254    4940.9077            1 
   59900    1.9876428   -4.7964613    4888.5498            1 
   60000    2.0297887   -4.8238304    4905.7449            1 
   60100    1.9784142   -4.8288702    4933.7339            1 
   60200    2.0204545   -4.7787406    4927.2717            2 
   60300    2.0262194   -4.7800456    4935.8693       -1e+20 
   60400    1.9793369   -4.8225128    4916.6881            1 
   60500    1.9981785   -4.8089066    4912.3857            1 
   60600    2.0176297   -4.7469272    4932.5935            1 
   60700    2.0255452   -4.8000571    4926.2625            1 
   60800    1.9600851   -4.8123249    4921.8295            1 
   60900    2.0301033   -4.7906582    4913.9373       -1e+20 
   61000     2.000074   -4.8057438    4920.5055            2 
   61100    1.9501481   -4.8285529    4917.1351            1 
   61200     2.018924    -4.805327    4880.2488            2 
   61300    1.9928267    -4.743657    4925.1841            1 
   61400    2.0054729   -4.7950093    4960.2126            1 
   61500    2.0194818   -4.8379797    4909.1526            1 
   61600    1.9914471   -4.7728017    4926.7253            1 
   61700    1.9947908   -4.7783447    4911.0495            1 
   61800    2.0033173   -4.8350037    4926.1689            1 
   61900    1.9974985   -4.7922261    4915.1269            1 
   62000    1.9853594   -4.8518404    4906.5567       -1e+20 
   62100    2.0085793   -4.8266806    4906.0239            1 
   62200    1.9980785    -4.827719    4914.1781            1 
   62300    1.9979237   -4.8254268    4877.5053            1 
   62400    1.9974898   -4.8214236    4936.0858            1 
   62500    2.0410643   -4.8095864    4934.4484            1 
   62600    1.9816132   -4.7701275    4890.9771       -1e+20 
   62700    1.9823821    -4.800361    4925.4812            1 
   62800    1.9918687    -4.833971    4909.8613            1 
   62900    1.9999998   -4.8068443     4886.579            4 
   63000    1.9828422   -4.7875016    4930.2793            1 
   63100    1.9663412   -4.8007045    4901.3002            1 
   63200    1.9800785   -4.7989752    4899.1791            1 
   63300    1.9910087   -4.8039203    4928.0015            1 
   63400    2.0138471     -4.77201    4942.4123            1 
   63500    2.0458806   -4.7781553    4930.4043            1 
   63600     1.974076   -4.7760426    4935.3239            1 
   63700    2.0146199   -4.7889377    4938.4213            1 
   63800    2.0060291   -4.8129632    4916.4377            3 
   63900     1.956578   -4.8283228    4946.0768            3 
   64000    2.0338033   -4.7903955    4881.4128            1 
   64100     1.978967   -4.7737469    4922.7534            1 
   64200    1.9639062   -4.7506859    4936.0982            2 
   64300    2.0275388   -4.7886714    4933.5906            1 
   64400    1.9883292   -4.8153081    4912.8459       -1e+20 
   64500    2.0061205   -4.8209843    4924.1324            1 
   64600    2.0137897   -4.7690875    4925.9821            1 
   64700    1.9934684   -4.8140817    4933.7807            1 
   64800    2.0074679   -4.8404635    4923.0606            1 
   64900    2.0178949   -4.7588503     4912.419            1 
   65000    1.9360649   -4.8125475    4947.4133            1 
   65100    2.0213819   -4.8581903    4897.2991            1 
   65200    2.0158668   -4.8160562    4922.3844            1 
   65300    1.9893009   -4.7838441    4919.2798            1 
   65400    1.9951334   -4.8178812    4909.9553            1 
   65500    2.0137352   -4.7775365    4905.6628            2 
   65600    2.0047115   -4.7636098    4975.7403            2 
   65700    2.0264702    -4.781783    4930.7171            3 
   65800    2.0059526   -4.7855485    4890.6806            1 
   65900    1.9443639   -4.8014611    4952.5377            1 
   66000     2.020779   -4.7759689    4922.3052            1 
   66100    2.0029419    -4.779944    4935.8063            4 
   66200     2.004771   -4.8056516    4941.4754            3 
   66300    2.0297825   -4.8106235    4915.8121            1 
   66400    1.9809237   -4.8190832    4914.6508            1 
   66500    2.0214811   -4.8411018    4923.2047       -1e+20 
   66600    2.0168992   -4.7862179    4941.3229            1 
   66700    1.9808877   -4.7981989     4909.363            1 
   66800    1.9932782   -4.8281566    4892.1041            1 
   66900    2.0062356   -4.7981807    4938.9725            1 
   67000    1.9873603   -4.7374557    4931.5785            1 
   67100    2.0142952   -4.8459241    4891.9015            1 
   67200    1.9649234   -4.8296203    4910.9615            1 
   67300    2.0249426    -4.800202    4917.5343            1 
   67400    1.9846193   -4.7983372    4929.6735            1 
   67500    1.9763062   -4.8389285    4897.4006            1 
   67600    1.9929722   -4.7920845    4897.1033            1 
   67700    1.9761041    -4.764879    4934.8712            1 
   67800    1.9949585   -4.7447915    4966.3518            1 
   67900    2.0401367   -4.7840581    4955.0935       -1e+20 
   68000    1.9810623   -4.7882667    4933.5486            1 
   68100    2.0359122   -4.8061244    4919.5349       -1e+20 
   68200    1.9845195   -4.8433485    4906.1518            1 
   68300    2.0021013   -4.8173671    4931.6816            2 
   68400    2.0350081   -4.7813717    4926.8594            1 
   68500    2.0081059   -4.8344206    4887.2203            1 
   68600    1.9407581   -4.8095307    4904.4315            1 
   68700    2.0387032   -4.8281621    4908.3267            1 
   68800    2.0071325   -4.7838407    4941.7601            1 
   68900     2.006054   -4.7856704    4947.5682            2 
   69000     1.998113   -4.7661158    4900.8617            1 
   69100    1.9835651   -4.8307019    4918.4423            2 
   69200    1.9953152   -4.8171097    4926.7774            1 
   69300    2.0433744   -4.8163854     4903.606       -1e+20 
   69400    1.9641511   -4.8231958    4914.7663            2 
   69500    2.0180595   -4.8093085    4906.4405            1 
   69600    2.0158376   -4.7522565    4957.6828            2 
   69700    2.0363468   -4.8039313    4919.6435            1 
   69800    1.9773084   -4.7883641    4919.9727            1 
   69900    2.0549917    -4.789808    4924.2638            1 
   70000    2.0052171   -4.7998352    4906.3689            1 
   70100    1.9973035   -4.8286329    4912.9908            1 
   70200    2.0534902   -4.8003365    4917.2412            1 
   70300    1.9848927   -4.7753744    4911.6183            1 
   70400    2.0294724   -4.8224473    4945.3594            1 
   70500    2.0056462   -4.7963904    4927.8539       -1e+20 
   70600    2.0073088   -4.8195609    4898.1152            1 
   70700    2.0026531   -4.8031276    4934.5175            2 
   70800    1.9840909   -4.7522664    4933.1927            1 
   70900    2.0121218   -4.7901396      4935.72            3 
   71000    2.0148301   -4.7994892    4938.2461            1 
   71100    2.0017361   -4.7770689    4896.1991            1 
   71200    1.9561214   -4.8546464    4908.5163            1 
   71300    1.9852232   -4.8126709    4904.0573       -1e+20 
   71400    2.0209166    -4.782154    4915.7949            2 
   71500    1.9823444   -4.7881884    4941.0437            1 
   71600    1.9944001   -4.7832605    4901.6937            1 
   71700    1.9782236   -4.7829003    4911.4977            1 
   71800    1.9819806   -4.7991377    4948.8699            1 
   71900    2.0621299   -4.7858995    4903.0972            1 
   72000    2.0282807   -4.8532674    4916.8206            1 
   72100    1.9237069   -4.8092023    4926.9004            1 
   72200    2.0398822   -4.8168755    4873.4495            2 
   72300    1.9699358   -4.8232144    4926.2854       -1e+20 
   72400    2.0077975   -4.8023405    4916.8342            1 
   72500    2.0135289    -4.833775    4909.8845            1 
   72600    1.9629455   -4.8132896    4919.1024            2 
   72700    2.0439994   -4.8136515    4901.3491       -1e+20 
   72800      1.99028   -4.7968824    4945.4871            1 
   72900    2.0150599   -4.8394476      4909.49            2 
   73000    2.0137774    -4.820708    4901.6964            3 
   73100    1.9664735   -4.7819392    4933.6605            1 
   73200    2.0405961   -4.8209719    4915.5913            1 
   73300    1.9664412   -4.7445723    4945.2798            1 
   73400    1.9995446   -4.7894424    4952.1586            1 
   73500    2.0059838   -4.7358421    4943.0105            1 
   73600    2.0188489   -4.7643524    4926.1628            1 
   73700    2.0044887   -4.8359082    4936.1426            1 
   73800     2.029486   -4.8059723    4902.6928            2 
   73900    1.9901472   -4.8380846     4898.418            1 
   74000    2.0061166   -4.7898007    4926.9338            2 
   74100    2.0439739   -4.8258611     4927.529       -1e+20 
   74200    2.0167858    -4.833451    4919.5267            1 
   74300    2.0188033    -4.911429    4908.2404            2 
   74400    2.0013003   -4.8265989    4886.4992            3 
   74500      1.99275   -4.7894808    4925.4775            1 
   74600    1.9921203   -4.8207618    4923.1881            1 
   74700    1.9351338   -4.7940602    4900.6449            1 
   74800    2.0183202   -4.8372367    4933.8434       -1e+20 
   74900    1.9800195   -4.8118614    4924.2884            1 
   75000    1.9974622   -4.7790695     4892.957            1 
   75100     2.000909    -4.807574    4944.4578            1 
   75200    2.0658356   -4.7969157    4954.6127       -1e+20 
   75300    2.0275585    -4.780711    4924.0459       -1e+20 
   75400    1.9766047   -4.7870042    4927.1389            1 
   75500    1.9969199   -4.8199591    4918.9861            1 
   75600    2.0364379   -4.7823796     4920.938            1 
   75700    1.9640036   -4.7425722    4931.1574            1 
   75800    1.9928421   -4.7296654    4935.9203            3 
   75900    2.0388832   -4.7393996    4949.9573       -1e+20 
   76000    2.0362079   -4.8215835    4901.0696            1 
   76100    1.9543274   -4.8258652    4924.2753            1 
   76200    1.9818743   -4.7323628    4922.4201            1 
   76300    2.0311083   -4.7585286    4933.9017            1 
   76400    1.9713402   -4.7988983    4936.1886            1 
   76500    2.0286147   -4.8227799     4919.273            1 
   76600    2.0036845   -4.8300965    4895.1614            1 
   76700    1.9979468   -4.8146985    4941.0438            3 
   76800    2.0050594   -4.7425699    4921.9748            1 
   76900     1.986433    -4.771434     4909.724       -1e+20 
   77000    1.9850356   -4.8149637    4947.5754            1 
   77100     2.036502   -4.7769362    4926.0072            1 
   77200    1.9814214   -4.7441845      4948.02            2 
   77300    2.0297702   -4.8132975    4936.8216            1 
   77400    2.0023148   -4.8193684    4904.8555            2 
   77500     2.014461   -4.8195014    4884.7228            4 
   77600    1.9575581    -4.875825     4909.697            2 
   77700    2.0114595    -4.815236    4898.1033            1 
   77800    2.0119064   -4.7715338    4935.5752            1 
   77900    2.0176806   -4.8095504    4945.9273            1 
   78000    2.0053791   -4.8189869     4918.014            1 
   78100     2.016008   -4.8213173    4894.5211            1 
   78200    1.9682673   -4.8380227     4922.954            2 
   78300    2.0083209   -4.8169162    4932.5728       -1e+20 
   78400    2.0791792   -4.7978332    4912.3978            1 
   78500    1.9911367   -4.8131178    4936.5815            1 
   78600    1.9955807   -4.8246764    4904.4467            1 
   78700    1.9983582   -4.8264663    4872.4177            1 
   78800    1.9828454   -4.7966119    4945.5175            1 
   78900    2.0121602   -4.7361527    4956.8045            1 
   79000    2.0237819   -4.7831846    4923.6477            1 
   79100    1.9784245   -4.8002954    4926.1085            1 
   79200    2.0162192   -4.7678824    4919.4391            1 
   79300    1.9619315   -4.7839765    4943.3259            1 
   79400    2.0306878   -4.7653387    4949.9535            1 
   79500    1.9888811    -4.766145    4931.8065       -1e+20 
   79600    2.0140471   -4.7745771    4926.5326       -1e+20 
   79700    2.0194406   -4.7637318     4945.384            1 
   79800    1.9805375   -4.7805845    4940.6026            1 
   79900      1.97946   -4.8065422    4913.8485            1 
   80000    2.0262963   -4.7548924    4917.9987            2 
   80100    1.9790884   -4.7683689    4922.6426       -1e+20 
   80200    2.0051816   -4.8152467    4925.7461            2 
   80300    2.0150078   -4.8213521    4901.5246            2 
   80400    1.9740293   -4.8282791    4918.3838            1 
   80500    1.9812143   -4.7729362    4954.0389            1 
   80600    2.0579761   -4.7704743    4905.1973            1 
   80700    1.9781217   -4.7882168     4925.736       -1e+20 
   80800    1.9880435   -4.7907629    4941.1742            1 
   80900    2.0209435   -4.7360105    4934.4477            1 
   81000     1.990018   -4.7859792    4918.6533            1 
   81100    1.9411789   -4.8243281      4926.52       -1e+20 
   81200    2.0575879   -4.8056175    4858.0386            1 
   81300    1.9885994   -4.8153054    4914.8567            1 
   81400    1.9519547   -4.7898708    4935.4184            1 
   81500    2.0567943   -4.8074811    4922.6666            1 
   81600    2.0266059   -4.8560128    4915.1356            3 
   81700    1.9707593   -4.8133506    4916.6197            1 
   81800    2.0298263   -4.7997455    4920.0325            1 
   81900     1.982306   -4.7744532    4920.1924            1 
   82000    2.0076545   -4.7565366    4944.7889            2 
   82100     2.002889   -4.7765121    4942.5306            1 
   82200     2.022467   -4.8102531    4890.0067            1 
   82300    1.9632083   -4.7919837    4936.1288            1 
   82400     2.031168   -4.7997204    4929.4375            1 
   82500    1.9424254   -4.7808669    4900.0603            1 
   82600    2.0070324   -4.8165744    4938.4598            1 
   82700    2.0031842   -4.7815466     4911.969            1 
   82800    2.0208277   -4.8443147    4929.0507            1 
   82900    2.0356749   -4.8316259    4952.3868            1 
   83000    2.0483069   -4.7431449    4909.3036            2 
   83100    1.9666214   -4.7719562    4949.1625            1 
   83200    2.0059091   -4.7729547    4932.8739       -1e+20 
   83300    2.0238519   -4.7909211    4917.2331            1 
   83400    1.9609718   -4.8249514    4920.6411            1 
   83500    1.9962066   -4.8328098    4881.2254            1 
   83600    1.9735467   -4.8089214    4887.5564            1 
   83700    2.0137408   -4.8281255    4966.1919            1 
   83800    2.0086412    -4.777567    4958.8337            1 
   83900    2.0546815   -4.7116506    4933.6292            2 
   84000    2.0293766   -4.8202164    4950.3099       -1e+20 
   84100    1.9494207    -4.778715    4923.6445            1 
   84200    2.0522582   -4.8144709    4901.0528            1 
   84300    1.9886278   -4.8075447    4924.5713            1 
   84400    1.9832234   -4.7982154     4918.111       -1e+20 
   84500    1.9938259   -4.7809825    4894.8637            1 
   84600    1.9871965   -4.8025075     4953.394            1 
   84700    2.0385824   -4.7664786    4913.7008            1 
   84800    2.0271183   -4.8404766    4918.2238            1 
   84900    1.9958515   -4.8648265    4911.7769            1 
   85000     1.996813   -4.8129907    4902.3096            1 
   85100     2.013578   -4.8103134    4920.8656            1 
   85200     2.001094   -4.8284112    4915.5898            2 
   85300     1.997841   -4.7915904    4925.9134            3 
   85400    2.0259016   -4.7985196    4934.7886            2 
   85500    1.9860383   -4.8125572    4921.7921            1 
   85600    1.9925802   -4.8210745    4907.8162            1 
   85700    2.0217537   -4.8061017    4893.7689            2 
   85800     2.008457   -4.8454543    4949.8952            2 
   85900    1.9938179   -4.7971453    4932.9862            1 
   86000     2.021117   -4.7454643    4912.4844       -1e+20 
   86100    1.9792235   -4.7933651     4919.523            1 
   86200    2.0086191   -4.8417839    4925.0685            2 
   86300    1.9399217   -4.8077329    4894.7115            1 
   86400    2.0145628   -4.8482753    4916.4351            1 
   86500    1.9801754   -4.7588587     4927.869            1 
   86600    2.0301169   -4.7471527    4945.0778            2 
   86700    1.9712995    -4.769782    4951.5264            2 
   86800    2.0059254   -4.7715156    4913.9987            1 
   86900    1.9746292   -4.7940648    4906.9704            1 
   87000      2.02408   -4.7835782    4928.1192            1 
   87100    1.9672708   -4.7843249    4906.0984            1 
   87200    2.0251771   -4.8559097    4907.1729       -1e+20 
   87300    2.0209031   -4.8233829    4934.6432            1 
   87400    2.0063553   -4.7451162     4947.608            1 
   87500    1.9648871   -4.7659529    4936.2362            1 
   87600    2.0152917    -4.791526    4906.4317       -1e+20 
   87700    1.9688685   -4.7710169    4918.2236            1 
   87800    2.0432742   -4.8205348    4938.2917            2 
   87900    1.9848907   -4.7973582    4929.8094            1 
   88000    2.0010329   -4.7781514    4922.3682            1 
   88100    1.9824509   -4.7743092    4917.4251            1 
   88200    2.0273055   -4.7503971    4931.4833            2 
   88300    1.9926352   -4.7811068    4974.0408            1 
   88400     1.963491   -4.7931565     4899.529            1 
   88500    2.0070134    -4.759259    4907.7197            1 
   88600    2.0145576   -4.7944197    4949.6337            1 
   88700    1.9826009   -4.8396302     4905.328            2 
   88800    1.9833603   -4.7794299    4914.7943            1 
   88900    1.9736179    -4.745755    4947.6036            1 
   89000    2.0300099   -4.7883734    4920.4934            1 
   89100    1.9805706   -4.8001596    4918.9052            1 
   89200    1.9980107   -4.8496957     4895.738            1 
   89300     1.962351   -4.7917835    4908.2225            1 
   89400    1.9997216      -4.7668    4908.1794            1 
   89500    2.0109837   -4.7812933    4935.8549            1 
   89600     1.967035   -4.8017225    4913.9071            1 
   89700    2.0176153    -4.788597    4878.9442            1 
   89800    1.9520219   -4.8191391    4923.7106            1 
   89900    2.0103283    -4.816642     4918.918            2 
   90000    2.0253033   -4.7419708     4914.081            2 
   90100    1.9629174    -4.764599    4934.7112            1 
   90200    2.0142668   -4.8117633    4912.8219            2 
   90300    2.0092899   -4.7983649    4946.1667            1 
   90400    1.9864435   -4.7643447    4924.8877            1 
   90500    2.0210017   -4.7742121    4916.3093            1 
   90600    1.9893818   -4.8440791    4913.3291            2 
   90700    1.9929213   -4.7891387      4930.98            1 
   90800    2.0114059   -4.7533127    4949.6985            1 
   90900    2.0525334   -4.7832195    4973.1037            1 
   91000    1.9945978   -4.7727735    4949.0654            1 
   91100    2.0269249   -4.7816778    4920.8298       -1e+20 
   91200    1.9503257   -4.7541505    4890.1558       -1e+20 
   91300    1.9886781   -4.8467215    4919.1368       -1e+20 
   91400    2.0168106   -4.8070503    4955.3169            1 
   91500    2.0495022   -4.7472968    4920.7787            1 
   91600    1.9973856   -4.8141196    4923.4583            1 
   91700    1.9570465   -4.8166681    4912.5374            1 
   91800    2.0111475     -4.77233    4904.4484            1 
   91900    1.9899919   -4.8033802    4910.0668            1 
   92000    1.9490089   -4.8505678    4913.3234            1 
   92100    2.0161094   -4.8269609    4914.2661            1 
   92200    2.0274358   -4.7975258    4922.8359            1 
   92300    1.9895527   -4.7965668    4948.3009            1 
   92400     1.989238   -4.7772335    4887.5461            1 
   92500     2.023733   -4.7814145    4933.7425            1 
   92600    1.9708183    -4.800593    4959.4916            1 
   92700    2.0360862   -4.7931349    4926.2155            2 
   92800    2.0053988   -4.8376517      4940.76            3 
   92900    1.9556544   -4.8328817    4900.8412            1 
   93000    1.9813656   -4.7942257     4905.022            1 
   93100      1.97014   -4.7846721    4924.5999       -1e+20 
   93200    2.0213106   -4.7761321    4899.0069            3 
   93300     1.973453    -4.782194    4907.5744       -1e+20 
   93400      1.98693   -4.7791285    4953.1751            1 
   93500    2.0152074   -4.7804907    4920.4018            1 
   93600    1.9990432   -4.7916645    4906.6094            1 
   93700    1.9650757   -4.8334429    4914.3966       -1e+20 
   93800    1.9616602   -4.7964283    4906.5131            1 
   93900    2.0101112   -4.7620621    4920.8179       -1e+20 
   94000     2.015896   -4.7787733    4957.7915            1 
   94100    1.9903969   -4.7747252    4954.8025            2 
   94200    2.0116261   -4.8187504    4905.5078            1 
   94300     1.975289   -4.8700609    4895.4026            2 
   94400     1.994618   -4.8122097    4903.2742       -1e+20 
   94500    2.0178974   -4.8086325    4915.6302            2 
   94600    1.9810754   -4.8355322     4909.406            1 
   94700     2.027313   -4.8268026    4900.4395            1 
   94800     1.989139   -4.7812407    4918.0331            1 
   94900    1.9235974   -4.8016461    4882.2794            1 
   95000    2.0035648   -4.8381866    4904.4754            1 
   95100    2.0097077   -4.8548502    4901.2236            1 
   95200    1.9807235   -4.8579121    4878.2642            1 
   95300    1.9392601   -4.7853837    4923.6001            1 
   95400    2.0304717    -4.774161    4906.7554            2 
   95500    1.9493418   -4.7841782    4916.1922            1 
   95600    1.9937405   -4.7865614    4913.5931            1 
   95700    2.0010668   -4.7843806    4906.2308            1 
   95800    1.9565621   -4.8163023    4931.2422            1 
   95900    2.0131352   -4.8196065    4910.0834            1 
   96000    1.9694933   -4.7441206    4906.8848            1 
   96100    2.0422427   -4.8215738    4951.3523            2 
   96200    2.0202762   -4.8126727    4945.1433            1 
   96300    1.9859526   -4.7863113     4916.841            1 
   96400    1.9707035   -4.8252409    4901.7412            1 
   96500    2.0072682   -4.8114604    4917.9781            1 
   96600    1.9952391   -4.8022435    4924.2237            1 
   96700     2.008652   -4.7530916    4946.7743            2 
   96800    1.9762884   -4.7787299    4931.3337            1 
   96900    1.9825847   -4.8055422    4906.5706            1 
   97000     1.998919   -4.7400556    4928.5944            1 
   97100    1.9927265   -4.7721966    4931.6143            1 
   97200    1.9733288   -4.8195715    4890.4882            1 
   97300    1.9890608   -4.8112072    4893.7678            1 
   97400    2.0081282   -4.7842003    4947.7684            1 
   97500    1.9929643   -4.7953783    4913.2987            1 
   97600    1.9993575   -4.8360481    4918.7848            1 
   97700    2.0029377   -4.7916072    4907.9236            2 
   97800    1.9802236   -4.7874349    4912.1091            2 
   97900    2.0355539   -4.8152996    4947.2944            1 
   98000    1.9979344   -4.8097973    4919.6687            2 
   98100    2.0065219   -4.8159945    4893.7811            1 
   98200    1.9526185   -4.8337272    4908.9456            1 
   98300    1.9947139   -4.7797538    4911.2342            1 
   98400    2.0080781   -4.7667466    4920.0358            1 
   98500    1.9925036   -4.7860114    4935.8275       -1e+20 
   98600    1.9969345   -4.8106903    4891.8267            1 
   98700    1.9928798    -4.785708    4925.6595            2 
   98800     2.028955   -4.7941213    4939.3644            1 
   98900    1.9606558   -4.7939238    4926.3714            1 
   99000    2.0150531   -4.8255175     4891.656            1 
   99100    2.0390387    -4.809963     4924.601            1 
   99200    1.9950006     -4.83851    4924.2655            1 
   99300    2.0199054   -4.8068204     4918.479            1 
   99400    2.0028803   -4.7464926    4943.9295            1 
   99500    1.9836664   -4.7958252    4936.1286       -1e+20 
   99600    1.9489576   -4.7917024    4903.8632            2 
   99700    2.0266972    -4.799384    4927.6213       -1e+20 
   99800    1.9927303   -4.7502751     4953.006            1 
   99900    2.0332132     -4.77755    4941.7448            1 
  100000    2.0286963   -4.8224559    4931.2919            1 
  100100    1.9739377   -4.8329802    4924.6096            1 
  100200    2.0048866   -4.8177766    4886.3373            1 
  100300    2.0001119   -4.7912769    4936.3455            1 
  100400    1.9861203   -4.7865833    4931.7333            1 
  100500    2.0435955   -4.7535204    4919.4534            2 
  100600    2.0113874   -4.7821566    4936.9067            1 
  100700    2.0009972   -4.8334456    4937.0484            1 
  100800    2.0406116   -4.7768593    4924.8646       -1e+20 
  100900    1.9974848   -4.7689154    4946.9507            1 
  101000    2.0022218    -4.827329    4908.7599            1 
  101100    1.9893447   -4.8249756    4901.6908            1 
  101200    2.0381769   -4.8168721    4922.6965            1 
  101300    1.9754514   -4.7912973    4937.1685            1 
  101400    2.0608294   -4.8486419    4900.8196       -1e+20 
  101500    1.9677427     -4.84071    4923.1047            2 
  101600    1.9938855   -4.7984781    4923.5169            1 
  101700    2.0202038   -4.8156999    4914.7256            3 
  101800    1.9967095   -4.8368868    4913.9457            1 
  101900    1.9702097   -4.8440946    4889.0902            1 
  102000    1.9948851   -4.7935041    4927.8117            1 
  102100    2.0461992   -4.7890868    4953.4174       -1e+20 
  102200     2.004571    -4.813493     4937.496            1 
  102300    1.9892384   -4.8256269    4926.8851            1 
  102400    2.0230291   -4.7660576    4885.9894            2 
  102500    1.9729385   -4.8103887    4911.3808            1 
  102600    1.9892097   -4.8016067    4925.2284            2 
  102700    2.0091837   -4.7595663    4922.9335            1 
  102800    1.9704193   -4.7729258    4927.5114            2 
  102900    1.9975634   -4.7428855    4950.0165            1 
  103000      2.02805   -4.7713381    4931.4657       -1e+20 
  103100    1.9908588   -4.8151622    4918.9112            1 
  103200     2.030151   -4.7933433    4910.8384            1 
  103300    2.0202912   -4.7956968    4956.2273            1 
  103400    1.9879784   -4.7962412    4907.8513            1 
  103500    2.0200089   -4.8134909    4912.3346            1 
  103600    2.0099162   -4.8080284     4936.279            2 
  103700    1.9922791   -4.7708668    4927.3073       -1e+20 
  103800    2.0231286   -4.7462701    4958.4417            1 
  103900    1.9616075   -4.7493949     4920.077            1 
  104000     1.995455   -4.8140161    4916.9246       -1e+20 
Loop time of 95.2063 on 64 procs for 100000 steps with 4000 atoms

Performance: 181500.620 tau/day, 1050.351 timesteps/s
99.9% CPU use with 64 MPI tasks x no OpenMP threads

MPI task timing breakdown:
Section |  min time  |  avg time  |  max time  |%varavg| %total
---------------------------------------------------------------
Pair    | 6.2137     | 6.313      | 6.4504     |   1.7 |  6.63
Neigh   | 1.3933     | 1.4116     | 1.4573     |   1.1 |  1.48
Comm    | 9.5298     | 11.895     | 14.514     |  29.6 | 12.49
Output  | 4.9856     | 4.9872     | 4.9971     |   0.1 |  5.24
Modify  | 66.034     | 69.346     | 72.152     |  15.5 | 72.84
Other   |            | 1.254      |            |       |  1.32

Nlocal:        62.5000 ave          68 max          53 min
Histogram: 1 1 4 1 13 0 14 12 12 6
Nghost:        1296.31 ave        1326 max        1276 min
Histogram: 5 4 10 12 15 8 4 1 2 3
Neighs:        5807.56 ave        6445 max        4837 min
Histogram: 1 2 2 7 6 10 13 12 6 5
FullNghs:      11615.8 ave       12769 max        9764 min
Histogram: 1 2 3 5 9 8 9 13 8 6

Total # of neighbors = 743413
Ave neighs/atom = 185.85325
Neighbor list builds = 8348
Dangerous builds = 338

#clear
#
#next RN
#
#jump SELF
Total wall time: 0:01:36
