
units lj                  # Use reduced LJ style units
atom_style atomic         # Uncharged point particles
atom_modify map hash      # Needed for indexing of clusters etc
                          # Used to be able to find where atoms are in relation to each other.

lattice fcc 1.0 spacing 1 1 1
Lattice spacing in x,y,z = 1.5874011 1.5874011 1.5874011
region box block 0 10 0 10 0 10 units lattice
create_box 2 box
Created orthogonal box = (0.0000000 0.0000000 0.0000000) to (15.874011 15.874011 15.874011)
  3 by 4 by 4 MPI processor grid
create_atoms 1 box
Created 4000 atoms
  using lattice units in orthogonal box = (0.0000000 0.0000000 0.0000000) to (15.874011 15.874011 15.874011)
  create_atoms CPU = 0.002 seconds
set type 1 type/fraction 2 0.88 78393
Setting atom values ...
  3511 settings made for type/fraction
mass 1 1.0
mass 2 1.0
pair_style lj/cut  3.5
pair_modify tail  yes
pair_coeff 1  1  1.0  1.0   # Intearaction between 1 and 1 set with epsilon = 1 and sigma = 1
pair_coeff 1  2  1.5  0.8
pair_coeff 2  2  0.5  0.88

write_data data.0
System init for write_data ...
Neighbor list info ...
  update every 1 steps, delay 10 steps, check yes
  max neighbors/atom: 2000, page size: 100000
  master list distance cutoff = 3.8
  ghost atom cutoff = 3.8
  binsize = 1.9, bins = 9 9 9
  1 neighbor lists, perpetual/occasional/extra = 1 0 0
  (1) pair lj/cut, perpetual
      attributes: half, newton on
      pair build: half/bin/atomonly/newton
      stencil: half/bin/3d
      bin: standard
WARNING: Not all mixed pair coeffs generated from mixing. Use write_data with 'pair ij' option to store all pair coeffs. (../write_data.cpp:312)


#############################
#   M E L T   S Y S T E M   #
#############################

velocity all create 2.4 8172548 mom yes dist gaussian # Assign velocities
                                                    # Temperature 2.4, random number seed, zero linear momentum
                                                                                # Gaussian distribution

timestep 0.002   # simulation timestep
thermo 1000       # output thermodynamic data every 1000 steps bf 100

# Define a fix  in this case with index 1 applied to all
# particles in the simulation. This fix is for simulations
# in the anisotropic NPT ensemble. Note that we use the MTK
# correction.
fix 1 all npt temp 2.4 2.4 0.1 iso 5.68 5.68 0.5 mtk yes tchain 5 pchain 5 # Use NPT ensemble
                                                                         # Set temperature and pressure and damping
                                                                         # Numbers of thermostats in chain and in barostat
run 10000          # run for 10000 steps
Per MPI rank memory allocation (min/avg/max) = 3.642 | 3.644 | 3.648 Mbytes
Step Temp E_pair E_mol TotEng Press Volume 
       0          2.4   -3.2921436            0   0.30695645   -2.7369977         4000 
    1000    2.4061654   -2.3841158            0      1.22423     5.848736    3950.5851 
    2000    2.3442166   -2.3827982            0    1.1326476    5.7500653    3948.8542 
    3000    2.4120412   -2.3693749            0    1.2477824    5.8249431    3973.3615 
    4000    2.4300066   -2.3697281            0    1.2743705    5.6491367    3992.5738 
    5000    2.4296677   -2.3810985            0    1.2624919    5.7988046    3961.2186 
    6000    2.4157131    -2.424348            0    1.1983157    5.4231987    3970.4619 
    7000    2.4421404   -2.3867841            0    1.2755107    5.6937779    3968.4892 
    8000    2.4055533   -2.3268742            0    1.2805537    5.7770656    4004.3246 
    9000    2.4458607   -2.4330133            0    1.2348606     5.605222    3952.0127 
   10000    2.4168275   -2.3836596            0    1.2406754    5.2965376    4038.5835 
Loop time of 2.5039 on 48 procs for 10000 steps with 4000 atoms

Performance: 690124.028 tau/day, 3993.773 timesteps/s
99.6% CPU use with 48 MPI tasks x no OpenMP threads

MPI task timing breakdown:
Section |  min time  |  avg time  |  max time  |%varavg| %total
---------------------------------------------------------------
Pair    | 1.0954     | 1.1674     | 1.2249     |   2.6 | 46.62
Neigh   | 0.20946    | 0.21643    | 0.2284     |   0.8 |  8.64
Comm    | 0.77322    | 0.85991    | 0.9528     |   4.5 | 34.34
Output  | 0.00024393 | 0.00024874 | 0.00031339 |   0.0 |  0.01
Modify  | 0.21308    | 0.24465    | 0.2808     |   4.3 |  9.77
Other   |            | 0.0153     |            |       |  0.61

Nlocal:        83.3333 ave          95 max          73 min
Histogram: 2 2 7 8 7 11 5 2 1 3
Nghost:        1633.98 ave        1661 max        1580 min
Histogram: 1 0 0 5 5 6 10 7 7 7
Neighs:        9447.10 ave       10948 max        8159 min
Histogram: 2 3 8 7 9 8 4 4 0 3

Total # of neighbors = 453461
Ave neighs/atom = 113.36525
Neighbor list builds = 908
Dangerous builds = 214

# Equilibrate just above the melting temperature to avoid step fn in T

fix 1 all npt temp 1.25 1.25 0.1 iso 5.68 5.68 0.5 mtk yes tchain 5 pchain 5
run 2000
Per MPI rank memory allocation (min/avg/max) = 3.643 | 3.645 | 3.649 Mbytes
Step Temp E_pair E_mol TotEng Press Volume 
   10000    2.4168275   -2.3836596            0    1.2406754    5.2965376    4038.5835 
   11000    1.2449474   -3.5631459            0   -1.6961917    5.9053717     3044.292 
   12000    1.2493935   -3.5557668            0   -1.6821451    5.9316526    3050.9498 
Loop time of 0.628116 on 48 procs for 2000 steps with 4000 atoms

Performance: 550217.187 tau/day, 3184.127 timesteps/s
99.6% CPU use with 48 MPI tasks x no OpenMP threads

MPI task timing breakdown:
Section |  min time  |  avg time  |  max time  |%varavg| %total
---------------------------------------------------------------
Pair    | 0.27503    | 0.2975     | 0.33286    |   2.4 | 47.36
Neigh   | 0.039781   | 0.042229   | 0.045269   |   0.6 |  6.72
Comm    | 0.19963    | 0.23922    | 0.26763    |   3.0 | 38.09
Output  | 5.2637e-05 | 5.4464e-05 | 6.9719e-05 |   0.0 |  0.01
Modify  | 0.040555   | 0.044292   | 0.049376   |   1.0 |  7.05
Other   |            | 0.004815   |            |       |  0.77

Nlocal:        83.3333 ave          91 max          77 min
Histogram: 8 2 6 7 3 8 3 7 1 3
Nghost:        1972.52 ave        1991 max        1953 min
Histogram: 1 7 5 4 3 8 8 6 3 3
Neighs:        12513.0 ave       14366 max       11017 min
Histogram: 4 3 7 10 6 5 5 4 2 2

Total # of neighbors = 600622
Ave neighs/atom = 150.15550
Neighbor list builds = 144
Dangerous builds = 14

#############################
# L I N E A R  Q U E N C H  #
#############################

# Define solid atoms. This closely follows ten Wolde  Ruiz-Montero and Frenkel  Faraday Discuss  1996  104  93-110
# Compute components of the per-atom q6 vector
compute q6 all orientorder/atom degrees 1 6 components 6 nnn NULL cutoff 1.3 # compute the Q6 parameter.
                                                                             # Use all neighbours within 1.3 unit cell.

# get number of connections
compute coord_number all coord/atom orientorder q6 0.5

# An atom is solid if it has 8 or more connections (of a possible 14)
variable is_solid atom c_coord_number>=8
group solid dynamic all var is_solid    # Must be dynamic to update
dynamic group solid defined

# do clustering
compute cluster solid cluster/atom 1.3 # Create a cluster where all atoms within are solid and max 1.3 units from another member

# define chunks one chunk per cluster
compute clus_chunks solid chunk/atom c_cluster nchunk every compress yes  # Says which atoms are in which chunk

# count the size of each chunk
compute size_chunks solid property/chunk clus_chunks count


# Find the maximum entry in the vector of chunk sizes
variable max_n equal max(c_size_chunks)


# Thermo style which includes this variable
# thermo_style custom step temp pe vol v_max_n

thermo ${N}  # Print the thermo information every 100 steps
thermo 1000  

# Reset the npt fix at a lower temperature (below freezing)
fix 1  all npt temp  ${temp} ${temp}  0.1  iso  5.68  5.68  0.5  mtk yes tchain  5  pchain  5
fix 1  all npt temp  0.45 ${temp}  0.1  iso  5.68  5.68  0.5  mtk yes tchain  5  pchain  5
fix 1  all npt temp  0.45 0.45  0.1  iso  5.68  5.68  0.5  mtk yes tchain  5  pchain  5

dump dmp2 all dcd ${N} traj.dcd
dump dmp2 all dcd 1000 traj.dcd


compute msd all msd com yes
variable twopoint equal c_msd[4]/6/(step*dt+1.0e-6)
fix 9 all vector 10 c_msd[4]
variable fit equal slope(f_9)/6/(10*dt)
thermo_style custom step temp pe c_msd[4] v_twopoint v_fit v_max_n

fix 1 all npt temp 1.25 ${temp} 0.1 iso 5.68 5.68 0.5 mtk yes tchain 5 pchain 5
fix 1 all npt temp 1.25 0.45 0.1 iso 5.68 5.68 0.5 mtk yes tchain 5 pchain 5
run 2000000 # 5000000  # Run for this many steps
Neighbor list info ...
  update every 1 steps, delay 10 steps, check yes
  max neighbors/atom: 2000, page size: 100000
  master list distance cutoff = 3.8
  ghost atom cutoff = 3.8
  binsize = 1.9, bins = 8 8 8
  4 neighbor lists, perpetual/occasional/extra = 1 3 0
  (1) pair lj/cut, perpetual
      attributes: half, newton on
      pair build: half/bin/atomonly/newton
      stencil: half/bin/3d
      bin: standard
  (2) compute orientorder/atom, occasional
      attributes: full, newton on
      pair build: full/bin/atomonly
      stencil: full/bin/3d
      bin: standard
  (3) compute coord/atom, occasional
      attributes: full, newton on
      pair build: full/bin/atomonly
      stencil: full/bin/3d
      bin: standard
  (4) compute cluster/atom, occasional
      attributes: full, newton on
      pair build: full/bin/atomonly
      stencil: full/bin/3d
      bin: standard
Per MPI rank memory allocation (min/avg/max) = 9.826 | 9.832 | 9.836 Mbytes
Step Temp PotEng c_msd[4] v_twopoint v_fit v_max_n 
   12000    1.2493935   -3.5557668 3.3682389e-30 2.3390547e-32 8.3333333e+20            1 
   13000     1.265667    -3.570763   0.92161111 0.0059077633  0.077686118            3 
   14000    1.2580331   -3.5654902    1.9122226  0.011382277  0.080080071            1 
   15000    1.2500034    -3.568611     2.994141  0.016634116  0.083140446            1 
   16000    1.2383243   -3.5466334    4.0473598  0.021079998  0.085006991            2 
   17000    1.2574842   -3.5765055    5.0684015  0.024845105  0.086259694            3 
   18000    1.2651763   -3.5813549    6.1136421  0.028303898  0.086338626            3 
   19000    1.2295902   -3.6184472    7.1263859  0.031256078  0.086211192            4 
   20000    1.2519605   -3.6079165    8.1856285  0.034106784  0.086123246            2 
   21000    1.2427212   -3.5809363    9.2082161  0.036540539  0.086149132            2 
   22000    1.2528942   -3.5610791    10.156642  0.038472126  0.085989271            3 
   23000    1.2475298   -3.5682207    11.123478  0.040302456   0.08568746            1 
   24000    1.2274925   -3.5817679    12.092992  0.041989555  0.085223641            4 
   25000      1.22663   -3.5620017     13.17847  0.043928234  0.085004926            2 
   26000    1.2605239   -3.5578275    14.294106   0.04581444  0.084986476            2 
   27000    1.2425922   -3.5686683    15.394538  0.047514007  0.085200875            2 
   28000     1.253567   -3.5290526    16.386225  0.048768525  0.085361308            1 
   29000    1.2204785   -3.5761844    17.430204  0.050086793  0.085468488            2 
   30000    1.2641687   -3.6163157    18.575544  0.051598732   0.08574214            5 
   31000    1.2661946   -3.5926983    19.663527  0.052858942  0.086008411            5 
   32000    1.2436291   -3.5987087    20.760765  0.054064492  0.086266258            2 
   33000    1.2306527   -3.6211384    21.812535  0.055082158  0.086549997            1 
   34000    1.2391429   -3.5761944    22.972679  0.056305585  0.086796895            2 
   35000    1.2489834   -3.5679537    24.068756   0.05730656  0.087072879            1 
   36000    1.2481922    -3.616809    25.211797   0.05836064  0.087311813            1 
   37000    1.2220836   -3.6054996    26.390599  0.059438285  0.087593875            2 
   38000    1.2468104   -3.6267514      27.4824  0.060268421  0.087800471            2 
   39000    1.2145634   -3.5959958    28.512038  0.060923156   0.08796974            2 
   40000    1.2294887   -3.5798685    29.472473  0.061400985  0.088110838            1 
   41000    1.2545831   -3.5994159    30.465921  0.061922603  0.088249051            2 
   42000    1.2320744   -3.5616456    31.626225  0.062750446  0.088347187            2 
   43000    1.2544734     -3.57042    32.658549  0.063291762  0.088350987            2 
   44000    1.2349287   -3.5815105    33.498298  0.063443745  0.088313863            1 
   45000    1.2116204   -3.5952168    34.260086  0.063444602  0.088219669            2 
   46000     1.212118    -3.567973    35.239994  0.063840567  0.088026705            2 
   47000    1.2098112   -3.6229161    36.107458  0.064020315  0.087852863            3 
   48000    1.2564912   -3.5884353    37.068558  0.064355134  0.087649099            2 
   49000    1.2257866   -3.5711672    37.980649  0.064592941  0.087447229            4 
   50000    1.2296986    -3.566471    39.200159  0.065333597  0.087274915            3 
   51000    1.2411935    -3.580697    40.044673  0.065432471  0.087115484            2 
   52000    1.2648084    -3.608859    41.238793  0.066087808  0.087015874            2 
   53000    1.2598635   -3.5915211    42.084559   0.06617069  0.086910414            3 
   54000    1.1910465   -3.6308709    43.248179  0.066741017  0.086778896            1 
   55000    1.2352216   -3.5747101    44.289248   0.06710492  0.086661134            2 
   56000    1.2512152   -3.6231785    44.841617  0.066728597  0.086488117            3 
   57000    1.2412108   -3.6041298     45.82245  0.066991885  0.086318611            2 
   58000    1.2197195   -3.5899232    46.927812  0.067425017  0.086153059            3 
   59000    1.2456536   -3.6319533    48.138026  0.067991562  0.086037122            5 
   60000    1.2415491   -3.5753926     48.98568  0.068035666  0.085922415            1 
   61000    1.2150724   -3.6102925    49.908196  0.068180595  0.085794281            1 
   62000    1.2141577   -3.6235021    50.870507  0.068374336  0.085663781            2 
   63000    1.2372247   -3.5973002    51.965285  0.068737149   0.08553826            3 
   64000    1.2177541   -3.5967831     52.83819  0.068799726   0.08543669            2 
   65000    1.2218686   -3.5951383    53.656068  0.068789831  0.085300369            1 
   66000    1.2209125   -3.5859759    54.497799  0.068810351  0.085147894            1 
   67000    1.2277582   -3.6004671    55.674219  0.069246541  0.085031141            2 
   68000    1.2504333   -3.6184472    56.555524  0.069308239  0.084918939            1 
   69000    1.2430677   -3.6203599    57.507712  0.069453757  0.084816612            1 
   70000    1.2217726   -3.6338671    59.003621  0.070242405  0.084755038            2 
   71000    1.2460725    -3.605565    60.012711  0.070437454  0.084727263            3 
   72000    1.2333095   -3.5973389    61.158862   0.07078572  0.084680691            2 
   73000    1.2387626   -3.6121543    61.801864  0.070550072  0.084646936            2 
   74000    1.2288985   -3.6284248    62.845484   0.07077194  0.084598544            1 
   75000    1.2151466   -3.5917114    63.958183  0.071064647  0.084542819            2 
   76000    1.2226291   -3.6169156    64.407005  0.070621716  0.084476336            2 
   77000      1.21172   -3.5992025    65.460126  0.070844292  0.084379862            2 
   78000    1.1949403   -3.6070995    66.308577  0.070842496  0.084282974            2 
   79000     1.207453   -3.6128283    66.813655  0.070478539  0.084173901            1 
   80000    1.2329436   -3.6119433    68.032964   0.07086767  0.084064646            1 
   81000    1.2353945    -3.608803     68.99453  0.070982026  0.083941682            2 
   82000    1.2154885   -3.5913829    70.173903  0.071314942  0.083846095            1 
   83000     1.238335   -3.5854813     70.76614  0.071050341  0.083747037            1 
   84000    1.2090544   -3.6343899    71.838949  0.071268798   0.08365275            4 
   85000    1.2367399   -3.5768753    73.262503  0.071825983  0.083560118            3 
   86000    1.2004902   -3.6385898    73.690748  0.071405763  0.083463995            2 
   87000    1.2218232    -3.595358    74.753813  0.071603269  0.083361165            1 
   88000    1.2323473   -3.5864389    75.547063  0.071540778  0.083260954            2 
   89000    1.2144628   -3.6121848    76.403509  0.071538865  0.083172509            2 
   90000    1.2207428   -3.6438985    77.154686  0.071439524   0.08306628            2 
   91000    1.2071593   -3.6209676    77.993632   0.07142274  0.082961182            3 
   92000    1.2084106   -3.6400804     79.13342  0.071678822  0.082865594            2 
   93000    1.2209983   -3.6191508    80.150226  0.071819199  0.082782421            2 
   94000    1.2214109   -3.5891031    81.450086  0.072207523  0.082720279            3 
   95000    1.2055258   -3.5690051    82.982802  0.072791931  0.082673202            2 
   96000    1.2298143   -3.6252983    83.448092   0.07243758  0.082615785            1 
   97000    1.1925834   -3.6048275      84.5503  0.072637715  0.082572482            3 
   98000    1.2156983   -3.6341008    84.754692  0.072070316   0.08251422            3 
   99000    1.1760323   -3.6417925    86.225145  0.072580088  0.082448262            2 
  100000    1.2362921   -3.6205505    87.442745  0.072868954  0.082396847            1 
  101000    1.2043981   -3.5877381    88.418724  0.072952742  0.082350403            1 
  102000     1.252506   -3.6031142    89.543269  0.073156265  0.082315113            3 
  103000    1.2022359   -3.5777188    90.067194  0.072869897  0.082283777            6 
  104000    1.1999715   -3.6445564    91.295539  0.073153476  0.082260695            1 
  105000    1.2102903   -3.6307732    92.539257  0.073443855   0.08224459            1 
  106000    1.2287364   -3.6235036    93.931803  0.073845757  0.082237787            2 
  107000    1.1928621   -3.6030798    95.115787  0.074077715  0.082246577            2 
  108000     1.203047   -3.5936898    96.466135  0.074433745  0.082280846            2 
  109000    1.1875897    -3.625601    96.759872  0.073975437  0.082296417            1 
  110000    1.1876051   -3.6483528    97.349948  0.073749961  0.082290523            3 
  111000     1.234862   -3.6169874    98.232052  0.073747786  0.082283472            1 
  112000    1.1976515   -3.6293704     99.62889  0.074128638  0.082274176            2 
  113000    1.1688187   -3.6125464    100.54508  0.074148292   0.08227377            1 
  114000    1.2178525   -3.5985558    101.72306   0.07435896  0.082269619            3 
  115000    1.2022199   -3.6346396     102.3433  0.074161809  0.082267893            1 
  116000    1.2092422   -3.6308967    103.05639  0.074034766  0.082246365            1 
  117000    1.1928826   -3.5861719    104.72045  0.074587217  0.082222889            6 
  118000    1.2304587   -3.6024223    105.42053  0.074449523  0.082207482            2 
  119000    1.1942859   -3.6412708    106.42584  0.074527897  0.082195021            1 
  120000    1.1829787    -3.615147    107.45098  0.074618739  0.082188014            2 
  121000    1.2109933   -3.6689068    108.28571  0.074576932  0.082183466            1 
  122000    1.2143702   -3.6287509    109.28293  0.074646808  0.082181192            2 
  123000    1.2152084   -3.6502356    110.48189  0.074852225  0.082169915            2 
  124000    1.2096215    -3.627815    111.45869  0.074905034  0.082170062            1 
  125000    1.2152728   -3.6334911    113.19767  0.075465111  0.082180504            2 
  126000    1.2059716    -3.630099    113.96466   0.07537345  0.082195827            3 
  127000    1.2129136   -3.6225737    115.20738  0.075595391  0.082216082            2 
  128000    1.2329217   -3.6270446    116.00812  0.075526117  0.082233794            5 
  129000    1.1830058   -3.6208091    117.00468  0.075584419  0.082256996            2 
  130000    1.2159186   -3.6040962    118.53505  0.075984004   0.08228186            1 
  131000    1.1988031    -3.651069    119.28021  0.075877998  0.082304739            2 
  132000     1.197517   -3.6258575    119.48965  0.075435384  0.082317368            1 
  133000    1.1982627   -3.6521315    119.72009  0.075012585  0.082312131            3 
  134000     1.192429   -3.6312103    121.43934  0.075521979  0.082305436            1 
  135000    1.1893001   -3.6301212    121.84108  0.075210544  0.082292526            4 
  136000    1.2068814   -3.6260921    122.85914  0.075281337  0.082272078            2 
  137000    1.1830495   -3.6495011    123.80985  0.075310126  0.082252173            3 
  138000    1.2171172   -3.6375025    125.09319  0.075539364  0.082229584            1 
  139000    1.2046187   -3.6399125    126.07057  0.075581876  0.082216992            1 
  140000    1.1751298   -3.6242621    126.15105  0.075089911   0.08219856            2 
  141000     1.195802   -3.6478355    127.50725  0.075358893  0.082176366            2 
  142000    1.1872176   -3.6202043    128.11988  0.075187725  0.082149861            1 
  143000    1.2011589   -3.6467756     129.1891  0.075285025  0.082122738            3 
  144000    1.2188479   -3.6422531    130.57965  0.075566926  0.082094224            1 
  145000    1.2056285   -3.6247417    130.87273  0.075214215  0.082061273            2 
  146000    1.2038557   -3.6513567    132.19113  0.075451558  0.082029658            1 
  147000    1.2017931   -3.6437844    132.39298  0.075052709  0.081998289            2 
  148000    1.2123579   -3.6463131    133.19382   0.07499652  0.081961143            3 
  149000    1.1948023   -3.6390086    134.63656  0.075300092  0.081932653            2 
  150000    1.2003866    -3.651119    135.65714  0.075365075  0.081903218            2 
  151000    1.1663404   -3.6393106    137.27544  0.075759073  0.081869588            1 
  152000    1.1833931   -3.6306913    137.63611  0.075458396  0.081837664            3 
  153000    1.1811519   -3.6561935    138.27293  0.075312051  0.081806295            1 
  154000    1.1795866   -3.6542775    138.82844  0.075123617  0.081778269            3 
  155000    1.1753187   -3.6575554    140.38072  0.075473505  0.081746851            2 
  156000    1.1952344     -3.63976    141.53154  0.075604456  0.081719173            1 
  157000    1.1789178   -3.6773576    141.89139  0.075313903  0.081694789            3 
  158000    1.2237838    -3.632288    142.98934  0.075416318  0.081665765            1 
  159000    1.2036334   -3.6692098    144.29306  0.075625294  0.081637212            1 
  160000    1.2060466   -3.6589998    145.26097  0.075656753   0.08160825            1 
  161000    1.1761191    -3.683438     146.0394  0.075589753  0.081584208            2 
  162000    1.1833825   -3.6428327    147.23381  0.075737558  0.081563636            3 
  163000     1.183599   -3.6394511    147.93306    0.0756304  0.081537056            2 
  164000    1.1867583   -3.6536868    148.61726  0.075516898  0.081509568            3 
  165000    1.1923334   -3.6363201    149.82338  0.075668376  0.081482249            2 
  166000    1.1842942   -3.6225796    150.80796  0.075706806  0.081451175            3 
  167000    1.1684151    -3.655796    152.09503  0.075895725  0.081426316            1 
  168000    1.2148379   -3.6635526    152.84947  0.075818189   0.08140583            1 
  169000    1.1925268   -3.6587627    153.56811  0.075723921  0.081378747            2 
  170000    1.1764092   -3.6461842      154.869  0.075916177  0.081357993            1 
  171000    1.1721553   -3.6374217     155.2943  0.075679485  0.081330141            1 
  172000    1.1501803   -3.6490937    157.55198  0.076333324  0.081310977            6 
  173000    1.1860187   -3.6670303     157.4058  0.075821678  0.081291893            8 
  174000    1.1699117   -3.6757389    157.73641  0.075544258  0.081269464            2 
  175000     1.194573   -3.6654113    158.63811  0.075541959  0.081245747            3 
  176000    1.1879532   -3.6698657    159.35138  0.075450462  0.081219128            1 
  177000    1.1865091   -3.6635987    161.07683  0.075836547  0.081188622            1 
  178000    1.1814723   -3.6562546    161.78947  0.075744135   0.08115593            1 
  179000     1.212369   -3.6909368     162.7968  0.075789942  0.081129904            2 
  180000    1.1762344   -3.6684246    163.60319  0.075742219  0.081102328            3 
  181000    1.1865532   -3.6604159    164.79805  0.075873873  0.081072948            4 
  182000    1.2025118   -3.6761928    165.43682  0.075749458  0.081042596            1 
  183000    1.1894776   -3.6867645    165.24182  0.075246732  0.081000241            2 
  184000    1.1891258   -3.6871782    165.99057  0.075176889  0.080954759            3 
  185000    1.1692139   -3.6840562     166.9713  0.075212295  0.080909409            1 
  186000    1.1580703   -3.6576837    168.17464  0.075347063  0.080858865            1 
  187000    1.1842175   -3.6748968    168.21332  0.074961373  0.080805671            2 
  188000    1.1584612    -3.670108    168.87498  0.074855929  0.080750303            3 
  189000    1.1976913   -3.6852934    170.64314  0.075239479  0.080707089            3 
  190000     1.189687   -3.6956257    170.84725  0.074933003   0.08065826            1 
  191000    1.1869792   -3.6810575    171.63019  0.074882281  0.080610025            2 
  192000    1.1808103   -3.6593811    172.31501  0.074789502  0.080559503            3 
  193000    1.1734208   -3.6850138    173.26265  0.074811162  0.080504762            4 
  194000    1.1798681   -3.6856699    174.50087  0.074957418  0.080449711            2 
  195000    1.1614579   -3.6504039    175.34992  0.074935862   0.08040398            2 
  196000    1.1905202   -3.7331166    176.06051  0.074855657  0.080357386            2 
  197000    1.1619677   -3.6636052     176.3692  0.074606261  0.080305804            1 
  198000    1.1821472   -3.6948471    177.63235   0.07476109  0.080252049            1 
  199000    1.1778817   -3.6833792    178.37961  0.074698329  0.080193795            1 
  200000    1.1842388   -3.6831102    179.32437  0.074718488  0.080135152            1 
  201000    1.1605172   -3.6811647    179.35445  0.074359223  0.080079343            3 
  202000    1.1898913   -3.6457413    181.07523  0.074701002  0.080026979            3 
  203000    1.1754832   -3.6760065    182.24432  0.074812941   0.07997793            2 
  204000    1.1798034   -3.6899518    183.33777  0.074892879  0.079928172            5 
  205000    1.1563597   -3.6965933    183.30497  0.074514215   0.07987907            3 
  206000    1.1618935   -3.6842751    184.20725  0.074517497  0.079829645            4 
  207000    1.1750054   -3.6641637    186.34732  0.075019048  0.079781978            1 
  208000    1.1691819   -3.6734917    186.32311  0.074648681  0.079734857            2 
  209000    1.1670172   -3.6883543    187.03511  0.074575401  0.079686755            1 
  210000    1.1764153   -3.6607599    188.07263  0.074631997  0.079635987            1 
  211000    1.1829973   -3.6892748     189.1362  0.074698342  0.079585756            1 
  212000    1.1548382   -3.6830538    190.19493  0.074762157  0.079539829            2 
  213000    1.1448369   -3.6558967     191.7119  0.075004654  0.079495922            1 
  214000    1.1584014    -3.694053    191.12927  0.074427285  0.079449704            2 
  215000    1.1768659   -3.6976578    192.13985  0.074472811  0.079400848            2 
  216000    1.1658187   -3.6834188    193.51777  0.074659635  0.079355928            2 
  217000    1.1720573   -3.6678437    194.50832  0.074695976  0.079317324            2 
  218000      1.14856   -3.6970147       195.22  0.074625382  0.079279084            3 
  219000    1.1598301   -3.6866854    196.31431   0.07470103    0.0792394            5 
  220000    1.1696883   -3.6623355    197.23056  0.074708547  0.079198324            3 
  221000     1.170962    -3.664903    198.34555  0.074790931   0.07915789            2 
  222000    1.1807573   -3.6994454    199.30375  0.074813719  0.079117702            2 
  223000    1.1736872   -3.6726284    200.01431  0.074743764  0.079074323            3 
  224000    1.1653711   -3.6643025    200.43881  0.074568009  0.079036251            2 
  225000    1.1573166   -3.6870849    201.34554  0.074572423  0.078995075            5 
  226000    1.1529603     -3.69506     202.1775  0.074549225  0.078955032            1 
  227000    1.1802315     -3.71288    203.25241  0.074615422  0.078915182            1 
  228000    1.1534481   -3.6688015    203.90664   0.07452728  0.078873063            2 
  229000    1.1532539   -3.7131727    204.12947  0.074282922  0.078832782            1 
  230000    1.1784417   -3.6832158    206.70603  0.074893489  0.078796019            2 
  231000    1.1646777   -3.6845206     206.4091  0.074462155  0.078757253            3 
  232000    1.1576957   -3.7117852    207.24039  0.074439793  0.078714786            1 
  233000    1.1736915   -3.7026117    208.36561   0.07452275  0.078671376            3 
  234000    1.1600741    -3.700975    209.47064  0.074597805  0.078630691            2 
  235000    1.1700367   -3.6909125    210.28671  0.074569756  0.078592901            2 
  236000    1.1639121   -3.6765241    210.37141  0.074283691  0.078554187            3 
  237000    1.1911541   -3.6793802    211.50098  0.074367432  0.078514827            2 
  238000    1.1819354   -3.6925206    212.89085  0.074541614  0.078475502            3 
  239000    1.1767284   -3.7334434    212.91346  0.074237609  0.078436959            5 
  240000    1.1535134   -3.6973885    214.31469  0.074414822   0.07839755            1 
  241000    1.1746978   -3.7623651    212.91594  0.073622386  0.078353989            3 
  242000    1.1558005   -3.6978754    214.40019  0.073829268   0.07830325            1 
  243000    1.1639054   -3.6839894    215.94023  0.074053575  0.078252262            1 
  244000    1.1436708   -3.6915756    216.07926  0.073797562  0.078198275            2 
  245000    1.1594064   -3.6851299    216.91025  0.073778995  0.078143694            2 
  246000    1.1712889   -3.6796626    217.83985  0.073793987  0.078086726            1 
  247000    1.1533378   -3.6880518    218.88704  0.073848529  0.078030883            1 
  248000    1.1353748   -3.7355005    218.65641  0.073473257  0.077970917            2 
  249000    1.1467925   -3.7062225    218.86658   0.07324852  0.077913416            2 
  250000    1.1548883   -3.6962457    220.30869  0.073436231  0.077851517            1 
  251000    1.1783973   -3.7339913    221.18019  0.073432996  0.077787862            1 
  252000    1.1510228   -3.6801412    222.33261  0.073522689  0.077729783            1 
  253000    1.1695073   -3.6924094    223.42513   0.07359194  0.077675283            2 
  254000    1.1320666   -3.7373753    223.75849  0.073411577  0.077622095            2 
  255000    1.1543979   -3.6967925    224.51883  0.073372167  0.077566522            1 
  256000    1.1622519   -3.6915185    225.24225  0.073321044  0.077510282            1 
  257000    1.1623122   -3.7148788    225.52629   0.07312785  0.077451927            2 
  258000    1.1514972   -3.6945335    226.44567  0.073141367  0.077398144            3 
  259000    1.1634919   -3.7004049    227.57881  0.073223555  0.077345964            2 
  260000    1.1732063   -3.6925906    229.12849  0.073438619  0.077294359            3 
  261000    1.1201979   -3.7126895    229.53125  0.073285838  0.077242743            2 
  262000    1.1768176   -3.7302556    230.75014   0.07339381  0.077191533            2 
  263000    1.1462698   -3.7044532    230.94258  0.073175723  0.077142026            2 
  264000    1.1275756   -3.7084941    231.16534  0.072968856  0.077093399            3 
  265000    1.1610206   -3.7200903    231.83037  0.072902633  0.077043271            3 
  266000    1.1349158   -3.7051989    233.53518   0.07316265  0.076992657            2 
  267000    1.1515786   -3.7130751    235.42059  0.073477088  0.076947615            3 
  268000    1.1573939   -3.7052611    236.15313  0.073430701  0.076901288            2 
  269000    1.1662575   -3.6690994    236.01649  0.073115395  0.076852618            2 
  270000    1.1293413   -3.7055669    237.64094   0.07334597  0.076804969            2 
  271000    1.1397761   -3.7242279    237.23455  0.072950354  0.076758621            3 
  272000    1.1383181   -3.7043907    238.27815  0.073001884  0.076713013            1 
  273000     1.140072    -3.729763    240.37246  0.073373766  0.076671114            1 
  274000    1.1515399    -3.717898     241.7803  0.073534153  0.076632033            1 
  275000    1.1684568   -3.7256636    243.73414  0.073858831  0.076597129            1 
  276000    1.1550097    -3.724045     242.6644  0.073268236  0.076562181            2 
  277000    1.1535771   -3.7464549    242.88691   0.07307067  0.076525376            2 
  278000    1.1521488   -3.7439068     244.7831   0.07337623  0.076486608            2 
  279000    1.1407644   -3.7100776    246.38734  0.073592394  0.076450866            7 
  280000    1.1351072   -3.7137069    246.19188  0.073271392  0.076417065            2 
  281000    1.1549772   -3.7354314    246.08003  0.072977471  0.076377036            2 
  282000     1.153286   -3.7474889    246.55899  0.072860223  0.076336234            4 
  283000     1.137018   -3.7114408      248.928  0.073300352  0.076295527            6 
  284000    1.1549771   -3.7067324    248.59422  0.072944314  0.076254288            2 
  285000    1.1453764   -3.7528594    250.48104  0.073240071  0.076215059            2 
  286000    1.1332957   -3.7165487    251.42521  0.073259093  0.076175682            2 
  287000     1.122708   -3.7270655    252.24699  0.073242448  0.076137715            5 
  288000    1.1325146   -3.7485993    253.38065  0.073316161  0.076102396            2 
  289000    1.1129827   -3.7175772    254.34265  0.073339863  0.076069764            4 
  290000    1.1695308   -3.6993861    255.38935  0.073387744  0.076039964            2 
  291000    1.1495939   -3.7343597    255.07641  0.073045935  0.076009702            1 
  292000    1.1129473   -3.7239715    255.97707  0.073052818   0.07597599            2 
  293000    1.1375912   -3.7478473    255.53797  0.072678605   0.07594137            1 
  294000    1.1599319   -3.7189348    257.63651  0.073026222  0.075907625            1 
  295000    1.1729628   -3.7718945     258.7002  0.073079152  0.075875719            4 
  296000    1.1305525   -3.7513887    260.91461   0.07345569  0.075846561            4 
  297000     1.128142   -3.7201404    261.01157  0.073235569  0.075818175            1 
  298000    1.1254532   -3.7625035    262.15129  0.073308525  0.075788362            2 
  299000     1.133816   -3.7285861    262.89236  0.073269887  0.075758781            3 
  300000    1.1428755    -3.738805    262.57476  0.072937434  0.075727199            1 
  301000    1.1395971   -3.7006485    264.07343  0.073110029  0.075698415            2 
  302000    1.1334871   -3.7284427    263.96776  0.072838786  0.075666046            2 
  303000    1.1282815   -3.7620146    265.29596  0.072963686  0.075636191            4 
  304000    1.1453729   -3.7250468    268.19224   0.07351761  0.075609298            2 
  305000    1.1124442   -3.7526375    268.18291   0.07327402  0.075583826            2 
  306000     1.125092   -3.7551507    267.93122  0.072966019  0.075555749            1 
  307000    1.1279189   -3.7318222    270.16934  0.073335869  0.075527255            1 
  308000     1.131874   -3.7361719     268.8412  0.072738419  0.075498333            3 
  309000    1.1232699   -3.7348195    270.42402  0.072929886    0.0754702            2 
  310000    1.1338088    -3.759364    272.21148   0.07317513  0.075442542            2 
  311000    1.1238028   -3.7636629     272.4872  0.073013719  0.075415334            4 
  312000    1.1125457   -3.7066059    273.79863  0.073129976  0.075388617            1 
  313000    1.1534917   -3.7705664    272.70928  0.072606303  0.075360993            1 
  314000    1.1268978   -3.7470255    274.84854  0.072942819  0.075334405            2 
  315000    1.1421429   -3.7339447    275.53475   0.07289279  0.075308862            4 
  316000    1.1160467   -3.7544082    276.95947  0.073037835   0.07528114            3 
  317000    1.1183613   -3.7533878    276.82178  0.072771236  0.075251224            2 
  318000    1.1242727   -3.7358216    277.40834  0.072696107  0.075220407            3 
  319000    1.1134886   -3.7692778    276.72047  0.072288523  0.075188404            3 
  320000    1.1064573   -3.7468857    279.85244   0.07287824  0.075155961            1 
  321000    1.1208921   -3.7548225    280.36968  0.072785482  0.075127219            2 
  322000    1.1326996   -3.7170363    280.54421   0.07260461  0.075096786            1 
  323000    1.1477371   -3.7331856    281.98087  0.072750483  0.075068288            3 
  324000    1.1279356   -3.7249028    283.84079  0.073004318  0.075039787            2 
  325000    1.1250954   -3.7543159    283.67323  0.072736724  0.075013426            1 
  326000    1.1210079   -3.7674227    284.03412  0.072605859  0.074988969            6 
  327000    1.1102479     -3.75507    285.49175  0.072755288  0.074962576            2 
  328000    1.0927854   -3.7760722    285.95754  0.072651814  0.074935208            2 
  329000    1.1336529   -3.7567822    285.05983  0.072203604  0.074905852            3 
  330000    1.1085942   -3.7470125    287.87216   0.07269499  0.074878297            2 
  331000    1.1132476   -3.7177623    289.91484  0.072989637  0.074852344            2 
  332000    1.1159044   -3.7546492    289.89126  0.072763869  0.074823148            2 
  333000    1.1172474   -3.7355723    291.09232  0.072845925  0.074792559            5 
  334000    1.1459079   -3.7485461    290.73574  0.072538858  0.074764141            2 
  335000    1.1243593   -3.7343169    291.15674  0.072427051  0.074734062            1 
  336000    1.1301185   -3.7761801    293.36328  0.072758751  0.074704047            5 
  337000     1.134309    -3.717749    294.35728  0.072788644  0.074675867            1 
  338000    1.1047004   -3.7334958    295.12738  0.072763161   0.07464796            2 
  339000    1.1344672   -3.7884929    293.52514  0.072154656  0.074619645            2 
  340000    1.1107205   -3.7566464    296.41341  0.072650345  0.074591353            3 
  341000    1.1136414    -3.740868    298.78337  0.073016463  0.074565927            4 
  342000    1.1190791   -3.7545816    298.60118  0.072758571  0.074540897            2 
  343000     1.135688   -3.7535616    298.62928  0.072553274  0.074517303            3 
  344000    1.1247464   -3.7462114    300.23316    0.0727309  0.074495369            1 
  345000    1.1141295   -3.7263986    301.37935  0.072796945  0.074472545            3 
  346000    1.1034059   -3.7727996    300.18063  0.072297839  0.074451099            3 
  347000    1.1076388   -3.7609984    302.00883  0.072528539  0.074427404            1 
  348000     1.146059   -3.7593405    302.58476  0.072458037  0.074403995            1 
  349000    1.1078699   -3.7861762    301.78052  0.072058386  0.074380459            2 
  350000    1.1244205   -3.7620216     305.0262  0.072625286  0.074356382            3 
  351000    1.1005964   -3.7862161    304.17071  0.072215269  0.074331969            5 
  352000    1.1295943    -3.789763      303.583  0.071870975  0.074306021            2 
  353000    1.1035748   -3.7639305    305.31514  0.072076283  0.074279355            2 
  354000     1.107455   -3.7810356    305.89301  0.072008712  0.074253686            2 
  355000    1.0991008   -3.7550617      308.225  0.072353287  0.074226742            4 
  356000    1.1282255   -3.7932539    308.55911  0.072228256  0.074198832            2 
  357000    1.1303485   -3.7822523    308.87092  0.072098722  0.074171157            2 
  358000    1.1278894   -3.7635484    309.14381  0.071960849  0.074143873            2 
  359000    1.1008869   -3.7647472    310.59654  0.072097618  0.074116104            1 
  360000    1.1250454   -3.7553255    311.10676  0.072015454  0.074088931            3 
  361000    1.0984568   -3.8325229    311.36853  0.071876392   0.07405769            5 
  362000    1.1028261   -3.7640761    313.28836  0.072119788  0.074029584            2 
  363000    1.1089908   -3.8010799    312.31836   0.07169843  0.073999262            2 
  364000    1.1186454   -3.7881713    313.49702  0.071771297  0.073970346            3 
  365000    1.1036237   -3.7361796    315.33414  0.071994096  0.073941898            2 
  366000    1.1024384    -3.809776    314.76365  0.071667498  0.073912527            2 
  367000    1.1203782   -3.7902412    318.78883  0.072386201  0.073886245            2 
  368000    1.1230781   -3.8008754    315.73353  0.071497628  0.073859056            2 
  369000    1.1314128   -3.7976494    317.43712  0.071688599  0.073831857            2 
  370000    1.0999128   -3.7834745    319.30151  0.071914755  0.073805019            2 
  371000    1.0994085   -3.7932349    320.69082  0.072032978  0.073778041            2 
  372000    1.1167872   -3.7826665    320.83677  0.071872037  0.073747784            2 
  373000    1.0950321   -3.7463389    320.52594  0.071609906   0.07371818            2 
  374000    1.1056118   -3.7954016    320.74858  0.071468043  0.073686753            2 
  375000    1.1139665   -3.7737733    322.37734  0.071639409  0.073658524            3 
  376000    1.1462159   -3.7764515    323.73654   0.07175012  0.073630047            2 
  377000    1.1277988   -3.8050401    323.31716    0.0714671  0.073599699            1 
  378000    1.1152642   -3.8059048    323.86391  0.071398569  0.073571553            4 
  379000    1.0724093   -3.8138246      326.225  0.071729331  0.073542079            2 
  380000    1.1303666   -3.8059187    326.25851  0.071547918   0.07351316            1 
  381000    1.0858922    -3.784146    328.20185   0.07178518  0.073488011            3 
  382000    1.0846377   -3.7827769    328.60365  0.071684914  0.073462616            2 
  383000     1.095109   -3.7257762    329.07014  0.071599248   0.07343631            3 
  384000    1.0898221   -3.7622574    329.47237   0.07150008  0.073408552            3 
  385000    1.1057244   -3.7829229    329.75674  0.071375918  0.073381091            4 
  386000    1.0907238    -3.788209    330.93403   0.07144517   0.07335415            3 
  387000    1.0806208   -3.7905929    333.19348  0.071747088  0.073327973            4 
  388000    1.1068183   -3.7918333    332.83425  0.071485018   0.07330079            4 
  389000    1.0965772   -3.7866631    334.39601   0.07163582  0.073272956            2 
  390000    1.0865953    -3.802572    333.55925  0.071273344  0.073244893            7 
  391000    1.1127515   -3.8243419    335.09661  0.071418715  0.073217698            2 
  392000    1.1007547   -3.8267918    336.10058  0.071449953   0.07319146            2 
  393000    1.1175891   -3.8217715    336.51044  0.071355055  0.073164181            3 
  394000     1.093021   -3.8058531    336.90242  0.071256857  0.073136805            3 
  395000    1.0963676   -3.8052958    338.50677   0.07141493  0.073111103            3 
  396000    1.1073238   -3.8246279    338.90627   0.07131866  0.073085048            2 
  397000    1.0999773   -3.8043979    341.59108  0.071702578  0.073058792            2 
  398000    1.0947542   -3.8113267    341.49234  0.071501747   0.07303461            2 
  399000    1.0914735   -3.7938835    341.94968  0.071418061  0.073009054            2 
  400000    1.1059622   -3.8333637    342.13645  0.071278426  0.072982452            4 
  401000     1.084484   -3.7839959    343.89301  0.071465713   0.07295784            4 
  402000    1.1098657   -3.8066499    343.79264  0.071267132  0.072934062            3 
  403000     1.087082   -3.7905796    345.20066  0.071381444  0.072910379            2 
  404000    1.1190111   -3.7753571    345.25138  0.071215218  0.072885197            1 
  405000    1.0861453   -3.7872201    346.18479  0.071231438  0.072859308            2 
  406000    1.1124995   -3.7759901    348.90471  0.071614268  0.072833636            2 
  407000     1.101787   -3.7805797    348.31214  0.071316981  0.072808935            3 
  408000    1.1166301   -3.7977225    349.01149  0.071285026  0.072783108            1 
  409000    1.1180954   -3.7882276    348.38238  0.070982556  0.072756973            2 
  410000    1.1074789   -3.7671224    350.59644  0.071259438   0.07273073            2 
  411000     1.088439   -3.7942489    350.64626   0.07109616  0.072705087            3 
  412000    1.0794157     -3.78152    351.37687  0.071071372  0.072678459            2 
  413000    1.0813676   -3.7750615    352.44635  0.071115082  0.072650355            3 
  414000    1.0854241   -3.7587391    351.98126  0.070849689  0.072624959            1 
  415000    1.1016996   -3.8396923    353.13576  0.070910795  0.072598908            3 
  416000    1.0678863   -3.7943609    355.03182  0.071120156  0.072572383            4 
  417000    1.0944855   -3.7773961    354.09749  0.070762888  0.072546733            2 
  418000    1.0780626   -3.7922082    356.95498  0.071163274  0.072521023            2 
  419000    1.1068212    -3.786066    356.16366  0.070836049  0.072494756            2 
  420000    1.0745224   -3.7852994     356.7766  0.070789007  0.072470115            3 
  421000    1.0961469   -3.8200039    357.53684  0.070771346  0.072445206            2 
  422000    1.0984226   -3.8282419    358.58025  0.070809686  0.072420414            4 
  423000    1.1043963   -3.8077724    360.93968  0.071107108   0.07239631            2 
  424000    1.0859888   -3.8074887     361.2552  0.071001415  0.072374479            3 
  425000    1.1144297   -3.8277938    361.73752  0.070928926  0.072351168            2 
  426000    1.0703086   -3.8029679     362.0015  0.070814066  0.072327713            3 
  427000    1.0948121    -3.795019    363.46558  0.070933953  0.072303229            2 
  428000     1.095536   -3.7896005    363.91249  0.070855235  0.072278328            2 
  429000    1.0637452   -3.8159369    364.85222  0.070872614  0.072254314            3 
  430000    1.0835978   -3.8561475    364.61149  0.070661142  0.072230077            2 
  431000    1.0880731   -3.8262638    365.93268  0.070752645  0.072205859            2 
  432000    1.0753831   -3.8213313    366.24544  0.070649198  0.072182344            1 
  433000    1.0555849    -3.796549    367.88261  0.070801119   0.07215632            5 
  434000     1.076153   -3.8206024    368.15012  0.070689347   0.07213118            2 
  435000    1.0765006   -3.8262078    370.76087  0.071026986  0.072105728            3 
  436000     1.096055   -3.7900332    371.75628  0.071054335  0.072082183            3 
  437000    1.0663264   -3.7982814    371.79736  0.070899572  0.072059216            3 
  438000    1.0972368   -3.8115893    371.90486  0.070758154  0.072037308            2 
  439000    1.0886853   -3.8386444    371.28833  0.070479941  0.072015014            5 
  440000    1.0857504     -3.81797    372.90053    0.0706251   0.07199236            2 
  441000    1.0851249   -3.8066338    374.59885  0.070785874  0.071968158            2 
  442000    1.0921439    -3.819108    375.51102  0.070797703  0.071944955            4 
  443000    1.0820448   -3.7971296    375.62264  0.070658886   0.07192247            4 
  444000    1.0776908   -3.8528746    373.78952  0.070155691  0.071896532            5 
  445000    1.0555273   -3.8005925    376.52075  0.070509505  0.071871632            2 
  446000    1.0754554   -3.8674465    375.60401  0.070180122  0.071847761            2 
  447000    1.0716573   -3.8138092    377.56855  0.070389364  0.071824171            2 
  448000    1.0574571   -3.8167015    380.51447   0.07078022  0.071802145            3 
  449000    1.0638708   -3.8402908    379.26963  0.070391542  0.071779769            2 
  450000    1.0613667   -3.8132872    381.25044  0.070601933  0.071757724            5 
  451000    1.0634709   -3.8444504     381.2355  0.070442627  0.071734179            3 
  452000    1.0494557   -3.8290159    381.53216  0.070341474  0.071710861            3 
  453000    1.0368817   -3.8315908    383.99044  0.070638418  0.071687238            3 
  454000    1.1016999   -3.8419969    383.92615  0.070471027  0.071664599            1 
  455000    1.0701221   -3.8100886    385.10546  0.070532136  0.071642888            2 
  456000    1.0708675    -3.819697    385.72142  0.070490025  0.071620578            3 
  457000    1.0720797   -3.8244538    386.01682  0.070389646  0.071597526            3 
  458000    1.0716015   -3.8554031    384.87467  0.070028143  0.071575606            3 
  459000    1.0901044     -3.83508    387.61871  0.070373768  0.071552837            2 
  460000    1.0624704   -3.8204563    388.96331  0.070464368  0.071532049            1 
  461000    1.0650102   -3.8284534    388.90034  0.070300134  0.071512163            5 
  462000    1.0932866   -3.8177699    389.09413  0.070182924  0.071489871            4 
  463000    1.0464432   -3.7847309    393.66036  0.070853196  0.071471246            1 
  464000    1.0612291    -3.805418    393.18644   0.07061538  0.071453294            3 
  465000    1.0634179   -3.8372055    393.69717  0.070555049  0.071435134            2 
  466000    1.0698185   -3.8404617    395.69101  0.070760195  0.071416672            1 
  467000    1.0305541   -3.8188159    396.10128  0.070681884  0.071398139            3 
  468000    1.0618682   -3.8585372    393.88556  0.070136317   0.07137884            3 
  469000    1.0710031   -3.8524793    396.10078  0.070380381  0.071359171            1 
  470000    1.0546416    -3.813376    396.94373  0.070380094   0.07133918            1 
  471000    1.0543291   -3.8290796    396.90329  0.070223511  0.071317222            3 
  472000     1.022989   -3.8365027    395.78417  0.069877148  0.071294939            2 
  473000    1.0628912   -3.8251661    396.90664  0.069927173  0.071272577            2 
  474000    1.0849793   -3.8211709    398.20464  0.070007847  0.071249751            2 
  475000    1.0578442   -3.8314772    399.92606  0.070162466  0.071225937            4 
  476000    1.0778856   -3.8366191    399.22534  0.069892392  0.071201191            3 
  477000    1.0646345   -3.8535324    398.21413  0.069569206  0.071176401            2 
  478000    1.0435401   -3.8565107     400.0033  0.069735583   0.07115041            3 
  479000    1.0522481   -3.8128766    400.45813  0.069669124  0.071124822            3 
  480000    1.0598025   -3.8442925    400.52713  0.069535961  0.071099513            2 
  481000    1.0650098    -3.859951    401.69866  0.069594363   0.07107393            3 
  482000    1.0691188   -3.8684415    403.30677  0.069728002  0.071047689            3 
  483000    1.0469637   -3.8646875    403.24398  0.069572806  0.071020575            3 
  484000    1.0654977   -3.8552561    402.30711  0.069267754  0.070992929            2 
  485000    1.0442531    -3.827288    405.31111  0.069641085  0.070965997            3 
  486000    1.0425127   -3.8335899    404.62753  0.069380577  0.070939487            2 
  487000    1.0543844   -3.8596721    405.37418  0.069365877  0.070911594            2 
  488000     1.043039   -3.8473146    406.91094  0.069486158  0.070885756            2 
  489000    1.0608013   -3.8271661    408.30493  0.069581617  0.070859623            4 
  490000    1.0228854   -3.8149328    409.05404  0.069567014  0.070834447            1 
  491000    1.0679003   -3.8560575    410.20889  0.069621332  0.070808484            4 
  492000    1.0344021   -3.8462408    408.75026  0.069232768  0.070782537            6 
  493000    1.0699774   -3.8408065    410.33732  0.069360602  0.070756016            5 
  494000    1.0725572   -3.8477006    410.14087  0.069187057  0.070727965            2 
  495000    1.0498577   -3.8654247    409.12188  0.068875737  0.070699713            2 
  496000    1.0516297     -3.83442    412.01014  0.069222134  0.070670519            3 
  497000    1.0591352   -3.8669184    412.44154  0.069155188  0.070643124            3 
  498000    1.0610897   -3.8482274    412.65051  0.069051291  0.070614849            2 
  499000    1.0504141   -3.8558317      412.869  0.068949398  0.070585818            2 
  500000    1.0668309   -3.8676342    414.17782  0.069029636  0.070556347            2 
  501000    1.0749164   -3.8713587    413.73367  0.068817976  0.070527051            2 
  502000    1.0594063   -3.8701341    414.04726  0.068732945  0.070497389            3 
  503000    1.0555083   -3.8413584    416.78927  0.069050575  0.070468258            2 
  504000    1.0610863   -3.8582409    417.86671  0.069091718  0.070439593            4 
  505000    1.0598083   -3.8701996    415.68133  0.068594278  0.070410479            2 
  506000    1.0584433   -3.8524535    418.40644  0.068907516   0.07038248            2 
  507000     1.044094   -3.8943981    418.14683  0.068728933  0.070354344            2 
  508000    1.0645934    -3.843777    419.69238  0.068847175  0.070326128            1 
  509000    1.0251585   -3.8735371    419.30389  0.068648312   0.07029826            3 
  510000    1.0529129    -3.850513    421.06609  0.068801648  0.070269452            2 
  511000    1.0472594   -3.8649221    419.77488  0.068456438  0.070239185            2 
  512000    1.0484347   -3.8604843    421.49468   0.06860265  0.070208773            3 
  513000     1.070016     -3.85143    421.07347  0.068400498  0.070179114            2 
  514000    1.0624852   -3.8566612    424.27895  0.068787118  0.070148692            2 
  515000    1.0628113   -3.8803493    422.54794  0.068373453  0.070118726            5 
  516000    1.0411722   -3.8832892    422.86412   0.06829201  0.070088178            4 
  517000     1.068285   -3.8759272    424.43031  0.068412365  0.070057601            3 
  518000    1.0454939   -3.8830617    424.08215  0.068224284  0.070026903            4 
  519000    1.0429716   -3.8437989    425.28559   0.06828606  0.069994094            2 
  520000    1.0451889   -3.9108247    423.70416  0.067901307  0.069961331            3 
  521000    1.0658783   -3.8983404    425.05592  0.067987191   0.06992906            5 
  522000    1.0315255   -3.8716854    426.06308  0.068017733   0.06989765            3 
  523000    1.0459855   -3.8805843    424.22513  0.067594826   0.06986514            3 
  524000    1.0482834   -3.8590363    428.45655  0.068138765  0.069831465            2 
  525000    1.0466322   -3.8692409    429.41772  0.068161543  0.069799006            2 
  526000     1.043717    -3.885213    428.84748  0.067941616  0.069766192            1 
  527000    1.0406762   -3.8630793    430.77668  0.068117754  0.069734384            2 
  528000    1.0455943   -3.8571279    431.09508  0.068038996  0.069703218            3 
  529000    1.0444768   -3.8866774    429.50992  0.067660668   0.06967179            3 
  530000    1.0523578   -3.8508174    432.97287  0.068077495  0.069640482            3 
  531000    1.0614501   -3.8919679    434.24581   0.06814906  0.069609864            4 
  532000    1.0568429   -3.8613643    433.09837  0.067841223  0.069579059            2 
  533000     1.042087   -3.8567089    434.40922   0.06791889  0.069548142            3 
  534000    1.0347889   -3.8822137    433.67772  0.067677547  0.069516012            4 
  535000    1.0158011   -3.8613132    435.51257  0.067836849  0.069483059            2 
  536000    1.0227824   -3.8664985    435.97769  0.067782601  0.069451291            1 
  537000    1.0504439   -3.8996633    434.14341  0.067371728  0.069417982            2 
  538000    1.0356902   -3.9046037    434.82892  0.067352683  0.069382755            3 
  539000    1.0449673   -3.8573899    436.84439   0.06753933  0.069348321            2 
  540000    1.0289496   -3.8817759    435.52703  0.067210962  0.069314346            6 
  541000    1.0406072   -3.8588884    437.17007  0.067339814  0.069280514            3 
  542000    1.0395642   -3.8860983    438.37341  0.067400585  0.069245967            2 
  543000    1.0480971   -3.8528187    439.29907  0.067418519   0.06921315            2 
  544000    1.0451797   -3.8662965    439.73694  0.067361664  0.069179816            5 
  545000    1.0526582   -3.8951584    440.18301  0.067306271  0.069146246            7 
  546000    1.0401161   -3.8469159    442.28906  0.067504435  0.069112726            3 
  547000    1.0238937   -3.9050522    441.60591  0.067276951  0.069078566            4 
  548000    1.0067011   -3.8723934     442.5357  0.067295575   0.06904324            2 
  549000    1.0245396   -3.8796321    441.91077  0.067078137   0.06900661            3 
  550000    1.0281298   -3.8699871    441.13422  0.066838517  0.068969242            3 
  551000    1.0234396   -3.8607537    443.01414  0.067001533  0.068931709            2 
  552000    1.0402975   -3.8413473    443.23168  0.066912995  0.068894098            5 
  553000    1.0332878   -3.9071146    442.87071  0.066737599  0.068858039            3 
  554000    1.0068525   -3.8790979    445.90218  0.067073132  0.068821312            2 
  555000    1.0307163   -3.8795132    443.01923  0.066519404  0.068783947            5 
  556000    1.0203996    -3.878415    443.39076   0.06645545   0.06874539            3 
  557000    1.0252988   -3.8736078    444.65825   0.06652577  0.068706391            4 
  558000    1.0356721   -3.8976531    444.16857  0.066333418  0.068667672            3 
  559000    1.0287451   -3.8875715    445.41843  0.066401077  0.068629546            2 
  560000    1.0292029   -3.8956825    446.83641  0.066493514  0.068591156            2 
  561000    1.0403067   -3.9022947    448.24835  0.066584721  0.068555219            3 
  562000    1.0325412   -3.8567586     449.4946  0.066651038  0.068518836            2 
  563000    1.0201302   -3.9108967    449.76563  0.066572769    0.0684824            4 
  564000    1.0194242   -3.8672197    450.78716  0.066605668  0.068446114            2 
  565000    1.0051469   -3.8916949    449.64368  0.066319126  0.068409151            3 
  566000    1.0257045   -3.8865564    451.74546  0.066511404  0.068372176            2 
  567000    1.0562738   -3.8719084    451.16363  0.066308588  0.068335023            2 
  568000    1.0172664   -3.9014346    452.09761  0.066328875  0.068298344            2 
  569000    1.0508373   -3.8711021    454.52633  0.066568004  0.068263856            3 
  570000    1.0313608   -3.9218704    453.82041  0.066348013  0.068229483            1 
  571000    1.0298023   -3.9011555    455.16633  0.066428244  0.068193197            3 
  572000    1.0055015   -3.9031221    455.31299  0.066333478  0.068157567            2 
  573000    1.0383455   -3.9257732    456.52737  0.066394324  0.068122318            5 
  574000    1.0053852   -3.9130825    455.51537  0.066131732   0.06808692            2 
  575000    1.0260922   -3.8849776     455.5631  0.066023638  0.068051287            2 
  576000    1.0266239   -3.8840746     458.1123  0.066277821  0.068015756            2 
  577000    1.0277506   -3.9041892    457.49503  0.066073806  0.067978851            3 
  578000    1.0327304   -3.9245179    455.54842  0.065678838  0.067942382            3 
  579000    1.0102081   -3.8770957    460.95352   0.06634334  0.067905779            3 
  580000    1.0221387   -3.8976789    458.82153  0.065922633  0.067870089            1 
  581000    1.0332985   -3.9294119    458.82369  0.065809479  0.067833471            5 
  582000    1.0202088   -3.9041271     459.1782  0.065747165   0.06779642            3 
  583000    1.0188843   -3.8815095    460.98425  0.065892546  0.067759992            3 
  584000    1.0005058   -3.9384375    459.18042   0.06552232  0.067723505            2 
  585000    1.0107197   -3.9134545    461.76689  0.065778759  0.067686577            2 
  586000    1.0437936   -3.9370142    461.59488  0.065642047  0.067650031            4 
  587000    1.0091079   -3.9448448    461.41075  0.065504081  0.067613051            5 
  588000    1.0353981   -3.9010891    464.08017  0.065770998  0.067576141            3 
  589000    1.0169399   -3.8684565    466.25669  0.065967273  0.067539589            4 
  590000    1.0212297   -3.8709147    465.48164  0.065745994   0.06750433            1 
  591000    1.0233998   -3.9334639    465.71986  0.065668339  0.067468141            2 
  592000    1.0405044    -3.879277    465.47322  0.065522694  0.067431835            3 
  593000    1.0272501     -3.94284    466.15037   0.06550736  0.067395345            4 
  594000    1.0123923   -3.9242799    468.72638  0.065758471  0.067360555            2 
  595000    1.0330356   -3.8825621    469.02729  0.065690097  0.067325053            1 
  596000    1.0036042   -3.9188283    468.47414  0.065502536   0.06728996            5 
  597000    1.0344379    -3.934385    468.96597   0.06546147   0.06725428            2 
  598000    1.0176338   -3.8949102    470.60804  0.065580831  0.067218779            6 
  599000    1.0298546    -3.909012    471.97954   0.06566215  0.067182132            3 
  600000     1.028448   -3.9093588    470.01867  0.065280371  0.067145172            3 
  601000    1.0128576   -3.9499288    470.90055  0.065294031  0.067107973            4 
  602000    1.0151017   -3.9212409    469.42312  0.064981052  0.067070407            4 
  603000    1.0126366    -3.923723    469.91904  0.064941824  0.067033025            2 
  604000    1.0311612   -3.9339341    472.49895  0.065190252  0.066996128            2 
  605000    1.0101882   -3.9228471    471.96622  0.065009121  0.066959268            1 
  606000    1.0031309   -3.8981776    474.68525  0.065275749  0.066922591            3 
  607000    1.0254178   -3.9027207    474.88303  0.065195363  0.066886271            2 
  608000   0.99843697   -3.8996853    474.32397  0.065011509  0.066849067            4 
  609000     1.019902   -3.9395456    475.61243  0.065081065  0.066812214            4 
  610000    1.0191398   -3.9611166    475.78702  0.064998226  0.066775121            6 
  611000    1.0048833   -3.9108979    477.21294  0.065086325  0.066738453            3 
  612000    1.0362575   -3.9308015    475.05552   0.06468621  0.066701648            1 
  613000    1.0180652   -3.9432553    476.07371  0.064719102  0.066664171            3 
  614000    1.0005869   -3.9588824    476.05841  0.064611619  0.066626051            7 
  615000   0.97565399   -3.9234813    478.80657  0.064878939  0.066588913            2 
  616000    1.0120356   -3.9255163    478.08439  0.064675919  0.066551525            3 
  617000    1.0142752   -3.9266807    478.10233  0.064573518  0.066514431            3 
  618000   0.98907153   -3.9242235    479.50528  0.064658209  0.066477224            3 
  619000     1.021294   -3.9457116    480.02229  0.064623357  0.066441102            2 
  620000    1.0314394   -3.9374648    482.49557  0.064851556  0.066405001            6 
  621000     1.008644   -3.9279421    482.94776  0.064807805  0.066369541            6 
  622000    1.0085255   -3.9265719    484.14015  0.064863365  0.066334371            5 
  623000   0.99520135   -3.9201843    483.08302  0.064617847  0.066298103            3 
  624000   0.98854569   -3.9413039    483.58798  0.064581728  0.066262741            2 
  625000    1.0059888   -3.9335955    484.71946  0.064629262  0.066226853            2 
  626000    1.0023517    -3.938874    484.49937  0.064496721  0.066190679            2 
  627000    1.0132132    -3.922981    484.90918  0.064448323  0.066154122            2 
  628000   0.97737405    -3.918128    486.53127  0.064560943  0.066118346            4 
  629000    1.0110056   -3.9322254    487.21952  0.064549486  0.066082106            4 
  630000    1.0162603   -3.9251279    485.38798  0.064204759   0.06604637            6 
  631000    1.0171008   -3.9428585    486.20289  0.064210629  0.066009494            3 
  632000   0.99872841   -3.9387362    485.79769  0.064055603  0.065973167            4 
  633000    1.0120796   -3.9632801     488.6125  0.064324973  0.065937762            2 
  634000    1.0070926   -3.9470633    488.81858  0.064250602  0.065902745            1 
  635000   0.98148871   -3.9669569     490.2106    0.0643321   0.06586695            5 
  636000    1.0048489   -3.9476128    490.89181  0.064320206  0.065831662            3 
  637000    1.0070364   -3.9565624      491.022  0.064236264  0.065796657            5 
  638000   0.99586564   -3.9659903    491.53422  0.064202484  0.065761973            2 
  639000    0.9923301   -3.9574901    491.69993  0.064123621   0.06572699            3 
  640000    1.0170235   -3.9301539    493.15257  0.064212574   0.06569207            4 
  641000   0.99925081   -3.9535054    493.61661  0.064172727  0.065656446            2 
  642000   0.99393211   -3.9460336     492.3462  0.063907866  0.065620426            3 
  643000   0.98692032   -3.9454652    493.17833   0.06391632  0.065584191            5 
  644000    1.0107317   -3.9441336    496.17233  0.064204494  0.065548477            5 
  645000    1.0046375   -3.9396964    496.50766  0.064148277  0.065512772            2 
  646000   0.99463697    -3.945838    496.24756  0.064015423  0.065477364            2 
  647000   0.98590116   -3.9612943    497.83034  0.064120342  0.065442458            2 
  648000    1.0134886   -3.9632442    496.68152  0.063873653  0.065408418            3 
  649000   0.99852923   -3.9552405    496.70227  0.063777898  0.065374614            2 
  650000    1.0152746   -3.9254206    499.26029  0.064007729  0.065340718            4 
  651000   0.99157531   -3.9634995    496.04549  0.063497887  0.065305701            3 
  652000   0.99155222    -3.968758     496.8709  0.063505994  0.065269994            2 
  653000    0.9933327   -3.9400615    498.51694  0.063618803  0.065234625            2 
  654000     1.006684    -3.943039     501.6241  0.063917444   0.06520011            3 
  655000   0.99256389   -3.9318159    502.47705  0.063928378  0.065165962            2 
  656000    0.9833574   -3.9608181    501.68594  0.063730429  0.065132019            6 
  657000   0.99351953   -3.9411536    503.18837  0.063823994  0.065097784            3 
  658000    1.0061125   -3.9588597     503.8423  0.063809815  0.065063081            3 
  659000    0.9844193   -3.9821579    503.76232  0.063702873  0.065028552            4 
  660000   0.99779141   -3.9721445    501.93993  0.063376254  0.064993412            2 
  661000   0.98834487   -3.9451061    503.84842  0.063520981  0.064958656            1 
  662000   0.99984387   -3.9560394    503.50862  0.063382254   0.06492254            3 
  663000    0.9988708   -3.9523811     502.2921  0.063133748  0.064885988            2 
  664000   0.98676794   -3.9651412    504.93464  0.063370312   0.06485075            3 
  665000   0.96796239   -3.9898433    503.23957  0.063062602  0.064815328            5 
  666000    0.9885214    -3.971879    507.00227  0.063438722  0.064779799            2 
  667000    1.0182352   -3.9575104    505.82393  0.063196393  0.064744462            5 
  668000   0.97204279   -3.9460916     507.5641  0.063318875  0.064709568            2 
  669000   0.98559033   -3.9944293    508.50872  0.063341894  0.064674765            3 
  670000   0.99740031   -3.9678604    509.37603  0.063355228  0.064640962            3 
  671000    1.0063202   -3.9415512    507.57238  0.063036809  0.064606768           12 
  672000   0.99491556   -3.9569903    509.49273  0.063181142  0.064572852            2 
  673000   0.98097761   -3.9479189    510.14942  0.063168576  0.064538761            5 
  674000   0.99504592   -3.9199223    510.07061  0.063065111  0.064503684            2 
  675000   0.99442071   -3.9604848    509.56783  0.062909608  0.064469436            3 
  676000   0.97992772   -3.9688264    510.65942  0.062951112  0.064434622            8 
  677000   0.97171753   -3.9874087    512.48907  0.063083341  0.064399732            3 
  678000   0.96402136   -3.9610437    513.08977  0.063064131    0.0643658            6 
  679000   0.99944925   -3.9459007    512.42133  0.062889216  0.064331834            2 
  680000   0.95523091   -3.9813224    512.99195   0.06286666  0.064296763            3 
  681000   0.99047724    -3.961608    515.62053  0.063096002  0.064262598            3 
  682000   0.96934568   -3.9761246    516.94993  0.063165924  0.064229131            5 
  683000     1.009445   -3.9606755    516.08087  0.062967407  0.064195385            4 
  684000   0.96909438   -3.9426481    516.41733  0.062916341  0.064160874            2 
  685000   0.95431108   -3.9997964    518.18312  0.063039309  0.064127712            2 
  686000   0.96990279   -3.9623692    517.03043  0.062807389  0.064095219            2 
  687000   0.95706965   -3.9646328    517.95478   0.06282809  0.064061357            4 
  688000   0.96907512    -3.984345     519.5358  0.062928271  0.064027934            5 
  689000   0.95242301   -3.9907334    519.30658  0.062809214  0.063994174            2 
  690000   0.98261101    -3.943554    520.73841  0.062891112  0.063961691            5 
  691000    1.0015212    -3.954434    521.59723   0.06290367  0.063929236            2 
  692000    1.0076856   -3.9649817    520.78905  0.062715444  0.063897275            3 
  693000   0.97043455   -3.9657952    520.62602  0.062605342  0.063864167            2 
  694000   0.98255772   -3.9624779    521.05868  0.062567085  0.063830773            2 
  695000   0.97654807   -3.9816903    522.08319  0.062599903  0.063796575            4 
  696000   0.98448627   -3.9449227    523.59136  0.062690536  0.063763107            2 
  697000   0.96408566   -4.0028849    522.23146  0.062438003  0.063729595            1 
  698000   0.98098174   -3.9811919    522.56115  0.062387912  0.063696221            4 
  699000   0.96970268    -3.993821    522.80727  0.062328001  0.063663266            2 
  700000   0.97849277   -3.9730014    525.55814  0.062566446  0.063630092            6 
  701000   0.95839115   -3.9848967    524.49168  0.062350414  0.063596941            3 
  702000   0.97486058   -3.9808038    525.92671  0.062431945  0.063563353            7 
  703000   0.98946432   -3.9644989    525.56743  0.062300549  0.063529784            3 
  704000   0.97033869   -3.9954698    525.53901  0.062208689  0.063496224            6 
  705000   0.97505952   -3.9877439    525.52903  0.062119271  0.063462834            3 
  706000   0.97684246   -3.9956835    526.42359  0.062136873  0.063430173            3 
  707000   0.98108871   -3.9775838    529.94023  0.062463488  0.063397254            4 
  708000   0.98029285   -4.0051841    529.87198  0.062367229  0.063365704            5 
  709000   0.96056159   -3.9810132    529.88776  0.062281119  0.063334082            3 
  710000   0.98272127   -3.9776446    531.98643  0.062439722  0.063302882            5 
  711000   0.95164736     -3.98576    531.61363  0.062308207  0.063271653            1 
  712000   0.97121763   -4.0210195      532.143  0.062282655  0.063240246            3 
  713000   0.99201566   -3.9964922     533.8289  0.062392345  0.063208964            3 
  714000   0.95651915    -3.994223     532.2248   0.06211774  0.063177736            3 
  715000   0.98148442   -4.0001178    531.91398  0.061994636  0.063145834            1 
  716000   0.98335038   -3.9929216    532.89117  0.062021784  0.063114011            3 
  717000   0.96702868   -4.0015159    532.37369  0.061875139  0.063082586            6 
  718000   0.96429289   -3.9923601    534.90202  0.062082407  0.063049836            3 
  719000   0.97792622   -3.9867937    534.84861  0.061989871  0.063017426            3 
  720000   0.96675633   -4.0202369      534.877   0.06190706  0.062985638            6 
  721000   0.95332707   -3.9825228    538.47042  0.062236525  0.062954659            4 
  722000   0.97618016    -3.993028    538.57594  0.062162504  0.062923185            7 
  723000   0.97922381   -4.0064624    538.98006  0.062123105  0.062891779            3 
  724000   0.96693998   -3.9959052    540.13151  0.062169833  0.062860815            3 
  725000   0.96859674   -3.9730217    540.04504  0.062074143  0.062830534            3 
  726000   0.95817267   -4.0155201    537.89726   0.06174211  0.062800003            2 
  727000   0.96667995   -4.0136254    539.80457  0.061875811   0.06276908            3 
  728000   0.95170541   -3.9891664    541.71278  0.062009247   0.06273826            2 
  729000   0.95143047   -3.9982544    540.60595  0.061797662  0.062706658            6 
  730000   0.98958854   -4.0024829    541.16945  0.061777334  0.062675279            6 
  731000   0.95243902   -3.9917966    542.16882   0.06180675  0.062643524            1 
  732000   0.95310128   -3.9967299    541.82762  0.061683473  0.062612035            3 
  733000   0.95760084   -4.0149061    542.03083  0.061622423  0.062580106            5 
  734000   0.94616006   -4.0082526    541.42676  0.061469887  0.062547881            2 
  735000   0.94374797   -3.9800142    542.69962  0.061530569  0.062515917            4 
  736000   0.97332049   -3.9970994    543.02113   0.06148337  0.062483673            2 
  737000   0.95642206   -3.9664948    543.55711  0.061460551  0.062451596            3 
  738000   0.94586545   -4.0273781    543.29807   0.06134802  0.062418306            2 
  739000   0.95362251   -4.0259723    543.24522  0.061259046  0.062386512            3 
  740000   0.95684561   -4.0280201    543.81862  0.061240836  0.062354525            4 
  741000   0.97724405   -4.0014462    547.26851  0.061546166  0.062323848            2 
  742000     0.966805    -3.978892    550.30741  0.061804516  0.062292807            1 
  743000   0.97344317   -4.0047355    549.71444  0.061654827  0.062262427            4 
  744000   0.94739668   -4.0198915    549.69307  0.061569564  0.062232141            2 
  745000   0.97162137   -3.9935713    548.41106  0.061343519  0.062201681            3 
  746000   0.96791307   -3.9664375    550.75833  0.061523495  0.062171152            2 
  747000   0.95883147   -4.0051163     552.1823  0.061599989   0.06214139            3 
  748000   0.96303697   -4.0264331    550.58361  0.061339529  0.062111147            3 
  749000   0.95108141   -4.0212432    549.41921  0.061128083   0.06208088            2 
  750000   0.96295945   -4.0103773    552.90093  0.061433437  0.062049814            5 
  751000   0.97749035   -4.0168189    552.31835   0.06128699  0.062019357            6 
  752000   0.96405026   -4.0343983    551.40026  0.061103753  0.061989203            3 
  753000   0.95981887   -4.0025313    553.95936  0.061305817  0.061958451            7 
  754000   0.93667541   -3.9823131    553.33718  0.061155744  0.061927392            6 
  755000   0.97714095   -4.0047214    554.95655  0.061253482  0.061896576            2 
  756000   0.93979606   -4.0152708    554.13752  0.061082178  0.061865578            2 
  757000    0.9523144   -4.0205898    552.91117  0.060866487   0.06183348            7 
  758000   0.97498281    -4.030609    553.28899  0.060827725  0.061801301            2 
  759000   0.95462148   -4.0182199    552.93076  0.060708252  0.061769254            6 
  760000   0.96175566   -4.0146795    553.99649   0.06074523  0.061737115            2 
  761000   0.93888032   -4.0395695    553.84084  0.060648362  0.061704455            5 
  762000   0.95061721   -4.0066752    555.96297   0.06080085  0.061672879            2 
  763000   0.94449891   -4.0259913    555.17089  0.060634654  0.061641313            5 
  764000    0.9438359   -4.0272217    556.92636  0.060746767  0.061609517            5 
  765000   0.95769404   -4.0219846    559.04731  0.060898399  0.061577828            2 
  766000   0.96482182   -4.0225121     556.6996   0.06056349  0.061546743            4 
  767000   0.96768499   -4.0357835    557.64818   0.06058759   0.06151527            4 
  768000   0.95122914   -4.0377183    559.76418    0.0607383   0.06148378            3 
  769000   0.96044497   -4.0229069    560.35797  0.060723664  0.061452797            3 
  770000   0.94961744   -4.0427157    557.76946  0.060364661  0.061421019            2 
  771000   0.94111209   -4.0359992    561.09864    0.0606462  0.061388141            3 
  772000    0.9326783   -4.0441174    558.16345  0.060250804  0.061355832           12 
  773000   0.95679246   -4.0427222    559.45528  0.060312126   0.06132279            4 
  774000   0.92522242   -4.0222973    560.88926  0.060388594  0.061290219            3 
  775000    0.9445063   -4.0309275    561.40751  0.060366399  0.061258333            4 
  776000   0.96937764   -4.0393231    562.13143  0.060366348  0.061227001            3 
  777000   0.94702752    -4.025739     562.1436  0.060289961  0.061194935            2 
  778000   0.96161597   -4.0121597    564.04111  0.060415715  0.061163135            2 
  779000   0.95078097   -4.0219996    564.37515  0.060373893  0.061131729            2 
  780000   0.93075872    -4.032901    563.90406  0.060246161  0.061099787            5 
  781000   0.93287959   -4.0421852    564.36286  0.060217975  0.061067566            5 
  782000   0.95067817   -4.0192707    564.52483   0.06015823  0.061035302            6 
  783000   0.96252575   -4.0190631    563.57734   0.05998056   0.06100328            4 
  784000   0.94388779   -4.0484461    563.01712  0.059844507  0.060970876            4 
  785000   0.97343127   -4.0566839    563.31012  0.059799376  0.060937925            4 
  786000   0.94800603   -4.0438984    565.26908  0.059930988  0.060905059            5 
  787000   0.94056284   -4.0313631    564.65421   0.05978973  0.060872251            2 
  788000   0.93668182   -4.0292108    564.22202  0.059668149  0.060840318            3 
  789000   0.94264442    -4.052941    568.54412   0.06004902  0.060808291            2 
  790000   0.93501365   -4.0455151    566.80883  0.059789961  0.060776323            4 
  791000    0.9321604     -4.02018    566.25444  0.059655967  0.060743547            3 
  792000   0.93893542   -4.0433128    568.26117  0.059791789  0.060711586            1 
  793000   0.94697988   -4.0422451    568.32086  0.059722663  0.060679049            6 
  794000   0.93472674   -4.0155407    568.49042  0.059665241  0.060646495            3 
  795000   0.92993823   -4.0602144    569.08692  0.059652717  0.060613826            4 
  796000    0.9406464   -4.0231694    570.00882   0.05967429  0.060581805            3 
  797000   0.91791253   -4.0555222    571.27728  0.059732045  0.060550099            3 
  798000   0.93712106   -4.0429111    571.95851  0.059728333  0.060518399            3 
  799000   0.95593527   -4.0563804     569.3455   0.05938105  0.060486927            4 
  800000   0.91758244   -4.0449888    571.72959  0.059555166  0.060454691            2 
  801000   0.94254806   -4.0557233    571.14544  0.059420042  0.060423036            3 
  802000   0.95144065   -4.0546728     572.3426  0.059470345  0.060391615            3 
  803000   0.94217131   -4.0358005    572.54567  0.059417359  0.060359786            3 
  804000   0.92700014    -4.063331    574.01602  0.059495856  0.060327496            2 
  805000   0.94350946   -4.0689571    571.50001  0.059161492  0.060295367            4 
  806000   0.93943087   -4.0308473    572.96858  0.059239928   0.06026284            6 
  807000   0.90494343   -4.0448377    571.89788  0.059055956  0.060229863            2 
  808000   0.94293777   -4.0649262     573.8794  0.059187232  0.060196372            3 
[...]
 1800000   0.54066569   -4.8028582    782.12052  0.036209283  0.035079383            9 
 1801000   0.52934895   -4.8015196    783.08857  0.036233971  0.035057725            9 
 1802000     0.532399   -4.7865675    781.77208  0.036152982  0.035036061           19 
 1803000   0.52953049   -4.8035764    782.03829  0.036145234   0.03501441           13 
 1804000   0.53797895    -4.798616    780.96664  0.036075695  0.034992719           20 
 1805000   0.53169426   -4.8057824    781.53329  0.036081869  0.034971075           20 
 1806000   0.52883658   -4.8245885    780.01015  0.035991609  0.034949371           12 
 1807000   0.53624988   -4.8284118    780.46705  0.035992762  0.034927613           48 
 1808000   0.52917863   -4.8378309    781.08383  0.036001283  0.034905896           35 
 1809000   0.52763478   -4.8180541    780.36192  0.035948126  0.034884237           12 
 1810000   0.53901016   -4.8308206    782.30698  0.036017817  0.034862607           26 
 1811000   0.54268212   -4.8084138    782.37086  0.036000868  0.034840978            9 
 1812000   0.53579071   -4.8055091    782.38985  0.035981873  0.034819404           19 
 1813000   0.52231031   -4.8150135    781.85933  0.035937642  0.034797834           11 
 1814000   0.52702882   -4.8112086    781.17452  0.035886371  0.034776237           18 
 1815000   0.51522029   -4.8207568    780.29182  0.035826071  0.034754713           14 
 1816000   0.52629277   -4.8073645    782.93548  0.035927656  0.034733237           12 
 1817000   0.54404709    -4.816203    783.11935  0.035916316  0.034711751           35 
 1818000   0.54162924   -4.8439125    779.76919  0.035742995  0.034690185           21 
 1819000   0.53393768   -4.8249543    781.46281  0.035800935   0.03466862           16 
 1820000   0.53837402   -4.8396716     781.7762  0.035795614  0.034647012           20 
 1821000   0.52485306    -4.829129    782.59489  0.035813422  0.034625381           11 
 1822000   0.53191321   -4.8332169    782.66497  0.035796971  0.034603784           19 
 1823000   0.52699888    -4.829861    784.35711  0.035854686  0.034582282           37 
 1824000   0.51325363   -4.8045605    783.59569  0.035800242  0.034560829           24 
 1825000   0.52705282   -4.8253427    782.35627  0.035724031  0.034539413           31 
 1826000   0.52669692   -4.8382895    781.68242  0.035673714  0.034517779           16 
 1827000   0.53151481   -4.8127063    780.77214  0.035612668  0.034496165           20 
 1828000    0.5164776   -4.8321248    781.19539  0.035612481  0.034474542           31 
 1829000   0.52627261   -4.8052853    779.96327  0.035536872  0.034452954           25 
 1830000   0.51439524   -4.8230755    780.96966  0.035563282   0.03443139           17 
 1831000   0.52604738    -4.821782    780.92467  0.035541811  0.034409842           14 
 1832000   0.51044041   -4.7930825    781.14249  0.035532318  0.034388321           20 
 1833000   0.53086182   -4.8170876    782.68194  0.035582922  0.034366824           13 
 1834000   0.52236956     -4.83106    780.92889  0.035483864  0.034345316           27 
 1835000   0.51492278   -4.8125114    780.32509  0.035437107  0.034323739           12 
 1836000   0.51973629   -4.8038635    780.80209  0.035439456  0.034302206           13 
 1837000    0.5289988   -4.8203268    779.93401  0.035380784   0.03428067           20 
 1838000   0.51809502   -4.8254615    781.18205   0.03541812  0.034259145           18 
 1839000   0.51769204   -4.8307952    780.33506  0.035360479  0.034237656           15 
 1840000   0.51706998   -4.8285173    782.25042  0.035428008   0.03421611           18 
 1841000   0.51651182   -4.8442401    779.54054  0.035286101  0.034194616           28 
 1842000   0.51164827   -4.8226894    781.36211  0.035349354  0.034173171           44 
 1843000   0.51877217   -4.8329625     781.5099  0.035336856  0.034151744           42 
 1844000   0.51009096   -4.8335194    781.95786  0.035337937  0.034130311           37 
 1845000   0.53213134    -4.844081    780.22782  0.035240642  0.034108888           32 
 1846000    0.5170216   -4.8322227    778.59751  0.035147955  0.034087414           33 
 1847000   0.51346484   -4.8248865    781.55912  0.035262548   0.03406596           31 
 1848000   0.50700348   -4.8349258    781.09017   0.03522232  0.034044623           17 
 1849000   0.51447554   -4.8218882    781.57864  0.035225286  0.034023248           18 
 1850000   0.51562475   -4.8305854    778.87159  0.035084306  0.034001842           12 
 1851000   0.52580579   -4.8444328    781.59132  0.035187796  0.033980508           13 
 1852000   0.52007661   -4.8416068    781.67119   0.03517239   0.03395914           38 
 1853000    0.5052198   -4.8464125    780.83638  0.035115865   0.03393783           17 
 1854000   0.52228061   -4.8423514    779.99763  0.035059225  0.033916468           10 
 1855000    0.5101485   -4.8407859    779.47089  0.035016662  0.033895123           18 
 1856000   0.51239367    -4.847464    780.38735  0.035038944  0.033873813           24 
 1857000   0.50955327   -4.8397747     781.6105  0.035074964   0.03385248           26 
 1858000   0.51965677   -4.8482304    780.95085    0.0350265  0.033831189           20 
 1859000   0.50872708   -4.8402392    779.20353  0.034929331   0.03380985           24 
 1860000   0.50491991   -4.8393463    781.28001  0.035003585  0.033788554           16 
 1861000   0.50182449   -4.8458359    781.17088  0.034979889  0.033767297           15 
 1862000    0.5154821   -4.8718654    781.16139  0.034960678  0.033746025           73 
 1863000   0.51491469   -4.8623164       781.78  0.034969583  0.033724791           34 
 1864000   0.50974944   -4.8650478    779.40538  0.034844661   0.03370351           44 
 1865000   0.51711917   -4.8597828    780.48093  0.034874036  0.033682176           57 
 1866000   0.50709556   -4.8595294    780.92733  0.034875283  0.033660999           19 
 1867000   0.50491867   -4.8595862    780.36145  0.034831345  0.033639788           52 
 1868000   0.51048907   -4.8649829    780.91639  0.034837455  0.033618582           31 
 1869000   0.50360554   -4.8513498    782.36314  0.034883322  0.033597466           10 
 1870000   0.50473505   -4.8460053    779.62145  0.034742489  0.033576274           17 
 1871000    0.5021459   -4.8565873    781.49094  0.034807186  0.033555025           13 
 1872000   0.51315356   -4.8611793    779.81488  0.034713981  0.033533743           16 
 1873000   0.50421761   -4.8506829    779.40234  0.034677093  0.033512502           17 
 1874000   0.51019697   -4.8602652    778.79978  0.034631794   0.03349126           20 
 1875000   0.50671598   -4.8775179    780.96604  0.034709602  0.033469964           32 
 1876000   0.51116168   -4.8766968    780.61732  0.034675609  0.033448676           22 
 1877000   0.50679304   -4.8764344    781.68118  0.034704368  0.033427491           11 
 1878000   0.49862361   -4.8773509    779.89652  0.034606697  0.033406289           16 
 1879000   0.50039528    -4.879338    779.33204  0.034563245  0.033385091           10 
 1880000    0.5014151   -4.8714302     780.1373  0.034580554  0.033363947           38 
 1881000   0.49916895   -4.8601579    781.71308  0.034631981  0.033342791           37 
 1882000   0.49332347   -4.8542057    780.68423  0.034568023  0.033321702           32 
 1883000   0.50336516   -4.8595381    781.91731  0.034604236  0.033300644           16 
 1884000   0.49493807   -4.8580742    780.25578  0.034512375  0.033279581           10 
 1885000   0.49399526   -4.8760463     782.2628  0.034582794  0.033258513           11 
 1886000   0.50729572   -4.8868908    781.08155  0.034512264  0.033237488           19 
 1887000   0.50179254   -4.8765446    779.00775  0.034402391  0.033216437           34 
 1888000   0.51414573   -4.8568553    780.99096  0.034471705  0.033195376           19 
 1889000   0.49434657   -4.8507371    780.41432  0.034428018  0.033174352           16 
 1890000   0.50067432   -4.8623388    780.80719  0.034427125  0.033153376           20 
 1891000   0.49124745    -4.878385    781.20468  0.034426436  0.033132404           20 
 1892000   0.50063778   -4.8734712    781.40963  0.034417267   0.03311141           12 
 1893000   0.49540816   -4.8739551    779.19998  0.034301813  0.033090441           19 
 1894000   0.48784475   -4.8796819    780.82508  0.034355204  0.033069463           18 
 1895000   0.50532508   -4.8991246    780.78551  0.034335335  0.033048428           17 
 1896000   0.50214706   -4.8781804    781.97259    0.0343694  0.033027387           18 
 1897000   0.49450189   -4.8972392    780.02279  0.034265629  0.033006428           28 
 1898000   0.49973974   -4.8891286    780.57959  0.034272023  0.032985489           31 
 1899000   0.49117361   -4.8846392    783.15864  0.034367151  0.032964573           11 
 1900000   0.50749532   -4.8792212     781.6919  0.034284732  0.032943711           43 
 1901000   0.50106041   -4.8691873    781.11595  0.034241449  0.032922857           15 
 1902000   0.49030567   -4.8937612    779.03297  0.034132184  0.032901989           13 
 1903000   0.49190224   -4.8871641    780.55482  0.034180891  0.032881063           14 
 1904000   0.49314098   -4.8850691    780.98676  0.034181844  0.032860231           11 
 1905000   0.48704758   -4.8909919    779.90701  0.034116667  0.032839386           30 
 1906000   0.49035619   -4.8861582    779.87891  0.034097539   0.03281845           26 
 1907000   0.49079152   -4.8857325    780.73217  0.034116945  0.032797586           15 
 1908000   0.49051804   -4.8942873    780.62325  0.034094307  0.032776791           19 
 1909000   0.49154205   -4.8922858    781.97283   0.03413536  0.032756048           31 
 1910000   0.49625045    -4.883378    780.46726    0.0340518  0.032735354           29 
 1911000   0.48704642   -4.8614661    782.15671  0.034107653  0.032714624           24 
 1912000   0.48708718   -4.8873277    780.12789   0.03400139   0.03269392           19 
 1913000   0.48467818   -4.9117721    780.16104   0.03398506  0.032673092           15 
 1914000    0.4994756   -4.8942837    780.49789   0.03398197   0.03265236           19 
 1915000    0.4755306   -4.8950211    780.77277  0.033976187  0.032631615           25 
 1916000   0.48720399   -4.9041304    779.00995  0.033881783  0.032610926           50 
 1917000   0.47620101   -4.8934578    781.78054  0.033984548  0.032590256           13 
 1918000   0.48783697   -4.9053037    782.75287  0.034009075  0.032569599           22 
 1919000   0.48096302   -4.8942505    781.21999  0.033924787  0.032548925           42 
 1920000   0.48934855    -4.906402    781.44548  0.033916905  0.032528255           19 
 1921000   0.47879157   -4.9089997    782.04921  0.033925439  0.032507594           53 
 1922000   0.48919574   -4.8938163    780.38435  0.033835603  0.032486877           41 
 1923000   0.47673201   -4.8987516    780.12706  0.033806858  0.032466153           36 
 1924000   0.48983915   -4.9231473    780.89168  0.033822405  0.032445464           38 
 1925000    0.4909749    -4.896843     780.5949  0.033791987  0.032424831           48 
 1926000   0.48918929    -4.886334    781.84731  0.033828631  0.032404286           49 
 1927000   0.47803332   -4.9167097    781.06881  0.033777409  0.032383695           55 
 1928000    0.4867982   -4.9048434    780.82485  0.033749345  0.032363078           27 
 1929000   0.48718336   -4.9056391    782.45913  0.033802451  0.032342562           74 
 1930000   0.47840009   -4.9102658    780.74342  0.033710856  0.032322038          145 
 1931000   0.48995623   -4.9150379    780.10632  0.033665904  0.032301409           96 
 1932000   0.49132063   -4.9209501    781.28997  0.033699533  0.032280826           84 
 1933000   0.47420435   -4.8902602    781.17989  0.033677354    0.0322603           43 
 1934000   0.49812721   -4.8912148    781.34979  0.033667261  0.032239833           17 
 1935000   0.47526932    -4.903122    778.86813  0.033542986   0.03221934           21 
 1936000   0.48944487   -4.9083265    780.66949  0.033603198  0.032198777           22 
 1937000   0.47490178   -4.9103608    780.33215  0.033571337  0.032178289           16 
 1938000   0.48278201   -4.9174984    780.27515  0.033551563  0.032157748           39 
 1939000   0.48425751    -4.922368    779.99025  0.033522015  0.032137277           31 
 1940000   0.48234156   -4.9158106    779.87585  0.033499822  0.032116829           35 
 1941000   0.47853807   -4.9379407    781.40508  0.033548217   0.03209635           23 
 1942000   0.46492232    -4.913682    780.44319  0.033489667  0.032075866           13 
 1943000   0.47866627    -4.909449    779.04241  0.033412352  0.032055326           14 
 1944000   0.47405908   -4.9325256    779.88449  0.033431262  0.032034857           16 
 1945000   0.47663674   -4.9291425    780.43618  0.033437711  0.032014441           23 
 1946000   0.47246852   -4.9193834    781.22907  0.033454482  0.031994003           71 
 1947000   0.47641266    -4.929494    779.89928  0.033380383  0.031973589           46 
 1948000   0.48150343   -4.9195732    779.82057   0.03335988  0.031953238          132 
 1949000   0.47010498   -4.9336821    779.87336  0.033345021  0.031932847          175 
 1950000   0.47580565   -4.9083933    781.31869  0.033389687  0.031912509          106 
 1951000     0.479354   -4.9107157     781.6747   0.03338778  0.031892196           80 
 1952000   0.46167945   -4.9102517    777.75392  0.033203292  0.031871817           71 
 1953000   0.47842846   -4.9193922    781.80624  0.033359201  0.031851407           32 
 1954000   0.46865566   -4.9260967       780.47  0.033285142  0.031831006           58 
 1955000   0.47442562   -4.9219117    783.35656  0.033391158  0.031810571          107 
 1956000   0.47328381   -4.9432397    779.37166  0.033204314  0.031790207           38 
 1957000   0.47333809   -4.9253348    780.25335  0.033224891  0.031769826           26 
 1958000   0.48127306   -4.9145839    780.64356   0.03322453  0.031749535           34 
 1959000   0.47780736   -4.9522922    781.09873  0.033226933  0.031729253           45 
 1960000   0.47887956   -4.9359027    779.41716  0.033138485  0.031708961           50 
 1961000   0.46320341   -4.9452076    780.28607   0.03315851  0.031688623           31 
 1962000   0.47480822   -4.9347735    780.22868  0.033139173  0.031668398           35 
 1963000   0.47326701   -4.9629281    779.57722  0.033094635  0.031648138           51 
 1964000    0.4759692   -4.9348499    779.98823  0.033095224  0.031627879           31 
 1965000   0.46018662   -4.9446004    780.55125  0.033102258  0.031607643           64 
 1966000    0.4719182   -4.9428811    781.83056  0.033139647  0.031587394           62 
 1967000   0.47060226   -4.9504982    780.15875  0.033051972  0.031567164           46 
 1968000   0.46068835   -4.9317057    779.96902  0.033027143   0.03154693           61 
 1969000   0.46981911   -4.9382937    780.96166  0.033052381  0.031526653           33 
 1970000   0.45814677   -4.9443725     779.2475  0.032963092  0.031506415           44 
 1971000   0.45867053   -4.9494574    778.81012  0.032927876  0.031486183           29 
 1972000   0.47044876   -4.9428261    778.99675  0.032919065  0.031465936           49 
 1973000   0.46857725   -4.9392661    780.78496  0.032977908  0.031445704           47 
 1974000   0.46154359   -4.9481743     779.7907  0.032919229  0.031425451           43 
 1975000   0.46712186    -4.937794    778.63109  0.032853633  0.031405231           44 
 1976000    0.4793968   -4.9393573    780.11646  0.032899648  0.031385026           49 
 1977000   0.45465603   -4.9406059    778.79461  0.032827289  0.031364864           59 
 1978000   0.46279879   -4.9427201    779.43869  0.032837828  0.031344688           46 
 1979000   0.46684322   -4.9492889    779.34451  0.032817269    0.0313245           61 
 1980000   0.46289143   -4.9755953    779.03911  0.032787841  0.031304315           99 
 1981000   0.45239587   -4.9530608    778.02909  0.032728802  0.031284136           88 
 1982000   0.46226485   -4.9583647    779.25512  0.032763838  0.031263991           51 
 1983000   0.46343715   -4.9432411    778.52266  0.032716535  0.031243827           62 
 1984000   0.45875144   -4.9475758     779.3218   0.03273361  0.031223678           65 
 1985000   0.46038134   -4.9575672    778.12087  0.032666703  0.031203573           44 
 1986000    0.4525501   -4.9667872    779.32855   0.03270093   0.03118349           86 
 1987000   0.45830026   -4.9622646    778.51817  0.032650485  0.031163365           64 
 1988000   0.45464183   -4.9572952    778.20266  0.032620836  0.031143261           41 
 1989000   0.46512457   -4.9620527    779.58557  0.032662375  0.031123201           98 
 1990000   0.46450305   -4.9629814    778.17779   0.03258701  0.031103049          150 
 1991000   0.45512555   -4.9467991    779.30467  0.032617808  0.031082941           66 
 1992000   0.46019968   -4.9743379    779.48669  0.032609048  0.031062875           77 
 1993000   0.45486512   -4.9571135    778.01507  0.032531154  0.031042794           62 
 1994000   0.44763165   -4.9842959    778.18566  0.032521968  0.031022683           35 
 1995000   0.45418873   -4.9698068    780.01248  0.032581975  0.031002641           33 
 1996000   0.46078997   -4.9582715    778.45455  0.032500607  0.030982604           48 
 1997000   0.46694614   -4.9637868     778.4715   0.03248504   0.03096255           79 
 1998000   0.44918431   -4.9829874     778.8295  0.032483713  0.030942558           33 
 1999000   0.44845284   -4.9727014     779.1341  0.032480161  0.030922585           47 
 2000000   0.46934699   -4.9746208    778.39919    0.0324333  0.030902601           34 
 2001000   0.44863895   -4.9775988    777.92015  0.032397141  0.030882561           58 
 2002000   0.44859045   -4.9700918    778.16827  0.032391287   0.03086256           69 
 2003000   0.46750999   -4.9667885     776.7263  0.032315123  0.030842557           41 
 2004000   0.45480594   -4.9784179    777.87979  0.032346964  0.030822566           59 
 2005000   0.44419806   -4.9831392    779.37982  0.032393176  0.030802551           44 
 2006000   0.46329213     -4.99074    777.93323  0.032316934  0.030782575           37 
 2007000    0.4491304   -4.9842204    778.09495  0.032307547  0.030762609           30 
 2008000   0.44442875   -4.9703785    778.08301  0.032290962  0.030742669           25 
 2009000   0.45130745   -4.9842511    775.72571  0.032177108  0.030722738           31 
 2010000   0.44266333   -5.0037099    778.50154  0.032276183  0.030702774           22 
 2011000   0.44952283   -4.9752088    779.08854  0.032284458  0.030682869           46 
 2012000   0.44491991   -4.9893163    778.85472  0.032258727  0.030662953           25 
Loop time of 5016.67 on 48 procs for 2000000 steps with 4000 atoms

Performance: 68890.376 tau/day, 398.671 timesteps/s
99.4% CPU use with 48 MPI tasks x no OpenMP threads

MPI task timing breakdown:
Section |  min time  |  avg time  |  max time  |%varavg| %total
---------------------------------------------------------------
Pair    | 334.96     | 368.67     | 397.38     |  83.5 |  7.35
Neigh   | 33.636     | 35.021     | 36.465     |  13.0 |  0.70
Comm    | 324.46     | 354.3      | 389.89     |  90.6 |  7.06
Output  | 4.2351     | 4.2706     | 4.3114     |   0.5 |  0.09
Modify  | 4198.6     | 4207.4     | 4217       |   5.9 | 83.87
Other   |            | 47.05      |            |       |  0.94

Nlocal:        83.3333 ave          94 max          75 min
Histogram: 2 2 7 9 10 10 3 2 1 2
Nghost:        2281.23 ave        2304 max        2257 min
Histogram: 2 3 6 3 8 3 13 6 2 2
Neighs:        15359.9 ave       17362 max       13285 min
Histogram: 2 3 5 6 7 6 7 5 5 2
FullNghs:      30719.1 ave       35290 max       27110 min
Histogram: 2 4 5 11 9 10 3 1 1 2

Total # of neighbors = 1474517
Ave neighs/atom = 368.62925
Neighbor list builds = 108044
Dangerous builds = 0

#clear
#
#next RN
#
#jump SELF
Total wall time: 1:23:40
