
units lj                  # Use reduced LJ style units
atom_style atomic         # Uncharged point particles
atom_modify map hash      # Needed for indexing of clusters etc
                          # Used to be able to find where atoms are in relation to each other.

# Define a lattice with which to populate the simulation cell. With units
# set to 'lj' the second argument to the lattice command is the reduced
# density rho* and the spacings are multiples of that required to acheive
# that density. Also define a simulation cell called 'box' in lattice units
# and fill it with atoms. Here we're creating a box which is ten lattice
# constants in each direction.
lattice fcc 1.0 spacing 1 1 1                 # All equal sizes - gives the right reduced density.
Lattice spacing in x,y,z = 1.5874011 1.5874011 1.5874011

region box block 0 10 0 10 0 10 units lattice # Defines a region, "box", in lattice units
create_box 1 box                              # Creates a simulation box as specified above,
Created orthogonal box = (0.0000000 0.0000000 0.0000000) to (15.874011 15.874011 15.874011)
  3 by 4 by 4 MPI processor grid
                                              # with one type of atom
create_atoms 1 box                            # Creates particles on lattice points
Created 4000 atoms
  using lattice units in orthogonal box = (0.0000000 0.0000000 0.0000000) to (15.874011 15.874011 15.874011)
  create_atoms CPU = 0.015 seconds


# Set the mass of the first (and only) atom type.
mass 1 1.0

# Lennard-Jones interactions between particles, 3.5 sigma cut-off. Apply
# long range tail corrections to energy and pressure and set all coefficients
# to unity since we work in reduced units here. Note that this doesn't shift
# the potential such that it goes to zero at the cutoff. That would require
# pair_modify('shift', 'yes').
pair_style lj/cut  3.5      # non-GPU version
pair_modify tail  yes
pair_coeff 1  1  1.0  1.0   # Intearaction between 1 and 1 set with epsilon = 1 and sigma = 1

write_data data.*
System init for write_data ...
Neighbor list info ...
  update every 1 steps, delay 10 steps, check yes
  max neighbors/atom: 2000, page size: 100000
  master list distance cutoff = 3.8
  ghost atom cutoff = 3.8
  binsize = 1.9, bins = 9 9 9
  1 neighbor lists, perpetual/occasional/extra = 1 0 0
  (1) pair lj/cut, perpetual
      attributes: half, newton on
      pair build: half/bin/atomonly/newton
      stencil: half/bin/3d
      bin: standard

#############################
#   M E L T   S Y S T E M   #
#############################

velocity all create 2.4 5300450 mom yes dist gaussian # Assign velocities
                                                    # Temperature 2.4, random number seed, zero linear momentum
						                                                        # Gaussian distribution

timestep 0.002   # simulation timestep
thermo 1000       # output thermodynamic data every 1000 steps

# Define a fix  in this case with index 1 applied to all
# particles in the simulation. This fix is for simulations
# in the anisotropic NPT ensemble. Note that we use the MTK
# correction.
fix 1 all npt temp 2.4 2.4 0.1 iso 5.68 5.68 0.5 mtk yes tchain 5 pchain 5 # Use NPT ensemble
                                                                         # Set temperature and pressure and damping
                                                                         # Numbers of thermostats in chain and in barostat
run 1000         # run for 10000 steps
Per MPI rank memory allocation (min/avg/max) = 3.642 | 3.644 | 3.648 Mbytes
Step Temp E_pair E_mol TotEng Press Volume 
       0          2.4   -8.3859253            0   -4.7868253   -2.2405722         4000 
    1000    2.3640359   -4.4632256            0  -0.91805834    5.6198419    5168.0104 
Loop time of 0.21835 on 48 procs for 1000 steps with 4000 atoms

Performance: 791390.194 tau/day, 4579.804 timesteps/s
99.5% CPU use with 48 MPI tasks x no OpenMP threads

MPI task timing breakdown:
Section |  min time  |  avg time  |  max time  |%varavg| %total
---------------------------------------------------------------
Pair    | 0.093179   | 0.10019    | 0.11038    |   1.1 | 45.89
Neigh   | 0.017715   | 0.018809   | 0.020089   |   0.4 |  8.61
Comm    | 0.065519   | 0.075209   | 0.083903   |   1.4 | 34.44
Output  | 2.4828e-05 | 2.5889e-05 | 3.228e-05  |   0.0 |  0.01
Modify  | 0.020504   | 0.022552   | 0.025574   |   1.0 | 10.33
Other   |            | 0.001564   |            |       |  0.72

Nlocal:        83.3333 ave          91 max          76 min
Histogram: 2 3 4 4 15 2 8 5 4 1
Nghost:        1389.19 ave        1410 max        1367 min
Histogram: 4 3 1 5 6 7 12 6 3 1
Neighs:        7364.42 ave        8189 max        6588 min
Histogram: 7 3 3 4 8 6 5 5 4 3

Total # of neighbors = 353492
Ave neighs/atom = 88.373000
Neighbor list builds = 87
Dangerous builds = 23

# Equilibrate just above the melting temperature to avoid step fn in T

fix 1 all npt temp 1.25 1.25 0.1 iso 5.68 5.68 0.5 mtk yes tchain 5 pchain 5
run 1000
Per MPI rank memory allocation (min/avg/max) = 3.642 | 3.644 | 3.648 Mbytes
Step Temp E_pair E_mol TotEng Press Volume 
    1000    2.3640359   -4.4632256            0  -0.91805834    5.6198419    5168.0104 
    2000    1.2426751   -5.8285934            0   -3.9650468    5.7973576    4337.8193 
Loop time of 0.211481 on 48 procs for 1000 steps with 4000 atoms

Performance: 817096.288 tau/day, 4728.566 timesteps/s
99.6% CPU use with 48 MPI tasks x no OpenMP threads

MPI task timing breakdown:
Section |  min time  |  avg time  |  max time  |%varavg| %total
---------------------------------------------------------------
Pair    | 0.093341   | 0.099526   | 0.10648    |   1.0 | 47.06
Neigh   | 0.015449   | 0.016303   | 0.01702    |   0.3 |  7.71
Comm    | 0.064932   | 0.071807   | 0.079594   |   1.4 | 33.95
Output  | 2.274e-05  | 2.3538e-05 | 3.1399e-05 |   0.0 |  0.01
Modify  | 0.018794   | 0.021878   | 0.026541   |   1.2 | 10.34
Other   |            | 0.001943   |            |       |  0.92

Nlocal:        83.3333 ave          90 max          78 min
Histogram: 3 3 6 9 6 12 4 1 0 4
Nghost:        1552.52 ave        1571 max        1535 min
Histogram: 1 2 7 6 9 9 7 4 2 1
Neighs:        8765.15 ave        9711 max        8085 min
Histogram: 3 2 10 10 8 7 2 3 2 1

Total # of neighbors = 420727
Ave neighs/atom = 105.18175
Neighbor list builds = 75
Dangerous builds = 5


# Small amount of linear quench

fix 1 all npt temp 1.25 ${temp} 0.1 iso 5.68 5.68 0.5 mtk yes tchain 5 pchain 5
fix 1 all npt temp 1.25 0.53 0.1 iso 5.68 5.68 0.5 mtk yes tchain 5 pchain 5
run 2000
Per MPI rank memory allocation (min/avg/max) = 3.643 | 3.645 | 3.648 Mbytes
Step Temp E_pair E_mol TotEng Press Volume 
    2000    1.2426751   -5.8285934            0   -3.9650468    5.7973576    4337.8193 
    3000   0.93102155    -6.304544            0   -4.9083608    5.6339271    4141.3288 
    4000   0.59645911   -6.8914757            0   -5.9970107    5.6634017    3912.4272 
Loop time of 0.455353 on 48 procs for 2000 steps with 4000 atoms

Performance: 758972.009 tau/day, 4392.199 timesteps/s
99.6% CPU use with 48 MPI tasks x no OpenMP threads

MPI task timing breakdown:
Section |  min time  |  avg time  |  max time  |%varavg| %total
---------------------------------------------------------------
Pair    | 0.20723    | 0.22073    | 0.25658    |   1.6 | 48.47
Neigh   | 0.02466    | 0.025929   | 0.029926   |   0.5 |  5.69
Comm    | 0.12859    | 0.15586    | 0.17088    |   2.3 | 34.23
Output  | 4.5467e-05 | 4.6633e-05 | 6.0869e-05 |   0.0 |  0.01
Modify  | 0.035103   | 0.047646   | 0.059514   |   3.3 | 10.46
Other   |            | 0.005141   |            |       |  1.13

Nlocal:        83.3333 ave          91 max          75 min
Histogram: 1 3 1 14 2 12 2 5 6 2
Nghost:        1661.19 ave        1679 max        1644 min
Histogram: 7 1 6 3 6 4 8 4 7 2
Neighs:        9802.35 ave       10957 max        8777 min
Histogram: 1 4 6 8 7 6 9 5 1 1

Total # of neighbors = 470513
Ave neighs/atom = 117.62825
Neighbor list builds = 113
Dangerous builds = 0

#############################
# F R E E Z E  S Y S T E M  #
#############################

# Define solid atoms. This closely follows ten Wolde  Ruiz-Montero and Frenkel  Faraday Discuss  1996  104  93-110
# Compute components of the per-atom q6 vector
compute q6 all orientorder/atom degrees 1 6 components 6 nnn NULL cutoff 1.3 # compute the Q6 parameter.
                                                                             # Use all neighbours within 1.3 unit cell.

# get number of connections
compute coord_number all coord/atom orientorder q6 0.5

# An atom is solid if it has 8 or more connections (of a possible 14)
variable is_solid atom c_coord_number>=8
group solid dynamic all var is_solid    # Must be dynamic to update
dynamic group solid defined

# do clustering
compute cluster solid cluster/atom 1.3 # Create a cluster where all atoms within are solid and max 1.3 units from another member

# define chunks one chunk per cluster
compute clus_chunks solid chunk/atom c_cluster nchunk every compress yes  # Says which atoms are in which chunk

# count the size of each chunk
compute size_chunks solid property/chunk clus_chunks count


# Find the maximum entry in the vector of chunk sizes
variable max_n equal max(c_size_chunks)


# Thermo style which includes this variable
thermo_style custom step temp pe vol v_max_n

thermo ${N}  # Print the thermo information every 100 steps
thermo 1000  

# Reset the npt fix at a lower temperature (below freezing)
fix 1  all npt temp  ${temp} ${temp}  0.1  iso  5.68  5.68  0.5  mtk yes tchain  5  pchain  5
fix 1  all npt temp  0.53 ${temp}  0.1  iso  5.68  5.68  0.5  mtk yes tchain  5  pchain  5
fix 1  all npt temp  0.53 0.53  0.1  iso  5.68  5.68  0.5  mtk yes tchain  5  pchain  5

dump dmp2 all dcd ${N} traj_${rand}.dcd
dump dmp2 all dcd 1000 traj_${rand}.dcd
dump dmp2 all dcd 1000 traj_462431.dcd


# fix rnuntil all halt ${N} v_max_n >= 3980 error soft message no   # Stop when solidified


run 1000000 # 5000000  # Run for this many steps
Neighbor list info ...
  update every 1 steps, delay 10 steps, check yes
  max neighbors/atom: 2000, page size: 100000
  master list distance cutoff = 3.8
  ghost atom cutoff = 3.8
  binsize = 1.9, bins = 9 9 9
  4 neighbor lists, perpetual/occasional/extra = 1 3 0
  (1) pair lj/cut, perpetual
      attributes: half, newton on
      pair build: half/bin/atomonly/newton
      stencil: half/bin/3d
      bin: standard
  (2) compute orientorder/atom, occasional
      attributes: full, newton on
      pair build: full/bin/atomonly
      stencil: full/bin/3d
      bin: standard
  (3) compute coord/atom, occasional
      attributes: full, newton on
      pair build: full/bin/atomonly
      stencil: full/bin/3d
      bin: standard
  (4) compute cluster/atom, occasional
      attributes: full, newton on
      pair build: full/bin/atomonly
      stencil: full/bin/3d
      bin: standard
Per MPI rank memory allocation (min/avg/max) = 9.379 | 9.384 | 9.387 Mbytes
Step Temp PotEng Volume v_max_n 
    4000   0.59645911   -6.8914757    3912.4272           24 
    5000   0.52566397    -7.069065    3860.0171           34 
    6000   0.52991878   -7.0648039    3842.7701           62 
    7000   0.52540102    -7.075355    3852.0488           23 
    8000   0.53112624   -7.1012248    3846.2336           53 
    9000   0.52400695   -7.0922546    3838.8575           42 
   10000    0.5283339   -7.1052018     3849.428           90 
   11000    0.5343246   -7.1130587    3837.6093           91 
   12000   0.53280577    -7.121651    3838.4089           83 
   13000   0.53951166   -7.1206449    3831.9626          167 
   14000   0.52613763   -7.1218941    3831.0781           87 
   15000    0.5344405   -7.1256523    3824.2558          100 
   16000    0.5245106   -7.1576788     3831.784          145 
   17000   0.53115304   -7.1469031    3826.5306          322 
   18000   0.52490531   -7.1465679    3829.4948          179 
   19000   0.54372638   -7.1472582    3826.8652          252 
   20000   0.54491453   -7.1228303    3824.2692          169 
   21000   0.52883177   -7.1414772    3824.2911          231 
   22000   0.52564604   -7.1411153    3831.4847          206 
   23000   0.54945642   -7.1421346     3823.031          229 
   24000    0.5320532   -7.1405942    3828.9624          177 
   25000   0.53540519   -7.1356038    3825.4126          250 
   26000   0.52634274   -7.1465585    3821.2549          275 
   27000   0.52988988   -7.1465517    3828.7171          444 
   28000   0.51967824    -7.150733    3826.3827          226 
   29000   0.52453098   -7.1629303    3830.6536          495 
   30000   0.52778482   -7.1631359    3825.1899          667 
   31000   0.54812679   -7.1644055    3825.8796          832 
   32000   0.51826024    -7.140073    3821.6048          773 
   33000   0.53361671   -7.1652624    3818.5529          766 
   34000    0.5224615   -7.1447727     3807.397          874 
   35000   0.52362733   -7.1740264    3821.5891          973 
   36000   0.53917241   -7.1716747    3819.1624          979 
   37000   0.53002106   -7.1816312    3822.3759         1177 
   38000   0.52852556   -7.1660739    3829.8095         1044 
   39000   0.53269511   -7.1759145    3817.0344         1136 
   40000   0.54187233   -7.1727758    3811.2923         1142 
   41000   0.54245344   -7.1834407    3810.7342         1229 
   42000   0.52648274   -7.1786979    3813.3471         1137 
   43000   0.52119231   -7.1835574    3819.7105         1206 
   44000   0.53112567   -7.2013658     3804.976         1220 
   45000   0.54131796   -7.1872334    3806.0442         1342 
   46000   0.52775453   -7.1962613    3813.2422         1353 
   47000   0.53376278   -7.2024923    3806.0191         1371 
   48000   0.52279145   -7.2140808    3817.5325         1429 
   49000   0.53084511   -7.1925491     3811.069         1383 
   50000   0.52679489   -7.1955422    3805.9132         1531 
   51000   0.53550636   -7.2142366    3805.6607         1596 
   52000   0.52299139   -7.2071944    3807.0811         1551 
   53000   0.53139299   -7.2085771    3807.0781         1596 
   54000   0.53169934   -7.2145762    3813.8832         1664 
   55000    0.5269056   -7.1938895     3804.265         1649 
   56000    0.5311772   -7.2151858    3812.9142         1729 
   57000     0.539397    -7.201322    3811.3857         1688 
   58000   0.54083476    -7.220042    3800.0379         1688 
   59000   0.54293178   -7.2078362    3805.6659         1722 
   60000   0.53513184   -7.2197435    3797.3762         1869 
   61000   0.51996056   -7.2217077    3810.6678         1828 
   62000   0.54198135   -7.2343916    3805.7202         1989 
   63000    0.5331029   -7.2232242    3803.1186         1988 
   64000   0.52463274   -7.2282962    3800.0714         1987 
   65000   0.52737784   -7.2255663    3806.9118         2129 
   66000   0.52228615   -7.2296369     3792.915         2141 
   67000   0.53084315   -7.2348238    3799.7502         2252 
   68000   0.53243537   -7.2607099    3798.5061         2305 
   69000   0.52831571   -7.2298163    3791.8376         2275 
   70000   0.53801043   -7.2398093    3791.7089         2294 
   71000   0.52073774   -7.2336943     3795.617         2369 
   72000   0.53471266   -7.2638468    3790.6223         2387 
   73000   0.52480531   -7.2376386    3800.2481         2328 
   74000   0.52106013    -7.257008    3788.3991         2488 
   75000   0.52293322   -7.2643111    3794.0245         2456 
   76000   0.52388171   -7.2754267    3791.8159         2514 
   77000   0.52739452   -7.2552641     3784.271         2574 
   78000   0.53567635   -7.2850831    3783.4408         2615 
   79000   0.51697947   -7.2713217    3780.9048         2607 
   80000   0.53339807   -7.2844975    3792.3115         2613 
   81000   0.52831548   -7.2732739    3791.8389         2743 
   82000   0.51765793   -7.2899283    3788.5432         2710 
   83000   0.52800292   -7.2930558    3785.2988         2778 
   84000   0.51992734   -7.2829781    3792.1578         2780 
   85000   0.52207394    -7.287076    3775.1655         2799 
   86000   0.53917393   -7.2922584    3776.6712         2815 
   87000   0.52881727   -7.2729741    3788.5097         2814 
   88000   0.50921582   -7.3237962     3781.816         2865 
   89000   0.52640135   -7.3379858     3775.744         2891 
   90000   0.53355385   -7.3093566    3771.6862         3001 
   91000   0.53401139    -7.297371    3774.8432         3007 
   92000   0.52208872   -7.3306623    3775.0161         3054 
   93000   0.53151473   -7.3352835    3774.1192         3038 
   94000   0.53456318   -7.3244891    3769.6498         3032 
   95000   0.52403072   -7.3278263    3769.7528         3093 
   96000   0.54453444   -7.3330875    3780.3625         3066 
   97000    0.5348306    -7.315837    3765.2183         3078 
   98000   0.52995354    -7.326522    3768.9858         3082 
   99000   0.52662919   -7.3320273    3763.5644         3122 
  100000   0.51956509   -7.3277438    3767.7311         3111 
  101000   0.53519396   -7.3260432    3764.8185         3090 
  102000   0.52198366   -7.3615421    3766.0082         3221 
  103000   0.53705151   -7.3519536    3765.5485         3211 
  104000   0.52781486   -7.3543418    3774.8004         3216 
  105000    0.5307553   -7.3570867    3771.4367         3210 
  106000   0.52776776   -7.3408478    3766.1728         3261 
  107000   0.53578105   -7.3623189    3770.3613         3266 
  108000   0.52423305   -7.3449421    3765.0009         3265 
  109000   0.52225894   -7.3504808    3759.2932         3308 
  110000   0.53817955   -7.3647612    3758.1548         3316 
  111000   0.54476874   -7.3685536    3767.4036         3358 
  112000   0.53207224   -7.3678599    3754.7386         3428 
  113000   0.52658649   -7.3928119    3761.7354         3460 
  114000   0.52567428     -7.38183    3765.0336         3478 
  115000   0.53650017   -7.3843619    3757.4738         3513 
  116000   0.52395705   -7.3868413    3745.7527         3481 
  117000   0.52519907   -7.3856157    3747.1671         3474 
  118000   0.52276015   -7.4033875    3753.3545         3504 
  119000   0.52728654   -7.4259395     3753.753         3479 
  120000   0.52510269   -7.4316692    3752.0858         3557 
  121000   0.53401621   -7.4216911    3753.1997         3552 
  122000   0.53632944   -7.4144839    3734.1934         3549 
  123000   0.52188416   -7.4230991    3742.1483         3557 
  124000   0.53750314   -7.4211733    3746.2566         3572 
  125000     0.536955   -7.4382798    3743.8336         3557 
  126000   0.53308873   -7.4414571    3745.9357         3576 
  127000    0.5373504   -7.4605473    3735.0332         3595 
  128000   0.52396394   -7.4578342    3727.4649         3685 
  129000   0.52711526   -7.5169102    3723.1359         3794 
  130000   0.52299876   -7.5229552    3721.1703         3777 
  131000   0.52312965   -7.5480943    3709.9648         3889 
  132000   0.53626013    -7.602964    3703.0233         3899 
  133000   0.52690494   -7.6252729    3688.6903         3914 
  134000   0.52683919   -7.6375861    3689.7461         3962 
  135000   0.53056789   -7.6548252    3685.8981         3962 
  136000   0.53910979   -7.6523164    3676.2026         3970 
  137000   0.53636757   -7.6706272    3676.8332         3982 
  138000   0.53789711   -7.6753845    3676.1817         3972 
  139000   0.52640308   -7.6728279     3670.719         3979 
  140000   0.52898774   -7.6910838    3668.3483         3974 
  141000    0.5317938   -7.7163558    3675.8255         3974 
  142000     0.516749   -7.7249239    3673.4496         3975 
  143000   0.52700128   -7.7054266    3670.3136         3979 
  144000    0.5191716   -7.7011059    3666.9662         3975 
  145000   0.53895553   -7.7188553     3665.348         3972 
  146000   0.53629972   -7.7172002     3672.385         3977 
  147000   0.52501997   -7.7030614    3670.7491         3979 
  148000   0.53824694   -7.7044904    3658.1586         3977 
  149000   0.53984859   -7.7190884    3671.7908         3970 
  150000   0.52390808   -7.7087826    3665.3702         3967 
  151000   0.52875064   -7.7053466    3667.6956         3980 
  152000   0.54007748    -7.697375    3665.0368         3976 
  153000   0.53432653   -7.7354691    3659.7247         3977 
  154000   0.53374784   -7.7086411     3664.714         3979 
  155000   0.53205321   -7.7216465    3669.0944         3982 
  156000   0.54315416   -7.7115254    3661.3834         3981 
  157000   0.52381678   -7.7100244    3666.2018         3982 
  158000    0.5314088   -7.7179038    3667.3321         3977 
  159000   0.52018117    -7.734467    3669.1699         3977 
  160000   0.52297117   -7.7375363    3658.9996         3980 
  161000   0.53148415    -7.715681    3660.7372         3979 
  162000   0.52790862   -7.7102069    3657.7578         3979 
  163000   0.52951681   -7.7235901    3660.9654         3972 
  164000   0.53600812   -7.7201139    3659.6823         3979 
  165000   0.52756108   -7.7057314    3664.3041         3980 
  166000   0.53020502   -7.7203612    3663.2459         3979 
  167000   0.53564118   -7.7161714    3661.8602         3972 
  168000   0.52886736   -7.7215925     3661.685         3985 
  169000   0.52683361   -7.7237496    3665.1528         3978 
  170000   0.53247982    -7.712927    3662.9867         3975 
  171000   0.52493109   -7.7170799    3669.8452         3976 
  172000   0.53266564   -7.6931811    3671.0785         3980 
  173000   0.52803768   -7.7131581    3657.0004         3976 
  174000   0.53562342   -7.7211795    3658.1644         3980 
  175000   0.53497991   -7.7221536    3669.1649         3976 
  176000   0.52706503   -7.7189004    3660.4354         3981 
  177000    0.5261463   -7.7183755    3661.4476         3982 
  178000   0.53363958   -7.7219454    3671.3649         3980 
  179000   0.53966572   -7.7051663    3654.8972         3982 
  180000   0.52248461   -7.6990257    3665.6943         3984 
  181000   0.52073133   -7.6946125    3660.9087         3973 
  182000   0.53088328   -7.7133763    3667.2472         3975 
  183000   0.52313961   -7.7140906    3664.0482         3974 
  184000   0.53747683   -7.7277939    3669.3035         3974 
  185000   0.52072345   -7.7081307    3662.7677         3983 
  186000   0.53606667   -7.7229398    3661.3956         3983 
  187000   0.53904856   -7.7317573    3663.6326         3979 
  188000   0.52917428   -7.7207988    3657.4686         3980 
  189000   0.54092148   -7.7181386    3673.3171         3979 
  190000   0.52750485   -7.7105127    3665.4133         3982 
  191000   0.53090179   -7.7266815    3670.6744         3980 
  192000   0.53033512   -7.7239137    3663.6649         3985 
  193000   0.53488397   -7.7167027    3662.9734         3980 
  194000   0.52717946   -7.7218105    3659.8759         3983 
  195000   0.52500218   -7.7263958    3668.5263         3984 
  196000   0.52980727    -7.723623    3662.7611         3979 
  197000   0.52851919   -7.7089843    3655.1636         3980 
  198000   0.51865245    -7.728233    3664.7153         3981 
  199000   0.54244986   -7.7402828    3668.2124         3982 
  200000   0.53615165   -7.6988141    3661.4274         3982 
  201000   0.53424796   -7.7065882    3657.5911         3984 
  202000   0.52578652   -7.7197353    3670.5721         3978 
  203000   0.52365802   -7.7130879    3666.6323         3979 
  204000   0.53092852   -7.7325243    3661.5181         3975 
  205000   0.51522708   -7.7168045    3667.1037         3977 
  206000   0.53271761   -7.7009755    3664.6989         3983 
  207000   0.52809029   -7.7060215    3666.3928         3978 
  208000   0.53761742   -7.7069864    3659.2093         3983 
  209000   0.53744982   -7.6982772    3661.5746         3976 
  210000   0.51192199   -7.7107796    3659.8648         3985 
  211000   0.53109177   -7.7299547    3659.1549         3986 
  212000    0.5357872   -7.7142326    3659.4188         3994 
  213000   0.53129065   -7.7287991    3660.2337         3992 
  214000   0.53196457   -7.7327528     3661.803         3992 
  215000   0.53659196   -7.7262285    3661.4917         3997 
  216000   0.53149244   -7.7304607    3667.6314         3996 
  217000   0.52538193   -7.7194294    3661.8549         3994 
  218000   0.52418533   -7.7316464    3660.4128         3994 
  219000   0.53413329    -7.720201    3665.7353         3991 
  220000   0.52468278    -7.723133    3660.0953         3993 
  221000   0.54493439   -7.7085539    3665.2206         3990 
  222000   0.52808237   -7.7378512    3658.6559         3990 
  223000    0.5223947   -7.7286989    3662.2792         3996 
  224000    0.5208978   -7.7256292    3659.7988         3992 
  225000   0.53832122   -7.7320712    3656.9654         3992 
  226000   0.52795055   -7.7163712    3670.2785         3995 
  227000   0.53243281   -7.7345883    3664.7476         3990 
  228000   0.52721166   -7.7217387    3663.6212         3991 
  229000   0.53960573   -7.7319088    3667.2068         3994 
  230000   0.53513546   -7.7394672    3662.8233         3991 
  231000   0.53915414   -7.7416696    3661.8726         3992 
  232000   0.53430958    -7.730364     3661.743         3992 
  233000   0.53232828   -7.7121956    3672.5083         3992 
  234000   0.53304545   -7.7251518    3655.6074         3989 
  235000   0.53080483   -7.7269293    3662.9647         3989 
  236000   0.53949906   -7.7231375    3666.2524         3995 
  237000   0.53197648   -7.7170003    3660.5972         3995 
  238000    0.5278397   -7.7156135    3665.4295         3990 
  239000   0.53007191   -7.7194172    3661.5596         3991 
  240000   0.53123996   -7.7307592    3654.3835         3988 
  241000   0.52075058   -7.7156733    3663.6099         3994 
  242000    0.5190988   -7.7158035    3666.2274         3990 
  243000   0.52709438   -7.7386577    3656.9534         3990 
  244000   0.52653957    -7.708175    3655.9709         3992 
  245000   0.52050755   -7.7208723    3661.0748         3996 
  246000   0.52104257   -7.7225887    3659.6675         3988 
  247000   0.51771127   -7.7442539    3663.8448         3997 
  248000   0.54468125   -7.7124832    3665.9075         3998 
  249000    0.5292518   -7.7234002    3667.9606         3990 
  250000   0.52453302   -7.7249346    3654.7652         3989 
  251000   0.52808773   -7.7274929    3664.0587         3991 
  252000   0.53798249   -7.7347406    3667.9847         3993 
  253000   0.54332319   -7.7074121    3657.6472         3992 
  254000    0.5267398   -7.7252668    3666.9723         3989 
  255000   0.52468474   -7.7338646       3662.2         3990 
  256000    0.5324344   -7.7290004    3660.3614         3995 
  257000   0.53143588   -7.7207354    3657.7279         3990 
  258000   0.51494682   -7.7278947     3662.148         3990 
  259000   0.52639252   -7.7341914    3656.6433         3991 
  260000   0.53932375   -7.7503107    3653.4423         3991 
  261000   0.53651651   -7.7274854    3653.0745         3993 
  262000   0.53363514   -7.7436583    3657.9103         3994 
  263000   0.53791967   -7.7463037    3668.2889         3993 
  264000   0.53995177   -7.7366687    3658.6934         3997 
  265000   0.52553006   -7.7325213    3655.9524         3996 
  266000   0.52815037   -7.7409949    3661.5194         3994 
  267000   0.52974739   -7.7375227    3649.7174         3991 
  268000   0.52313577   -7.7315004    3660.0388         3991 
  269000    0.5273226   -7.7301809    3659.1674         3993 
  270000   0.52858049   -7.7171936    3660.1757         3996 
  271000   0.52956753   -7.7247799    3661.8014         3997 
  272000   0.52474294   -7.7368563    3652.1639         3991 
  273000   0.52984538   -7.7227388    3667.7865         3989 
  274000   0.53057523   -7.7427607    3659.0362         3991 
  275000   0.52386633   -7.7281816    3661.0465         3994 
  276000   0.53698756   -7.7262736     3659.346         3993 
  277000   0.52639542   -7.7430094    3654.9404         3990 
  278000   0.52146346   -7.7321718    3661.7316         3991 
  279000   0.53237438   -7.7459247     3662.562         3991 
  280000   0.52544485   -7.7390156    3659.1111         3996 
  281000   0.53248755   -7.7347634    3655.4936         3993 
  282000   0.54131922   -7.7315567    3658.7503         3993 
  283000    0.5344962   -7.7415801    3665.6451         3991 
  284000   0.53912026   -7.7386489    3661.6735         3992 
  285000   0.52585255   -7.7180551    3654.6421         3995 
  286000   0.53380251   -7.7368658    3656.6575         3990 
  287000    0.5265172   -7.7538406    3657.3247         3989 
  288000   0.52319002   -7.7334492    3659.5539         3999 
  289000   0.52351023   -7.7472124    3656.6138         3987 
  290000   0.54187053   -7.7454594     3662.453         3989 
  291000   0.53258933   -7.7444125    3665.7953         3993 
  292000   0.53194498   -7.7352983    3651.3333         3990 
  293000   0.53167593   -7.7515573    3657.4221         3996 
  294000   0.53347362   -7.7341545    3660.4608         3991 
  295000   0.53326399   -7.7231882     3657.482         3993 
  296000   0.53186602   -7.7472983     3658.698         3991 
  297000   0.53896949    -7.752153    3659.5536         3993 
  298000   0.52798456   -7.7428115    3659.8759         3990 
  299000   0.53829815   -7.7512634      3661.84         3990 
  300000   0.53018897   -7.7445564    3659.2218         3991 
  301000   0.53517555   -7.7101003    3661.1204         3995 
  302000   0.53064075   -7.7390039    3659.1151         3998 
  303000   0.54014691   -7.7417728    3661.2422         3993 
  304000   0.53390535   -7.7252377    3654.3222         3996 
  305000   0.53043045   -7.7362089    3659.4106         3999 
  306000   0.52892958   -7.7256228    3646.7421         3997 
  307000     0.538631   -7.7423591    3662.7266         3998 
  308000   0.52435799   -7.7531439    3655.2492         3996 
  309000   0.53348939    -7.750617    3652.4964         3994 
  310000   0.52566743   -7.7280279    3662.8229         3995 
  311000   0.52978546   -7.7286726    3654.0167         3992 
  312000   0.52909449   -7.7503249    3659.2146         3997 
  313000   0.52608875   -7.7368224    3663.0144         3994 
  314000     0.528111   -7.7082514    3648.3057         3992 
  315000   0.53507135   -7.7610491    3654.7737         3985 
  316000   0.53045962   -7.7219791    3656.9626         3991 
  317000   0.53264006   -7.7382803    3654.0083         3987 
  318000   0.52543599    -7.741036     3661.029         3990 
  319000   0.53447363   -7.7403535    3657.1397         3991 
  320000   0.54431066   -7.7554965    3654.7434         3993 
  321000   0.53509006   -7.7298352    3658.9292         3991 
  322000   0.52288743   -7.7330735    3657.5178         3995 
  323000   0.53560432   -7.7298997    3650.2663         3989 
  324000   0.52422047   -7.7374711     3655.862         3994 
  325000   0.51949588   -7.7565562    3657.0806         3984 
  326000   0.52976355   -7.7498444    3664.3182         3993 
  327000   0.53383456   -7.7465296    3657.3747         3991 
  328000   0.53928612   -7.7340621    3658.9777         3998 
  329000   0.53131131    -7.731574    3664.2596         3994 
  330000   0.52117469   -7.7541002    3664.6273         3991 
  331000   0.52604776   -7.7487621    3658.9648         3989 
  332000   0.51873791   -7.7263109    3657.0528         3993 
  333000   0.52931315    -7.727828    3656.8973         3992 
  334000   0.52228378   -7.7230072     3659.132         3989 
  335000   0.52336813   -7.7386988    3661.2818         3996 
  336000   0.52270137   -7.7297053    3655.4106         3993 
  337000    0.5328448   -7.7446899    3642.7175         3993 
  338000   0.53605439   -7.7519331    3652.5642         3999 
  339000   0.51914547   -7.7252317    3653.3991         3997 
  340000   0.52288509   -7.7328901    3657.5469         3993 
  341000   0.53569412   -7.7531128    3658.7188         3990 
  342000   0.52930904   -7.7205846    3656.3729         3995 
  343000   0.53582502   -7.7452798    3662.2485         3998 
  344000   0.53062937   -7.7526001    3653.8963         3991 
  345000   0.54011173   -7.7345812    3655.8905         3996 
  346000   0.54603728   -7.7337698    3657.0492         3993 
  347000   0.53321354   -7.7473598    3660.6109         3995 
  348000    0.5419368   -7.7444846    3658.2776         3996 
  349000   0.53199866   -7.7483589    3655.2141         3993 
  350000   0.52180572   -7.7533376    3655.9067         3993 
  351000   0.52624095   -7.7491771    3653.7569         3996 
  352000   0.54228388    -7.728466    3655.4071         3997 
  353000   0.53307695   -7.7356681    3661.2955         3994 
  354000   0.52600351   -7.7591274    3657.3421         3997 
  355000   0.52891256   -7.7332094     3665.723         3997 
  356000    0.5412994   -7.7337457    3655.6137         3993 
  357000   0.53002784   -7.7481728    3650.6023         3996 
  358000   0.53003595    -7.732152    3649.4695         3994 
  359000   0.52135192   -7.7514074    3658.8706         3994 
  360000   0.52455242   -7.7415816     3659.793         3997 
  361000   0.54445495   -7.7327231    3650.0454         3992 
  362000   0.51816464   -7.7552365    3658.2392         3990 
  363000   0.53710556   -7.7291968     3659.823         3988 
  364000   0.52802351   -7.7394222    3661.0617         3992 
  365000   0.52595569   -7.7476118    3654.5715         3995 
  366000   0.52865701   -7.7434737    3657.2897         3995 
  367000   0.53256459   -7.7210621    3659.9031         3993 
  368000   0.52531897   -7.7447645    3659.3905         3992 
  369000   0.52051833   -7.7317052    3653.0661         3989 
  370000   0.54384349   -7.7469155    3664.0649         3995 
  371000   0.53455036    -7.739791    3659.7541         3994 
  372000   0.53329379    -7.727391    3657.9265         3994 
  373000   0.52598854   -7.7412842    3662.1084         3996 
  374000   0.52804025   -7.7309402    3651.1087         3996 
  375000   0.53593965   -7.7393012    3658.1236         3994 
  376000   0.53434802   -7.7344395    3664.8685         3985 
  377000    0.5321645   -7.7453235    3655.3351         3996 
  378000   0.53815968   -7.7532089    3660.2334         3994 
  379000   0.52769607    -7.737844    3659.0036         3990 
  380000   0.53279604   -7.7374497    3654.8067         3991 
  381000   0.53223541   -7.7431637    3661.2513         3993 
  382000    0.5312366   -7.7430145    3656.1152         3992 
  383000   0.52907536    -7.760001    3657.9334         3994 
  384000   0.52149314   -7.7460252    3655.6386         3994 
  385000   0.54248888   -7.7437276    3658.4077         3997 
  386000   0.52859927   -7.7384458    3657.7497         3992 
  387000   0.52350944   -7.7587289    3650.0609         3999 
  388000   0.52965407   -7.7476571    3653.8976         3987 
  389000   0.52850629   -7.7547412    3650.1945         3996 
  390000   0.52194139   -7.7494945    3659.6851         3990 
  391000   0.52529583   -7.7573392    3656.3953         3994 
  392000   0.53249894   -7.7331925    3649.3829         3991 
  393000   0.52806438   -7.7433918    3661.9299         3996 
  394000   0.53641686   -7.7424202    3653.0109         3992 
  395000   0.53617702   -7.7457037    3654.8501         3992 
  396000   0.53191183   -7.7403192    3660.8915         3989 
  397000   0.52949972    -7.755722     3645.858         3990 
  398000   0.52428125   -7.7586404    3658.0575         3995 
  399000   0.52653831   -7.7437501    3655.0159         3996 
  400000   0.53295765   -7.7474163     3657.807         3998 
  401000   0.52525499   -7.7520651    3663.3049         3997 
  402000   0.52338042   -7.7551292     3661.228         3992 
  403000   0.51946949   -7.7480904    3655.7737         3999 
  404000   0.53542433    -7.760606    3659.5742         3994 
  405000   0.52525749   -7.7415892    3658.2359         3995 
  406000   0.53912431   -7.7480932     3654.147         3994 
  407000   0.53188486   -7.7447293    3661.2465         3999 
  408000   0.53083052   -7.7451909    3657.0474         3993 
  409000   0.52537786   -7.7497621    3659.3681         3993 
  410000   0.53996703   -7.7350456    3655.8405         3995 
  411000   0.53508593   -7.7386226    3648.5731         3996 
  412000   0.52610426   -7.7243571    3653.4005         3992 
  413000   0.53478216   -7.7489537    3663.2258         3998 
  414000    0.5242144    -7.746582    3651.6544         3987 
  415000   0.52430199   -7.7490182    3667.5642         3997 
  416000   0.52717475    -7.751078    3655.3474         3998 
  417000   0.52524945   -7.7484848    3657.4446         3995 
  418000   0.52806788   -7.7477907    3654.8177         3994 
  419000   0.52771327   -7.7336306     3659.002         3996 
  420000   0.54218772   -7.7398809    3658.2137         3997 
  421000    0.5292026   -7.7368864    3650.1795         3992 
  422000   0.52335121   -7.7312709    3651.1066         3994 
  423000   0.53403627   -7.7275768    3651.9656         3995 
  424000   0.53694931   -7.7506885    3665.2157         3992 
  425000   0.53793589   -7.7322201    3663.0198         3995 
  426000   0.52970205   -7.7292533    3654.8205         3997 
  427000   0.53551336   -7.7385598    3653.3684         3996 
  428000   0.52408749   -7.7428524    3664.5924         3993 
  429000    0.5427927   -7.7471399    3662.1873         3996 
  430000    0.5191811    -7.721577    3658.2531         3991 
  431000   0.53357359   -7.7282944    3656.5516         3994 
  432000   0.52677458   -7.7461885    3661.9879         3999 
  433000   0.53451083   -7.7487049    3658.9004         3991 
  434000   0.52034601   -7.7416057    3652.2664         3993 
  435000   0.53543147   -7.7471474    3646.4401         3987 
  436000   0.53183077   -7.7304748    3656.9322         3993 
  437000   0.52196668   -7.7464316    3652.0723         3995 
  438000   0.52400349   -7.7325857    3659.3958         3991 
  439000   0.53163236   -7.7328531    3657.6446         3995 
  440000   0.52411294   -7.7324058      3649.34         3997 
  441000   0.53623135   -7.7432672    3658.3018         3992 
  442000   0.52243757   -7.7508647    3647.4232         3987 
  443000   0.52668802   -7.7671128    3668.7331         3996 
  444000   0.53454977   -7.7519354    3661.0266         3995 
  445000   0.53078247   -7.7394907    3663.9171         3994 
  446000   0.53249678   -7.7439139    3665.8501         3992 
  447000   0.53633391   -7.7428435    3653.7826         3993 
  448000   0.52148709    -7.742096    3654.3821         3996 
  449000   0.52425914   -7.7467109    3655.6272         3996 
  450000   0.51667733   -7.7429976    3662.1184         3990 
  451000   0.52926534   -7.7195663    3657.1136         3998 
  452000    0.5260434    -7.754336    3656.6058         3992 
  453000    0.5314325   -7.7361636    3657.9703         3992 
  454000   0.53861335   -7.7370231    3658.3539         3993 
  455000   0.53908665   -7.7483051    3659.5439         3999 
  456000    0.5382827   -7.7446445    3658.5574         3989 
  457000   0.53567234   -7.7342361     3654.743         3996 
  458000   0.53415656   -7.7337544    3652.8711         3996 
  459000   0.52707336   -7.7365062    3655.8778         3994 
  460000    0.5254842   -7.7417525    3657.6351         3995 
  461000   0.53318303   -7.7261686    3670.2485         3991 
  462000   0.53158169     -7.74202    3654.7787         3994 
  463000   0.53143914   -7.7458555    3654.4888         3992 
  464000   0.53359346   -7.7477335    3654.2122         3993 
  465000   0.53324586   -7.7333601    3652.3994         3989 
  466000   0.53043247   -7.7516886    3654.8931         3996 
  467000   0.52378213   -7.7310038    3659.9601         3995 
  468000   0.53347148   -7.7623437    3656.8958         3992 
  469000   0.51789994   -7.7386995    3654.8645         3997 
  470000    0.5391813   -7.7365954    3667.5679         3993 
  471000   0.53132235   -7.7457347    3648.2768         3997 
  472000   0.52384669   -7.7368249    3651.4254         3995 
  473000   0.52012504   -7.7349409    3653.4371         3993 
  474000   0.53243199   -7.7504737    3654.8893         3994 
  475000   0.53653283   -7.7508817    3664.7321         3995 
  476000   0.50580969   -7.7413616    3648.6128         3995 
  477000   0.52039113   -7.7456563    3665.5907         3997 
  478000   0.52118337    -7.733727    3660.5381         3994 
  479000   0.52315599   -7.7493699    3654.5165         3993 
  480000   0.51548705   -7.7539642    3651.4933         3995 
  481000   0.52880263    -7.739488    3663.4384         4000 
  482000   0.53315309    -7.747554     3659.117         3992 
  483000   0.54535596   -7.7501749    3651.2468         3993 
  484000   0.53501693   -7.7320772    3659.6525         3991 
  485000   0.53465905   -7.7362625    3659.2568         3998 
  486000   0.53242625   -7.7519195    3656.1092         3996 
  487000   0.52706095   -7.7306845    3664.9771         3998 
  488000   0.52041951   -7.7391762    3662.2876         3995 
  489000   0.53296804   -7.7456239    3648.5824         3991 
  490000   0.53688049   -7.7426415    3654.8522         3986 
  491000   0.53698059   -7.7383076    3658.7088         3993 
  492000   0.52650027   -7.7272829    3647.0925         3987 
  493000   0.52660077   -7.7452848    3655.0516         3996 
  494000   0.52733841   -7.7576167    3660.4892         3995 
  495000   0.53688082    -7.754842    3656.6697         3998 
  496000    0.5185119   -7.7464261    3663.6106         3995 
  497000   0.52847542   -7.7271656    3652.8565         3999 
  498000   0.52585592   -7.7459377     3654.727         3997 
  499000   0.52082187   -7.7255044     3660.977         3996 
  500000   0.52575925   -7.7146144    3654.0539         3998 
  501000   0.53310949   -7.7405101    3670.2496         3997 
  502000   0.52518798    -7.720216    3660.5982         3994 
  503000   0.54939328   -7.7413442    3662.2934         3995 
  504000   0.53395693   -7.7212084    3647.6768         3994 
  505000   0.51778064   -7.7329158    3653.9875         3994 
  506000   0.51690623   -7.7300336    3655.8494         3997 
  507000   0.52864641   -7.7409572    3655.8624         3992 
  508000   0.52725362   -7.7310567    3656.9405         3996 
  509000   0.53992172   -7.7223058    3654.2471         3994 
  510000   0.53105361   -7.7366824    3654.3434         3998 
  511000   0.52755418   -7.7363456    3661.4827         3993 
  512000    0.5298922   -7.7658061    3662.4632         3998 
  513000    0.5264758   -7.7315708    3657.8751         3995 
  514000   0.53534462   -7.7390825     3651.051         3996 
  515000   0.52978163   -7.7462787    3652.1205         3995 
  516000   0.52352317   -7.7485907    3659.8868         3997 
  517000   0.53269938   -7.7430345    3663.4525         3994 
  518000   0.51078124   -7.7370688    3658.0766         3995 
  519000   0.53129145   -7.7263284    3658.9485         3992 
  520000    0.5266622   -7.7508369    3659.7044         3989 
  521000    0.5378761   -7.7494171    3666.3321         3990 
  522000   0.53156499   -7.7336653    3657.4659         3995 
  523000   0.52784084   -7.7437694     3650.526         3989 
  524000   0.53152673   -7.7375101    3667.8927         3994 
  525000   0.52944678   -7.7493443    3656.3618         3996 
  526000   0.51217542   -7.7438519    3655.2976         3993 
  527000   0.53277223   -7.7382763    3656.9688         3992 
  528000   0.52374941   -7.7552962    3657.2805         3995 
  529000   0.53439484   -7.7507417    3652.0842         3996 
  530000    0.5206261   -7.7482961    3651.4574         3990 
  531000   0.52984821   -7.7323894    3650.9427         3995 
  532000   0.52729032   -7.7445102    3660.0356         3989 
  533000   0.53220976   -7.7632412    3667.1634         3994 
  534000   0.51561895   -7.7342453    3663.4838         3993 
  535000   0.54254406   -7.7476789    3661.5037         3997 
  536000   0.52306721   -7.7324037    3658.4903         3995 
  537000   0.53207121   -7.7500708     3660.022         3996 
  538000   0.53642307   -7.7378575    3661.9447         3991 
  539000   0.52172915   -7.7548449    3664.0512         3995 
  540000   0.51698279   -7.7324905    3661.5413         3996 
  541000   0.53368856   -7.7609369    3652.7965         3995 
  542000   0.52820329   -7.7468541    3655.0383         3991 
  543000    0.5280035   -7.7522389    3652.8445         3996 
  544000   0.53578419    -7.735443    3658.0552         3997 
  545000   0.52899289   -7.7563696    3652.6257         3993 
  546000   0.53316067   -7.7358046    3649.8498         3992 
  547000   0.52288877   -7.7426684    3654.6049         3989 
  548000   0.53234787   -7.7439779    3651.9774         3997 
  549000   0.52407996   -7.7254167    3649.9732         3997 
  550000   0.53822892   -7.7492191    3654.8263         3998 
  551000   0.52730968   -7.7331497     3654.737         3986 
  552000   0.53529216   -7.7345045    3652.1231         3990 
  553000    0.5332784   -7.7548027    3655.5744         3991 
  554000   0.51929288   -7.7364843    3652.6977         3997 
  555000   0.52645321   -7.7444299    3654.2455         3989 
  556000   0.53546037   -7.7385041    3659.8713         3994 
  557000   0.52255628   -7.7547402    3658.6331         3996 
  558000   0.52402938   -7.7363324    3665.2149         3994 
  559000   0.52469529   -7.7404998    3658.2771         3996 
  560000    0.5320163   -7.7385419    3652.9824         3994 
  561000    0.5247991   -7.7310502    3658.3905         3991 
  562000   0.53403204    -7.737498    3655.4342         3990 
  563000   0.52609157   -7.7401102    3651.2673         3995 
  564000   0.53125771    -7.758173    3653.3158         3994 
  565000   0.54368376    -7.747204    3662.8624         3995 
  566000   0.52345843   -7.7382702     3662.052         3993 
  567000   0.52707848   -7.7310326     3651.377         3995 
  568000   0.51985482   -7.7399528    3652.0933         3997 
  569000   0.52124676   -7.7334553    3663.0513         3993 
  570000   0.52155023   -7.7465279    3657.0119         3994 
  571000   0.52941591    -7.742526    3654.4401         3989 
  572000   0.53876462   -7.7359942    3657.8165         3992 
  573000   0.53418435    -7.743817    3661.3723         3985 
  574000   0.53217858   -7.7316678    3655.5716         3991 
  575000   0.53404627   -7.7494776    3655.1792         3997 
  576000   0.52271458    -7.747104     3660.373         3999 
  577000   0.52507005   -7.7408194    3660.7637         3990 
  578000   0.52843074   -7.7394386     3656.506         3991 
  579000    0.5215724   -7.7451309    3654.2593         3993 
  580000   0.53616669   -7.7529341    3655.3227         3995 
  581000   0.52402704   -7.7376539    3654.3357         3995 
  582000   0.52980472   -7.7415867    3653.0624         3994 
  583000   0.54233439   -7.7338936    3656.3917         3996 
  584000   0.53709216   -7.7415232    3665.0436         3993 
  585000   0.53551802   -7.7521319    3659.3119         3994 
  586000   0.52405522   -7.7417156    3651.2714         3994 
  587000   0.54523148   -7.7325171    3658.2674         3993 
  588000   0.53699105   -7.7551943    3660.6902         3998 
  589000   0.52401491   -7.7445723    3658.3311         3996 
  590000   0.52852118   -7.7492484    3659.3675         3993 
  591000   0.53905944   -7.7544915    3655.0004         3994 
  592000   0.53641821   -7.7369591    3657.3974         3989 
  593000   0.52900382   -7.7575793    3651.3703         3993 
  594000   0.53120059   -7.7444131    3660.0446         3994 
  595000   0.52569446   -7.7377876    3664.3266         3990 
  596000   0.53004378     -7.73981      3657.61         3987 
  597000   0.52573466   -7.7535431    3661.9124         3989 
  598000   0.52680661   -7.7363332     3659.433         3997 
  599000   0.52833284   -7.7405196    3651.7491         3992 
  600000   0.52116805   -7.7457374    3654.8072         3989 
  601000   0.54248266   -7.7401665    3657.4001         3997 
  602000    0.5400092   -7.7276911     3651.009         3993 
  603000   0.53461901   -7.7482687    3659.9774         3992 
  604000     0.526808   -7.7482766    3653.3349         3991 
  605000   0.51768428   -7.7364376    3650.7367         3992 
  606000     0.529266   -7.7461801    3651.7372         3995 
  607000   0.52127413   -7.7522977    3662.5316         3997 
  608000   0.52541128   -7.7627283     3660.124         3995 
  609000   0.51828156   -7.7424792    3662.6607         3995 
  610000   0.51401748   -7.7380867    3651.7501         3993 
  611000   0.52753381   -7.7488604    3664.8339         3996 
  612000   0.54176021   -7.7479911    3652.6498         3991 
  613000   0.53200151   -7.7416717    3662.5867         3993 
  614000   0.53437718   -7.7435316    3652.7438         3996 
  615000    0.5424931   -7.7344969    3665.0039         3991 
  616000   0.51645649   -7.7342548    3657.3638         3996 
  617000   0.53817284   -7.7328293    3650.8087         3994 
  618000   0.53502865   -7.7482143    3660.5707         3998 
  619000   0.53896918   -7.7419244    3656.3865         3993 
  620000   0.52167987    -7.723367    3644.8585         3995 
  621000   0.52977133   -7.7310888    3647.9399         3993 
  622000   0.53121298   -7.7545366     3656.788         3993 
  623000   0.52079274   -7.7560597    3660.2355         3984 
  624000   0.52836621   -7.7352531    3657.3444         3995 
  625000   0.52750621   -7.7414462    3652.0363         3994 
  626000   0.51883512   -7.7330268    3657.2208         3991 
  627000   0.53634164   -7.7467992    3649.4309         3995 
  628000   0.53073459   -7.7437783    3658.3287         3997 
  629000   0.54013674   -7.7611812    3655.9543         3993 
  630000   0.52982686   -7.7308347    3654.3759         3995 
  631000    0.5192347   -7.7344923    3652.5001         3993 
  632000   0.53129126   -7.7305646     3663.142         3994 
  633000   0.53678161   -7.7512497    3656.7287         3991 
  634000   0.53126283   -7.7591574    3657.3864         3988 
  635000   0.53171798    -7.748038    3664.8993         3994 
  636000   0.54215141   -7.7515847       3653.2         3990 
  637000   0.52533283   -7.7203837    3644.9572         3997 
  638000   0.53139261   -7.7538649    3657.0317         3998 
  639000   0.52507072   -7.7425157    3657.5355         3990 
  640000   0.54560482   -7.7453779    3663.8687         3998 
  641000   0.52946868   -7.7282571     3659.328         3992 
  642000   0.53746256   -7.7350937    3655.5617         3992 
  643000   0.54232319   -7.7266111    3663.0855         3991 
  644000   0.52691096   -7.7406287    3652.6689         3997 
  645000   0.53727578   -7.7274285    3658.5222         3991 
  646000   0.52409225   -7.7466428     3652.549         3992 
  647000   0.53957226   -7.7424635    3648.1851         3994 
  648000   0.53328304   -7.7536701    3655.3746         3985 
  649000   0.54507372   -7.7535545     3653.332         3997 
  650000   0.53774322   -7.7359552    3657.7908         3998 
  651000    0.5248089   -7.7384941    3662.2078         3993 
  652000   0.53693341   -7.7395079    3657.7608         3993 
  653000   0.53302678   -7.7484974    3655.7707         3992 
  654000   0.52328821   -7.7290695    3653.8866         3997 
  655000   0.51672387   -7.7403258    3660.6086         3995 
  656000   0.53246943   -7.7377651     3650.284         3990 
  657000   0.52616325   -7.7264904    3659.0626         3998 
  658000   0.53088366   -7.7386962    3658.9251         3997 
  659000   0.52650128   -7.7517757     3657.195         3998 
  660000   0.52698504   -7.7326486    3661.5172         3997 
  661000   0.52421787   -7.7386014    3655.6231         3995 
  662000   0.53704026   -7.7318074    3656.7993         3990 
  663000   0.53827249   -7.7402852    3651.8403         3993 
  664000   0.53838268   -7.7449896    3657.8338         3997 
  665000   0.52876824   -7.7527152    3658.8167         3990 
  666000   0.53510489   -7.7382013    3653.6931         3997 
  667000   0.52652307   -7.7451192    3659.3466         3997 
  668000   0.53389555   -7.7263043    3653.5523         3990 
  669000   0.53402934   -7.7475627    3662.0315         3992 
  670000   0.53439842   -7.7335821    3653.7762         3990 
  671000   0.52985801   -7.7568317    3657.5384         3991 
  672000   0.52775799   -7.7512057    3656.3519         3997 
  673000    0.5348131   -7.7384458     3653.672         3989 
  674000   0.52475071   -7.7405877     3655.706         3994 
  675000   0.52843727   -7.7393998    3648.8944         3992 
  676000   0.52590995   -7.7611709    3662.0547         3992 
  677000   0.53145127    -7.748617    3660.0241         3991 
  678000   0.53180019   -7.7319911    3654.6826         3996 
  679000   0.52968495    -7.750471    3655.1669         3995 
  680000    0.5136678   -7.7403366    3658.9089         3994 
  681000   0.52200238    -7.745996    3654.9332         3994 
  682000   0.51905589   -7.7521826    3662.5226         3998 
  683000   0.53160705   -7.7454421    3652.5844         3990 
  684000   0.53330401    -7.738006    3661.5812         3995 
  685000   0.53731259   -7.7415501     3665.751         3983 
  686000   0.53151291   -7.7359512    3654.2832         3996 
  687000   0.53039237   -7.7314007    3656.9554         3993 
  688000   0.53589622   -7.7473029    3665.7564         3996 
  689000   0.53338244   -7.7382774    3657.1308         3997 
  690000   0.52374816    -7.733717    3656.4253         3996 
  691000    0.5315399   -7.7463908    3659.4719         3995 
  692000   0.53604519   -7.7340314    3656.9415         3993 
  693000   0.53243401   -7.7354422    3656.9272         3991 
  694000   0.53359478   -7.7430869    3659.6154         3989 
  695000   0.53147865   -7.7582555    3655.3336         3993 
  696000   0.53424594    -7.748186    3651.7891         3997 
  697000   0.53696544   -7.7423182    3657.2498         3991 
  698000   0.53725066    -7.745032    3661.0798         3990 
  699000   0.53230624    -7.755308    3652.7053         3994 
  700000    0.5409577   -7.7205487    3655.7863         3993 
  701000   0.52751341   -7.7259211    3654.7523         3994 
  702000   0.52037499   -7.7349076    3660.7989         3995 
  703000   0.53313671   -7.7223603    3654.2132         3991 
  704000   0.52804685    -7.742703    3648.4872         3993 
  705000   0.53499506   -7.7284255    3656.1241         3992 
  706000   0.53435825   -7.7219272     3665.809         3993 
  707000   0.52535739   -7.7510816     3665.898         3996 
  708000    0.5437431   -7.7461691    3659.7458         3991 
  709000   0.52630536   -7.7388048    3648.1582         3992 
  710000   0.52525459   -7.7579959    3664.8829         3995 
  711000   0.52225102   -7.7356621    3655.6125         3996 
  712000   0.51828609   -7.7596599    3659.5821         3993 
  713000   0.52986291   -7.7375747    3655.1525         3994 
  714000   0.52924551   -7.7268839    3667.1788         3993 
  715000   0.52545346   -7.7461209    3668.2848         3995 
  716000   0.52804984   -7.7430055    3661.6563         3988 
  717000   0.52590123   -7.7525824     3652.906         3995 
  718000    0.5372961   -7.7425096    3652.7411         3990 
  719000   0.53161264   -7.7379231    3662.0499         3995 
  720000   0.52806672   -7.7365727    3656.9965         3997 
  721000   0.54576935   -7.7344151    3649.7184         3986 
  722000   0.52916007   -7.7406309     3658.827         3991 
  723000   0.53132865   -7.7356884    3656.5043         3993 
  724000   0.53575326   -7.7337565    3664.0559         3987 
  725000   0.53643554   -7.7337355    3657.7106         3998 
  726000   0.52688876   -7.7496919     3667.772         3993 
  727000   0.52701566   -7.7435478    3649.6546         3995 
  728000   0.52965944   -7.7481482    3649.4766         3994 
  729000   0.51978625   -7.7337342    3652.8897         3995 
  730000   0.52935896   -7.7432069    3651.4928         3993 
  731000   0.52615449   -7.7341841    3657.2794         3991 
  732000   0.52588416   -7.7437521      3654.69         3994 
  733000   0.53453914   -7.7245239    3651.2533         3990 
  734000    0.5365027   -7.7346869    3657.3776         3995 
  735000   0.53207446   -7.7514384    3656.3518         3994 
  736000   0.54208936   -7.7487186    3664.7946         3990 
  737000   0.53455874   -7.7317486    3659.5959         3995 
  738000   0.52533559   -7.7437057    3658.6532         3990 
  739000   0.53584842   -7.7536122    3649.1111         3991 
  740000   0.52911384    -7.737117    3646.5441         3993 
  741000   0.53021527   -7.7415072     3652.361         3991 
  742000   0.52834935   -7.7544626    3657.6941         3993 
  743000   0.53146999    -7.749286    3657.9637         3991 
  744000   0.52039377   -7.7441026    3650.7764         3987 
  745000   0.51696869   -7.7439332      3650.88         3993 
  746000   0.53164062   -7.7482218    3656.3211         3989 
  747000   0.53151494   -7.7335729    3653.2963         3996 
  748000   0.52759188   -7.7243513    3659.7755         3992 
  749000   0.52692504   -7.7476131    3657.0659         3998 
  750000   0.51415534   -7.7459029    3660.7065         3990 
  751000   0.52801234   -7.7328148    3650.4267         3994 
  752000   0.53307383   -7.7593353    3663.3959         3995 
  753000   0.52970407   -7.7322113    3659.4918         3996 
  754000   0.53848138   -7.7395431    3660.1801         3988 
  755000   0.52723905   -7.7537545    3664.8707         3983 
  756000   0.52338333    -7.748367    3651.9334         3991 
  757000   0.53049428   -7.7395302    3658.8456         3986 
  758000   0.52844457   -7.7374544    3655.1737         3991 
  759000   0.52723401   -7.7327188    3657.1248         3993 
  760000   0.52617915   -7.7611078    3662.1212         3990 
  761000   0.52812648   -7.7379278    3659.2651         3987 
  762000   0.53341948   -7.7686373     3654.237         3989 
  763000   0.53267034    -7.742522    3656.6798         3993 
  764000   0.53908503   -7.7499455    3661.8379         3993 
  765000   0.53211349   -7.7569308    3654.3844         3989 
  766000   0.52968997   -7.7562934    3647.7007         3996 
  767000   0.53474944   -7.7494942    3655.4012         3999 
  768000   0.53708653   -7.7656722     3656.164         3990 
  769000   0.53116493   -7.7635787    3650.5385         3993 
  770000   0.52072036   -7.7572769     3652.333         3997 
  771000   0.53912557   -7.7645843    3652.5653         3984 
  772000     0.532349   -7.7459024    3652.7797         3983 
  773000   0.52025919   -7.7503148     3651.807         3993 
  774000   0.52018325   -7.7591611     3643.649         3992 
  775000   0.51703573   -7.7855169    3655.7752         3995 
  776000   0.53159756   -7.7704246    3661.0787         3990 
  777000   0.53267762   -7.7422556    3651.3351         3994 
  778000   0.52381069   -7.7655377    3642.4574         3996 
  779000   0.52448875   -7.7520723    3652.9139         3996 
  780000   0.53576118   -7.7760115    3652.2252         3996 
  781000   0.51945772   -7.7533238    3646.4268         3991 
  782000   0.53557883   -7.7540463    3654.4924         3996 
  783000   0.52405407   -7.7477059    3644.1971         3991 
  784000   0.53025056   -7.7584661    3658.1408         3991 
  785000   0.52477647   -7.7775019    3652.1891         3993 
  786000   0.53140833   -7.7507002    3648.4064         3995 
  787000   0.53072435   -7.7822463    3653.9285         3998 
  788000   0.53658423   -7.7596153     3650.018         3991 
  789000   0.53948159   -7.7662564    3651.8938         3995 
  790000   0.50925519   -7.7626817    3653.4035         3991 
  791000   0.52687886   -7.7698621    3647.4241         3995 
  792000   0.53190089   -7.7663182    3648.9234         3995 
  793000   0.52810151   -7.7780481     3653.224         3992 
  794000   0.53318669   -7.7752883    3640.9408         3996 
  795000   0.52793156   -7.7615446    3644.3656         3992 
  796000   0.51802094   -7.7840054    3659.8639         3994 
  797000   0.52063499   -7.7593816     3653.659         3991 
  798000   0.52621517   -7.7699861    3646.2811         3993 
  799000   0.52508647   -7.7724435    3648.7833         3993 
  800000   0.53521313   -7.7636194    3654.5688         3993 
  801000   0.53000517   -7.7568389    3653.0377         3993 
  802000   0.53356703   -7.7702766    3658.3059         3995 
  803000   0.53503523   -7.7590248     3651.952         3996 
  804000   0.52923368   -7.7828295     3658.923         3997 
  805000   0.53202345   -7.7781418    3647.5556         3995 
  806000   0.53278345   -7.7591047    3653.0369         3998 
  807000   0.51640454   -7.7731391    3658.6479         3996 
  808000   0.53484448   -7.7911754    3658.1122         3996 
  809000   0.52419366    -7.775422    3653.1988         3993 
  810000   0.53686941   -7.7876909    3654.5627         3992 
  811000   0.52384939   -7.7635233    3654.2453         3994 
  812000   0.53322879   -7.7667126    3653.2276         3997 
  813000   0.53299788   -7.7538065    3654.7908         3989 
  814000   0.53193394   -7.7639083    3655.6633         3993 
  815000   0.53244076   -7.7677646    3652.4251         3995 
  816000   0.53117749   -7.7562002    3650.5318         3996 
  817000   0.53035274   -7.7561378    3653.2447         3996 
  818000   0.51964866   -7.7586458    3647.6227         3993 
  819000   0.53027546   -7.7443938     3640.614         3996 
  820000   0.53058901   -7.7478835    3650.6812         3995 
  821000   0.53374607   -7.7521255     3642.847         3994 
  822000   0.53961474   -7.7720597    3655.3048         3994 
  823000   0.52245372   -7.7525324    3655.1851         3995 
  824000   0.52528248   -7.7798433    3650.9211         3995 
  825000   0.53604489   -7.7588746    3652.4121         3994 
  826000   0.52109636   -7.7786418    3642.7987         3990 
  827000   0.52625568   -7.7601328    3651.9243         3995 
  828000   0.52474234   -7.7646495    3646.7795         3996 
  829000   0.52361193   -7.7747309    3649.7414         3997 
  830000   0.54027052   -7.7721274    3649.3063         3995 
  831000   0.53414968   -7.7478337    3647.8067         3991 
  832000   0.54102066   -7.7611858    3651.1518         3997 
  833000   0.53015353   -7.7726386    3657.4231         3994 
  834000   0.52613137   -7.7668438    3650.0487         3997 
  835000    0.5321081   -7.7514348    3655.4859         3992 
  836000    0.5376581   -7.7611203    3656.0407         3994 
  837000   0.53428972   -7.7728935    3654.1197         3996 
  838000   0.53234137   -7.7619671    3651.2433         3996 
  839000   0.52671333   -7.7561245    3652.6645         3994 
  840000   0.52100899   -7.7553871    3651.4894         3996 
  841000   0.52366934   -7.7669551    3643.4621         3995 
  842000   0.53094489   -7.7858521     3653.077         3995 
  843000   0.52237127   -7.7678456    3653.2812         3995 
  844000   0.53068846   -7.7538716    3650.9833         3994 
  845000   0.53253246   -7.7622114    3650.4949         3993 
  846000    0.5297419   -7.7588575    3650.6731         3995 
  847000   0.53860955   -7.7717382    3650.6289         3998 
  848000   0.52792174   -7.7611106     3657.563         3994 
  849000   0.51906722   -7.7689393     3657.041         3997 
  850000   0.52286825   -7.7787454    3655.1937         3990 
  851000   0.53685558    -7.765148    3650.6799         3996 
  852000    0.5179079   -7.7572496    3643.6459         3994 
  853000    0.5301844   -7.7610479    3643.1834         3995 
  854000   0.51570222   -7.7626013    3651.2979         3993 
  855000   0.53642279   -7.7558671    3657.0022         3996 
  856000   0.52515703   -7.7633388    3649.3793         3997 
  857000   0.53093022   -7.7661863    3660.0723         3991 
  858000   0.52949693   -7.7717827    3656.3015         3994 
  859000   0.52066713   -7.7742836    3655.3673         3997 
  860000   0.51449235   -7.7656424    3643.8165         3993 
  861000   0.54063317   -7.7688098    3652.0484         3997 
  862000   0.52349853   -7.7729066    3645.9723         3993 
  863000   0.53571777   -7.7490877    3658.3423         3996 
  864000    0.5251199   -7.7651688    3659.6249         3993 
  865000   0.52044163   -7.7589822    3648.2483         3994 
  866000   0.53117801   -7.7533157    3650.0623         3994 
  867000   0.53296716   -7.7804353     3652.344         3994 
  868000   0.52711939   -7.7735225    3652.2061         3995 
  869000   0.52244309   -7.7627283    3645.2175         3993 
  870000    0.5246355   -7.7490865    3647.3212         3993 
  871000   0.53476015   -7.7603507    3659.9827         3995 
  872000   0.53665121   -7.7583381    3655.3464         3994 
  873000   0.53353169   -7.7655758     3657.463         3994 
  874000   0.52282098   -7.7652694    3651.9053         3988 
  875000   0.54774566   -7.7668971    3648.5828         3995 
  876000   0.52522778   -7.7691578    3651.6294         3994 
  877000   0.52785209   -7.7420142     3645.758         3994 
  878000   0.52011922   -7.7590969    3648.9868         3993 
  879000   0.53173515   -7.7716234    3646.8365         3992 
  880000   0.53278923   -7.7685123    3650.7861         3995 
  881000   0.52585079   -7.7809224    3646.7335         3994 
  882000   0.52348356   -7.7691039    3656.4065         3994 
  883000   0.52789415   -7.7723093    3647.5532         3991 
  884000   0.52543898   -7.7576443    3648.4664         3997 
  885000   0.53541357   -7.7719585    3648.5921         3992 
  886000   0.52827513   -7.7685923    3651.7312         3997 
  887000   0.52079671   -7.7699135    3646.4323         3994 
  888000   0.52747111    -7.775082    3657.8807         3996 
  889000   0.53781155   -7.7779754    3646.0596         3997 
  890000   0.52169929   -7.7473097    3649.6244         3996 
  891000    0.5349546   -7.7640809    3651.5029         3993 
  892000   0.52865225   -7.7633452    3655.3371         3995 
  893000    0.5307455   -7.7528834    3656.1605         3992 
  894000   0.53087771   -7.7612113    3645.1234         3999 
  895000   0.51714553   -7.7554641    3647.5723         3993 
  896000   0.53494343   -7.7495826    3650.9179         3996 
  897000   0.53482156   -7.7517395    3646.9856         3997 
  898000   0.53111568   -7.7487226    3649.0802         3995 
  899000   0.52860705   -7.7696929    3647.1876         3992 
  900000   0.54204533   -7.7718891    3652.7237         3993 
  901000   0.54135274   -7.7543574    3652.3306         3993 
  902000   0.53081711   -7.7589676    3656.3755         3996 
  903000   0.54110184   -7.7551079    3652.7983         3996 
  904000   0.54871801   -7.7711199    3655.1474         3998 
  905000   0.53050651   -7.7587414    3646.6616         3996 
  906000   0.53310594   -7.7432327    3644.0639         3998 
  907000   0.53312878   -7.7678909    3649.5939         3997 
  908000   0.53249883   -7.7765847    3651.5753         3995 
  909000   0.52338011   -7.7802809    3648.1522         3997 
  910000   0.53646155   -7.7596315    3654.1204         3993 
  911000   0.52959721    -7.767737     3651.628         3992 
  912000   0.51897373   -7.7686881    3652.7717         3994 
  913000   0.53452267   -7.7688246    3651.8145         3993 
  914000   0.52598981   -7.7423971    3651.4382         3996 
  915000   0.53054605   -7.7518497    3652.7479         3995 
  916000   0.52456513   -7.7537421    3642.2026         3995 
  917000   0.51643614   -7.7807052    3651.8768         3991 
  918000   0.54289313    -7.777921    3651.4059         3993 
  919000   0.51531051   -7.7583687    3650.9253         3994 
  920000   0.53535441   -7.7566055    3662.4447         3992 
  921000   0.53458245   -7.7499835    3646.8621         3997 
  922000   0.53274586   -7.7671172     3652.312         3996 
  923000   0.52950762   -7.7686293    3656.3052         3993 
  924000   0.53504573   -7.7584029    3652.8688         3994 
  925000   0.52362332   -7.7546446    3643.0814         3993 
  926000   0.54374558   -7.7747932    3646.1751         3993 
  927000   0.52827795   -7.7854665    3647.2058         3991 
  928000   0.53335492    -7.738976    3647.8126         3994 
  929000   0.53477799   -7.7852767    3663.8299         3994 
  930000    0.5263526   -7.7841839    3650.3135         3995 
  931000    0.5323046   -7.7718861    3651.5108         3995 
  932000   0.53982083   -7.7695944    3652.5309         3993 
  933000   0.52680719   -7.7688563    3648.3941         3992 
  934000   0.52622841   -7.7547112    3654.6265         3993 
  935000   0.53686782   -7.7495431    3651.0969         3994 
  936000   0.52613459   -7.7782663    3658.9278         3994 
  937000   0.52095414   -7.7801964    3655.7578         3998 
  938000   0.52937103   -7.7762913    3646.1381         3995 
  939000   0.53244367   -7.7823234    3648.3451         3994 
  940000   0.52706811   -7.7684065    3655.1851         3996 
  941000   0.53657701   -7.7473506    3658.1526         3995 
  942000   0.53812941   -7.7546934    3652.8816         3993 
  943000   0.52005431   -7.7585476    3643.8993         3996 
  944000   0.51899753   -7.7715573    3650.2329         3994 
  945000   0.54585177   -7.7543838    3653.7285         3995 
  946000    0.5317819   -7.7718998    3653.1242         3989 
  947000   0.52995221   -7.7883236    3649.0015         3995 
  948000   0.53655288   -7.7699318    3646.1498         3994 
  949000   0.51554034   -7.7577526    3650.0193         3997 
  950000   0.53235875   -7.7671975    3660.2021         3993 
  951000   0.52725767   -7.7669382    3645.4632         3995 
  952000   0.52709346   -7.7672927    3648.4665         3993 
  953000   0.51033804   -7.7423011    3644.0936         3997 
  954000   0.52937868   -7.7500725    3646.9864         3994 
  955000   0.53633242   -7.7533656    3647.2074         3995 
  956000   0.52597994   -7.7566045    3652.6501         3994 
  957000   0.53068185   -7.7586579    3645.6288         3996 
  958000   0.52721108   -7.7659599     3652.492         3995 
  959000    0.5280908   -7.7548726     3646.827         3998 
  960000   0.52488078   -7.7678804    3650.8011         3994 
  961000   0.53124608   -7.7708827    3654.6409         3994 
  962000   0.52654861   -7.7681336    3657.4271         3995 
  963000   0.53656791   -7.7617507    3641.0407         3993 
  964000   0.54141032   -7.7560115    3653.4715         3993 
  965000   0.53911648   -7.7646882    3650.2872         3995 
  966000   0.53525215    -7.757528    3641.2878         3990 
  967000   0.53123546   -7.7692782    3653.4062         3995 
  968000    0.5373099   -7.7632939    3645.8615         3998 
  969000   0.53656325   -7.7645389     3647.053         3996 
  970000   0.53044538   -7.7667329    3648.7551         3992 
  971000   0.52062464    -7.748761    3658.3933         3998 
  972000   0.53654211     -7.76133    3641.6762         3995 
  973000   0.52320806   -7.7465801    3639.3976         3996 
  974000    0.5203618   -7.7676985    3643.6032         3996 
  975000   0.53492393   -7.7607517    3649.3041         3997 
  976000   0.53150587   -7.7627641    3643.6526         3996 
  977000   0.52892688   -7.7666822    3649.2496         3996 
  978000   0.54069483   -7.7617007    3655.1292         3993 
  979000   0.52670364   -7.7395941    3650.9656         3996 
  980000   0.53429479   -7.7708196     3643.855         3996 
  981000   0.54066644   -7.7571215    3657.1471         3996 
  982000    0.5305617   -7.7396674    3644.5301         3992 
  983000    0.5346222    -7.754027    3646.0209         3996 
  984000   0.53269431   -7.7515696    3648.8511         3996 
  985000   0.52862028   -7.7504169    3654.9531         3990 
  986000   0.53569681   -7.7606211    3654.9054         3996 
  987000    0.5307553   -7.7691554    3651.1915         3996 
  988000    0.5309388   -7.7633499    3648.3044         3993 
  989000   0.52880938   -7.7681919    3646.7677         3994 
  990000    0.5325288   -7.7733339    3656.6762         3995 
  991000   0.52623523   -7.7632216    3646.0049         3998 
  992000   0.53097478   -7.7615279    3647.6331         3996 
  993000   0.52522152   -7.7647575    3656.3672         3994 
  994000   0.52264533   -7.7535616    3639.8559         3996 
  995000   0.53156827   -7.7660898    3654.1237         3997 
  996000    0.5278444   -7.7555829     3656.795         3993 
  997000   0.53523708   -7.7581129    3657.2155         3997 
  998000   0.52528496   -7.7637094    3647.8431         3996 
  999000   0.52842613   -7.7562165    3651.5061         3995 
 1000000   0.52860188   -7.7587429    3650.8539         3991 
 1001000   0.52788762   -7.7591413    3647.2076         3996 
 1002000    0.5230598   -7.7450271    3651.8688         3992 
 1003000   0.52734225    -7.764902    3647.3479         3993 
 1004000   0.53255049   -7.7668629    3657.2402         3996 
Loop time of 2175.37 on 48 procs for 1000000 steps with 4000 atoms

Performance: 79434.809 tau/day, 459.692 timesteps/s
99.4% CPU use with 48 MPI tasks x no OpenMP threads

MPI task timing breakdown:
Section |  min time  |  avg time  |  max time  |%varavg| %total
---------------------------------------------------------------
Pair    | 132.79     | 147.67     | 168.79     |  79.9 |  6.79
Neigh   | 10.236     | 10.769     | 11.391     |  11.2 |  0.50
Comm    | 103.92     | 126.46     | 144.71     |  94.4 |  5.81
Output  | 2.5248     | 2.5257     | 2.5442     |   0.2 |  0.12
Modify  | 1846.2     | 1858.6     | 1871.5     |  12.5 | 85.44
Other   |            | 29.37      |            |       |  1.35

Nlocal:        83.3333 ave          89 max          75 min
Histogram: 1 1 7 7 0 8 2 10 4 8
Nghost:        1740.69 ave        1760 max        1718 min
Histogram: 3 2 4 1 9 11 7 5 0 6
Neighs:        10390.1 ave       11069 max        9299 min
Histogram: 1 1 4 7 7 2 6 4 5 11
FullNghs:      20781.1 ave       22430 max       18658 min
Histogram: 1 2 5 8 5 5 3 8 6 5

Total # of neighbors = 997494
Ave neighs/atom = 249.37350
Neighbor list builds = 43086
Dangerous builds = 0

#clear
#
#next RN
#
#jump SELF
Total wall time: 0:36:16
