
units lj                  # Use reduced LJ style units
atom_style atomic         # Uncharged point particles
atom_modify map hash      # Needed for indexing of clusters etc
                          # Used to be able to find where atoms are in relation to each other.

lattice fcc 1.0 spacing 1 1 1
Lattice spacing in x,y,z = 1.5874011 1.5874011 1.5874011
region box block 0 10 0 10 0 10 units lattice
create_box 2 box
Created orthogonal box = (0.0000000 0.0000000 0.0000000) to (15.874011 15.874011 15.874011)
  3 by 4 by 4 MPI processor grid
create_atoms 1 box
Created 4000 atoms
  using lattice units in orthogonal box = (0.0000000 0.0000000 0.0000000) to (15.874011 15.874011 15.874011)
  create_atoms CPU = 0.003 seconds
set type 1 type/fraction 2 0.68 78393
Setting atom values ...
  2740 settings made for type/fraction
mass 1 1.0
mass 2 1.0
pair_style lj/cut  3.5
pair_modify tail  yes
pair_coeff 1  1  1.0  1.0   # Intearaction between 1 and 1 set with epsilon = 1 and sigma = 1
pair_coeff 1  2  1.5  0.8
pair_coeff 2  2  0.5  0.88

write_data data.0
System init for write_data ...
Neighbor list info ...
  update every 1 steps, delay 10 steps, check yes
  max neighbors/atom: 2000, page size: 100000
  master list distance cutoff = 3.8
  ghost atom cutoff = 3.8
  binsize = 1.9, bins = 9 9 9
  1 neighbor lists, perpetual/occasional/extra = 1 0 0
  (1) pair lj/cut, perpetual
      attributes: half, newton on
      pair build: half/bin/atomonly/newton
      stencil: half/bin/3d
      bin: standard
WARNING: Not all mixed pair coeffs generated from mixing. Use write_data with 'pair ij' option to store all pair coeffs. (../write_data.cpp:312)


#############################
#   M E L T   S Y S T E M   #
#############################

velocity all create 2.4 5300450 mom yes dist gaussian # Assign velocities
                                                    # Temperature 2.4, random number seed, zero linear momentum
                                                                                # Gaussian distribution

timestep 0.002   # simulation timestep
thermo 1000       # output thermodynamic data every 1000 steps bf 100

# Define a fix  in this case with index 1 applied to all
# particles in the simulation. This fix is for simulations
# in the anisotropic NPT ensemble. Note that we use the MTK
# correction.
fix 1 all npt temp 2.4 2.4 0.1 iso 5.68 5.68 0.5 mtk yes tchain 5 pchain 5 # Use NPT ensemble
                                                                         # Set temperature and pressure and damping
                                                                         # Numbers of thermostats in chain and in barostat
run 10000          # run for 10000 steps
Per MPI rank memory allocation (min/avg/max) = 3.642 | 3.644 | 3.648 Mbytes
Step Temp E_pair E_mol TotEng Press Volume 
       0          2.4   -4.2819815            0  -0.68288149   -3.8317514         4000 
    1000    2.3251961   -3.8570779            0   -0.3701557    5.9147235    3658.3537 
    2000    2.4186187    -3.997149            0  -0.37012791    5.4796485     3630.388 
    3000    2.3842688   -3.9863138            0  -0.41080474    5.9575799    3587.7774 
    4000    2.4147739   -3.9683507            0  -0.34709528    5.4272279    3657.4756 
    5000    2.3836922   -3.9373464            0  -0.36270203    5.5537522      3649.69 
    6000     2.400678   -3.9197635            0  -0.31964671    5.9701321    3633.6649 
    7000    2.4331671   -3.9267088            0  -0.27787065    5.7576431    3643.2534 
    8000    2.3900243   -3.9638824            0  -0.37974217    5.5883228     3630.558 
    9000    2.4282598   -3.9610295            0  -0.31955041    5.5907699    3646.9466 
   10000    2.3871649   -3.9343767            0  -0.35452445     5.489646     3660.445 
Loop time of 2.65967 on 48 procs for 10000 steps with 4000 atoms

Performance: 649703.869 tau/day, 3759.860 timesteps/s
99.6% CPU use with 48 MPI tasks x no OpenMP threads

MPI task timing breakdown:
Section |  min time  |  avg time  |  max time  |%varavg| %total
---------------------------------------------------------------
Pair    | 1.1907     | 1.2636     | 1.3368     |   2.8 | 47.51
Neigh   | 0.21497    | 0.22241    | 0.23755    |   1.1 |  8.36
Comm    | 0.80176    | 0.89201    | 0.96842    |   4.0 | 33.54
Output  | 0.00024424 | 0.000251   | 0.00032262 |   0.0 |  0.01
Modify  | 0.22913    | 0.26562    | 0.29998    |   3.7 |  9.99
Other   |            | 0.01573    |            |       |  0.59

Nlocal:        83.3333 ave          91 max          77 min
Histogram: 4 2 6 6 6 12 5 4 1 2
Nghost:        1742.67 ave        1773 max        1717 min
Histogram: 2 5 5 8 5 9 9 3 1 1
Neighs:        10433.2 ave       11647 max        9336 min
Histogram: 1 5 5 5 12 7 8 2 1 2

Total # of neighbors = 500793
Ave neighs/atom = 125.19825
Neighbor list builds = 899
Dangerous builds = 169

# Equilibrate just above the melting temperature to avoid step fn in T

fix 1 all npt temp 1.25 1.25 0.1 iso 5.68 5.68 0.5 mtk yes tchain 5 pchain 5
run 2000
Per MPI rank memory allocation (min/avg/max) = 3.644 | 3.646 | 3.650 Mbytes
Step Temp E_pair E_mol TotEng Press Volume 
   10000    2.3871649   -3.9343767            0  -0.35452445     5.489646     3660.445 
   11000    1.2515112   -5.8148863            0   -3.9380889    5.7396259    2775.5615 
   12000    1.2444448   -5.8865279            0   -4.0203274    5.4849869    2762.6806 
Loop time of 0.669113 on 48 procs for 2000 steps with 4000 atoms

Performance: 516504.998 tau/day, 2989.034 timesteps/s
99.7% CPU use with 48 MPI tasks x no OpenMP threads

MPI task timing breakdown:
Section |  min time  |  avg time  |  max time  |%varavg| %total
---------------------------------------------------------------
Pair    | 0.29946    | 0.32288    | 0.38375    |   2.8 | 48.25
Neigh   | 0.041635   | 0.043967   | 0.05181    |   0.8 |  6.57
Comm    | 0.1911     | 0.25226    | 0.27724    |   3.3 | 37.70
Output  | 5.3547e-05 | 5.5236e-05 | 7.0209e-05 |   0.0 |  0.01
Modify  | 0.037568   | 0.045114   | 0.049925   |   1.9 |  6.74
Other   |            | 0.004833   |            |       |  0.72

Nlocal:        83.3333 ave          90 max          76 min
Histogram: 3 0 7 1 8 13 5 7 0 4
Nghost:        2109.98 ave        2140 max        2087 min
Histogram: 2 4 6 7 11 8 7 1 1 1
Neighs:        13805.3 ave       15832 max       12244 min
Histogram: 2 3 8 7 9 9 6 3 0 1

Total # of neighbors = 662653
Ave neighs/atom = 165.66325
Neighbor list builds = 144
Dangerous builds = 14

#############################
# L I N E A R  Q U E N C H  #
#############################

# Define solid atoms. This closely follows ten Wolde  Ruiz-Montero and Frenkel  Faraday Discuss  1996  104  93-110
# Compute components of the per-atom q6 vector
compute q6 all orientorder/atom degrees 1 6 components 6 nnn NULL cutoff 1.3 # compute the Q6 parameter.
                                                                             # Use all neighbours within 1.3 unit cell.

# get number of connections
compute coord_number all coord/atom orientorder q6 0.5

# An atom is solid if it has 8 or more connections (of a possible 14)
variable is_solid atom c_coord_number>=8
group solid dynamic all var is_solid    # Must be dynamic to update
dynamic group solid defined

# do clustering
compute cluster solid cluster/atom 1.3 # Create a cluster where all atoms within are solid and max 1.3 units from another member

# define chunks one chunk per cluster
compute clus_chunks solid chunk/atom c_cluster nchunk every compress yes  # Says which atoms are in which chunk

# count the size of each chunk
compute size_chunks solid property/chunk clus_chunks count


# Find the maximum entry in the vector of chunk sizes
variable max_n equal max(c_size_chunks)


# Thermo style which includes this variable
# thermo_style custom step temp pe vol v_max_n

thermo ${N}  # Print the thermo information every 100 steps
thermo 1000  

# Reset the npt fix at a lower temperature (below freezing)
fix 1  all npt temp  ${temp} ${temp}  0.1  iso  5.68  5.68  0.5  mtk yes tchain  5  pchain  5
fix 1  all npt temp  0.45 ${temp}  0.1  iso  5.68  5.68  0.5  mtk yes tchain  5  pchain  5
fix 1  all npt temp  0.45 0.45  0.1  iso  5.68  5.68  0.5  mtk yes tchain  5  pchain  5

dump dmp2 all dcd ${N} traj.dcd
dump dmp2 all dcd 1000 traj.dcd


compute msd all msd com yes
variable twopoint equal c_msd[4]/6/(step*dt+1.0e-6)
fix 9 all vector 10 c_msd[4]
variable fit equal slope(f_9)/6/(10*dt)
thermo_style custom step temp pe c_msd[4] v_twopoint v_fit v_max_n

fix 1 all npt temp 1.25 ${temp} 0.1 iso 5.68 5.68 0.5 mtk yes tchain 5 pchain 5
fix 1 all npt temp 1.25 0.45 0.1 iso 5.68 5.68 0.5 mtk yes tchain 5 pchain 5
run 2000000 # 5000000  # Run for this many steps
Neighbor list info ...
  update every 1 steps, delay 10 steps, check yes
  max neighbors/atom: 2000, page size: 100000
  master list distance cutoff = 3.8
  ghost atom cutoff = 3.8
  binsize = 1.9, bins = 8 8 8
  4 neighbor lists, perpetual/occasional/extra = 1 3 0
  (1) pair lj/cut, perpetual
      attributes: half, newton on
      pair build: half/bin/atomonly/newton
      stencil: half/bin/3d
      bin: standard
  (2) compute orientorder/atom, occasional
      attributes: full, newton on
      pair build: full/bin/atomonly
      stencil: full/bin/3d
      bin: standard
  (3) compute coord/atom, occasional
      attributes: full, newton on
      pair build: full/bin/atomonly
      stencil: full/bin/3d
      bin: standard
  (4) compute cluster/atom, occasional
      attributes: full, newton on
      pair build: full/bin/atomonly
      stencil: full/bin/3d
      bin: standard
Per MPI rank memory allocation (min/avg/max) = 9.846 | 9.852 | 9.857 Mbytes
Step Temp PotEng c_msd[4] v_twopoint v_fit v_max_n 
   12000    1.2444448   -5.8865279 7.6184242e-31 5.2905721e-33 8.3333333e+20            1 
   13000    1.2204804   -5.8687324    0.6002301 0.0038476287   0.05053002            2 
   14000    1.2342024   -5.8746569    1.1200426 0.0066669202  0.046180259            4 
   15000    1.2259464   -5.8166447    1.6398074  0.009110041  0.044336691            3 
   16000    1.2587883   -5.8836341    2.1651656  0.011276904  0.043857983            2 
   17000    1.2480856   -5.8264228    2.7301168  0.013382925  0.044183026            1 
   18000    1.2375015   -5.9216967    3.1938403  0.014786297  0.044200694            3 
   19000    1.2697552   -5.8942541    3.7617308  0.016498819  0.044213031            2 
   20000    1.2559168   -5.9006576    4.2992595  0.017913581   0.04404618            5 
   21000    1.2421472   -5.8421513    4.8804081  0.019366698  0.044350896            1 
   22000    1.2550867   -5.8963581    5.5106925  0.020873835  0.044743454            3 
   23000    1.2547163   -5.8527334    6.1003744  0.022102805  0.045089369            2 
   24000    1.2402048   -5.8970652    6.6526513  0.023099483  0.045579489            3 
   25000    1.2541798   -5.8644411    7.1284773   0.02376159  0.045763116            1 
   26000    1.2249471   -5.8687902    7.5836163  0.024306462  0.045695614            2 
   27000    1.2579414   -5.9104473    8.1166536    0.0250514   0.04543747            2 
   28000    1.2403055   -5.8901366    8.6683459  0.025798648  0.045306967            1 
   29000    1.2499267   -5.8970096    9.2699202  0.026637701  0.045300294            3 
   30000    1.2501246   -5.8344147    9.8302604  0.027306279  0.045341189            2 
   31000    1.2472247   -5.8630964    10.338703  0.027792213  0.045305352            3 
   32000     1.268938   -5.8920728    10.735377   0.02795671  0.045191103            2 
   33000    1.2333405   -5.9016696    11.215276  0.028321404  0.045010493            2 
   34000    1.2351329   -5.8773341    11.675076  0.028615383  0.044771663            2 
   35000    1.2592461   -5.9285728    12.120288  0.028857829   0.04454411            3 
   36000    1.2406622   -5.8610999    12.648687  0.029279367  0.044324845            3 
   37000    1.2606705    -5.883783    13.149061  0.029615001  0.044107044            2 
   38000    1.2598345   -5.9054116    13.686973  0.030015291  0.043965964            4 
   39000    1.2372813   -5.8832438     14.32154  0.030601581  0.043872362            2 
   40000    1.2379005   -5.9379601    14.771286  0.030773513   0.04383995            3 
   41000    1.2541667   -5.9306532    15.480684  0.031464804  0.043822168            1 
   42000       1.2711    -5.870984    16.191266  0.032125527  0.043916162            3 
   43000    1.2344425   -5.8998293    16.718175  0.032399563   0.04403935            3 
   44000     1.236605   -5.9380265    17.198973  0.032573813  0.044122149            3 
   45000    1.2487269   -5.8904963    17.609656  0.032610474   0.04416147            1 
   46000    1.2185562   -5.8905648    18.118051  0.032822557  0.044168276            2 
   47000    1.2338557    -5.867253    18.682782    0.0331255  0.044179149            3 
   48000    1.2390228   -5.8832677    19.264663  0.033445596  0.044170816            2 
   49000    1.2653103   -5.9155836     19.78382  0.033645953  0.044178616            2 
   50000    1.2444078   -5.8921232    20.211556  0.033685926  0.044188913            2 
   51000    1.2323549   -5.9175848    20.760166   0.03392184   0.04418039            3 
   52000    1.2328461   -5.8765966     21.46202  0.034394263  0.044190774            2 
   53000    1.2497044   -5.9629334    21.821082  0.034309878  0.044218782            3 
   54000    1.2388717   -5.9124281    22.471775  0.034678664  0.044219794            1 
   55000    1.1932426   -5.8718884    23.096106    0.0349941  0.044238408            3 
   56000    1.2256701    -5.847461    23.626181  0.035158007  0.044276698            3 
   57000    1.2191667   -5.8947491    24.294465  0.035518223  0.044319039            3 
   58000    1.2381139   -5.9234782    24.745852  0.035554385  0.044365272            1 
   59000    1.2505839   -5.8853893     25.34528  0.035798418  0.044399811            2 
   60000    1.2414154    -5.926701    25.665458  0.035646469  0.044434725            2 
   61000    1.2054091    -5.927821    26.389314  0.036050975  0.044457442            4 
   62000    1.2160067   -5.9159109    27.131121   0.03646656  0.044523883            2 
   63000    1.2303614   -5.8643653    27.638151    0.0365584  0.044581549            3 
   64000    1.2131818   -5.9099311     28.09223  0.036578424  0.044639601            5 
   65000     1.227558   -5.9105454    28.662647  0.036746983  0.044685468            5 
   66000    1.2288518   -5.8491804    29.269259  0.036956134  0.044723822            4 
   67000      1.24777   -5.9070573    29.494131  0.036684242  0.044740771            2 
   68000    1.2315886   -5.9090964    30.324442  0.037162306  0.044770022            3 
   69000    1.2148109   -5.8732233    30.781467  0.037175684  0.044786414            1 
   70000    1.2147806   -5.9583648    31.398117  0.037378711  0.044811851            5 
   71000    1.2524808   -5.9403811    31.984569  0.037540574  0.044857693            4 
   72000    1.2171668   -5.8972105    32.743394  0.037897446  0.044910952            1 
   73000    1.2173972   -5.8778047    33.508703  0.038251943  0.044969079            2 
   74000    1.2316917   -5.8960868    34.137386  0.038443002  0.045054868            6 
   75000    1.2003984   -5.9218378    34.403503  0.038226115  0.045123755            4 
   76000    1.2053546   -5.9369438    35.080321  0.038465264  0.045178301            3 
   77000    1.2436026   -5.9250458     35.79124  0.038735108  0.045251083            3 
   78000     1.237536   -5.9417879    36.360706  0.038846908  0.045326479            1 
   79000    1.2386428   -5.9031583    36.924501  0.038949895  0.045402432            2 
   80000     1.226068   -5.9515569    37.595201  0.039161667  0.045471581            3 
   81000    1.2088597   -5.8674515    37.945582  0.039038665  0.045523831            3 
   82000    1.2036313   -5.9268256     38.49696  0.039122926  0.045569931            5 
   83000    1.2486682   -5.9471383      39.0268  0.039183534  0.045604496            2 
   84000    1.2207485   -5.9429074    39.602488  0.039288182  0.045637781            2 
   85000    1.2229766   -5.9240347     39.96029  0.039176754  0.045662027            2 
   86000    1.2050789   -5.9290851    40.383413  0.039131213  0.045668211            3 
   87000    1.2339716   -5.9346473    40.763954  0.039045932  0.045672191            1 
   88000    1.2401895   -5.9281356    41.429917  0.039232876  0.045669345            2 
   89000    1.2202819   -5.8936399     41.86549  0.039199897  0.045665294            2 
   90000    1.2253306   -5.9137642    42.429804  0.039286856   0.04565099            2 
   91000    1.2204463   -5.9212703    42.707322  0.039109269  0.045631734            2 
   92000    1.2189804   -5.9545625     43.07436   0.03901663  0.045597945            4 
   93000    1.1976438   -5.9371998    43.855932   0.03929743  0.045575204            2 
   94000    1.2244271   -5.9061431    44.534394  0.039480845  0.045554533            2 
   95000    1.1906378   -5.9393595    44.873146  0.039362408  0.045534573            4 
   96000    1.2315793   -5.9527597    45.154223  0.039196374  0.045504549            2 
   97000    1.2218619   -5.9403747    45.842053  0.039383207  0.045470198            4 
   98000    1.1965835   -5.9324649    46.221851  0.039304295  0.045437906            2 
   99000    1.2261127   -5.9466536     46.89572  0.039474512  0.045415521            2 
  100000    1.2391049   -5.9581552    47.451856  0.039543213  0.045390975            4 
  101000    1.2277845   -5.9341928     47.87588  0.039501551  0.045368741            7 
  102000    1.2114944   -5.9278954    48.557858  0.039671453  0.045353418            2 
  103000    1.2151366     -5.98551    48.874977  0.039542862  0.045328911            3 
  104000    1.2176493   -5.9634759    49.274868  0.039483067  0.045302763            3 
  105000    1.2299703   -5.9651627    49.916337   0.03961614  0.045278929            2 
  106000    1.2192371   -5.9614778    50.480282  0.039685756  0.045254626            3 
  107000    1.2220244   -5.8891414     51.09946  0.039797087  0.045220937            2 
  108000    1.2435081   -5.9195492    51.512312  0.039747154  0.045197146            3 
  109000    1.1965036   -5.9486926    51.876007  0.039660555  0.045172556            3 
  110000    1.2170727   -5.9509895    52.078085  0.039453095  0.045131871            2 
  111000    1.2172947    -5.969256     52.79572  0.039636426  0.045091782            2 
  112000    1.2056746   -5.9746792     53.21109  0.039591585  0.045055192            1 
  113000    1.2015631   -5.9939604    53.687734  0.039592724  0.045014508            3 
  114000    1.2342465   -5.9286872    54.403558  0.039768683  0.044974505            3 
  115000      1.21764   -5.9696409    54.908128  0.039788499  0.044940522            3 
  116000    1.2103425   -5.9458167    55.785653    0.0400759  0.044913278            1 
  117000    1.1943798    -5.938726    56.160372  0.040000264  0.044891413            2 
  118000    1.2154292   -5.9514906     57.01379  0.040263976  0.044871803            4 
  119000    1.2071045   -5.9518561    57.430452  0.040217403  0.044858197            4 
  120000    1.2248914   -5.9703551    58.011353  0.040285662  0.044847975            3 
  121000    1.1835882   -5.9159492    58.528022  0.040308555  0.044832797            7 
  122000    1.2372075   -5.9317248    58.685419  0.040085669  0.044816394            3 
  123000    1.1838383   -5.9510882     59.11528  0.040051002  0.044795839            2 
  124000    1.2092123   -5.9421691    59.609208  0.040059951  0.044773392            1 
  125000    1.2246869    -5.915032    60.317397  0.040211598  0.044750571            2 
  126000    1.2123908   -5.9592251     60.57366  0.040061944  0.044722925            5 
  127000    1.2051104   -5.9804486    60.996076  0.040023672  0.044695859            1 
  128000    1.1854128    -5.953488     61.68687  0.040160723  0.044670008            2 
  129000    1.2152815   -5.9520794    62.205544   0.04018446  0.044647078            2 
  130000    1.1912069   -5.9385348    62.607543   0.04013304  0.044627891            4 
  131000    1.2413375   -6.0149024    62.857379   0.03998561  0.044602586            5 
  132000    1.2013299   -6.0315704    63.311541  0.039969407   0.04456929            6 
  133000    1.1803003   -5.9317798    64.012486  0.040108074  0.044538797            3 
  134000     1.192851   -5.9664853    64.559626  0.040149021  0.044507493            2 
  135000    1.1777343   -5.9445165    65.355139  0.040342678   0.04448045            1 
  136000     1.197779   -5.9508764    65.893245  0.040375763  0.044457941            5 
  137000    1.2045274   -5.9675478    66.188074  0.040260385  0.044430971            2 
  138000    1.2078944   -5.9330701    66.721667  0.040290862  0.044408139            3 
  139000    1.1970713   -5.9547415    67.029044  0.040185278  0.044381929            2 
  140000    1.1895277   -5.9814924     67.63386   0.04025825  0.044352788            1 
  141000    1.2065706     -5.92647    68.335289  0.040387286  0.044329574            3 
  142000    1.1905269   -5.9539937    68.928983  0.040451281  0.044310509            3 
  143000    1.1728931   -5.9701434    69.428427  0.040459456   0.04429117            4 
  144000     1.189878   -5.9755095    69.803779  0.040395705  0.044275018            3 
  145000    1.2001638   -5.9751322    70.540313   0.04054041  0.044255269            2 
  146000    1.1950045   -5.9378024    71.149708  0.040610564  0.044241036            2 
  147000    1.2246506   -6.0450124    71.222975  0.040375836  0.044228273            4 
  148000    1.2126807   -6.0025925    71.902576  0.040485685  0.044213842            3 
  149000    1.1919633   -6.0261093    72.160075  0.040357984  0.044194933            4 
  150000    1.1627744   -5.9972103    72.914286  0.040507937  0.044178625            4 
  151000    1.1547364   -6.0088328    73.191299  0.040392549  0.044164318            2 
  152000    1.2045766   -5.9895533    74.015496  0.040578671  0.044150392            2 
  153000    1.2042091    -5.998761    74.521867  0.040589252  0.044139815            2 
  154000    1.1968293   -5.9473045    75.487004  0.040847946  0.044127894            3 
  155000    1.1834173   -5.9315187     75.99274  0.040856311   0.04412157            3 
  156000    1.2008883   -6.0234934    76.238995  0.040725959  0.044115154            2 
  157000    1.2102658   -6.0032255    76.852496  0.040792195  0.044110097            3 
  158000    1.2046041   -6.0082617    77.277424  0.040758135  0.044106534            2 
  159000    1.2018357   -6.0068363    78.087546  0.040926387  0.044101178            3 
  160000      1.17198    -6.001386    78.454704  0.040861825  0.044091724            4 
  161000    1.1773472   -5.9584579    78.798334  0.040785887  0.044081747            4 
  162000    1.1991956   -6.0344435    79.169175  0.040724884  0.044069799            4 
  163000    1.1880479   -6.0167845    79.829765  0.040812763  0.044063081            2 
  164000    1.1898875   -5.9968102    80.489187  0.040898977  0.044056828            3 
  165000    1.1746643   -5.9758619    81.156875  0.040988321  0.044049419            5 
  166000    1.1890805   -6.0172436    81.977059  0.041153142  0.044048152            2 
  167000    1.1916689     -6.01219    82.374867  0.041105223  0.044044533            2 
  168000    1.1911643   -6.0259274    82.937233    0.0411395  0.044044266            2 
  169000     1.167036   -6.0013374    83.812003  0.041327417  0.044048018            3 
  170000    1.2080512   -5.9624342    84.222951   0.04128576  0.044050683            4 
  171000    1.1958001   -5.9935539     84.62865  0.041242032  0.044053535            2 
  172000    1.1955207   -6.0135004     84.71221  0.041042738   0.04404955            2 
  173000    1.1808219   -6.0278049     85.29153  0.041084552  0.044044371            4 
  174000     1.186401   -6.0572466     85.46669  0.040932322  0.044038006            3 
  175000    1.2108714   -6.0131662    86.356025  0.041121917  0.044030199            2 
  176000    1.1669544    -6.047162    86.481214  0.040947544   0.04402138            4 
  177000    1.1899331   -5.9827079    87.115976  0.041015055  0.044008885            4 
  178000    1.1912692    -6.005705    87.485003  0.040957398   0.04399574            3 
  179000    1.1851224   -6.0181835    87.528465   0.04074882  0.043980027            9 
  180000     1.177521   -6.0145322    87.900262  0.040694566  0.043958916            2 
  181000    1.1869214   -6.0109198    88.501001  0.040746317  0.043940121            1 
  182000     1.186759   -5.9785775     89.44267  0.040953603  0.043924931            3 
  183000    1.1894778   -6.0193135    89.150948  0.040596971   0.04390566            4 
  184000    1.1746774    -5.970995    89.696942  0.040623615  0.043886146            5 
  185000    1.1686536   -6.0349799    90.165795  0.040615223  0.043866132            1 
  186000     1.202841   -6.0316703    90.725244   0.04064751  0.043843881            2 
  187000    1.1788889   -6.0509531    91.313596  0.040692333  0.043824261            5 
  188000    1.1872456   -6.0251829    91.756735  0.040672312  0.043802747            2 
  189000    1.1808291   -5.9519479    92.374732    0.0407296   0.04378391            2 
  190000    1.1629473   -6.0739858    92.325076  0.040493454  0.043767091            4 
  191000    1.1659107   -6.0000643     93.28106  0.040698543  0.043744087            3 
  192000    1.1802766   -6.0072779    94.133028  0.040856349  0.043723622            2 
  193000    1.1792839   -5.9861769    94.507686  0.040806428  0.043706125            5 
  194000    1.1929497   -5.9892883    95.168701  0.040880026  0.043689994            2 
  195000    1.1623999    -6.031326    95.067274   0.04062704   0.04367313            2 
  196000    1.1535353   -6.0278599     95.96542  0.040801624  0.043654435            1 
  197000    1.1676417    -5.985769     96.25557  0.040717246  0.043637909            2 
  198000    1.1648969   -5.9929302     96.82579  0.040751595  0.043620339            2 
  199000    1.1707902   -6.0525897    97.035603  0.040634674  0.043596691            2 
  200000    1.1574085   -6.0357536    97.724694  0.040718622  0.043574912            4 
  201000    1.1691579   -6.0022888    97.705088  0.040507914  0.043551789            3 
  202000    1.1983223   -6.0713817    98.282998  0.040545791   0.04352985            2 
  203000    1.1763047   -6.0359809    98.579224  0.040467662   0.04350429            5 
  204000    1.1899842    -6.030881    99.076537  0.040472442   0.04347835            2 
  205000    1.1603676   -6.0570123    99.600501  0.040488008  0.043451339            3 
  206000    1.1810371   -6.0425517    99.714207  0.040337462   0.04342567            2 
  207000    1.1728718   -6.0273035    100.61763  0.040506293  0.043399092            4 
  208000    1.1646962   -5.9610471    101.40242  0.040625968  0.043372535            2 
  209000    1.1712627   -6.0273912    101.02559  0.040281337  0.043343462            2 
  210000    1.1794875   -6.0928631    101.06823  0.040106439  0.043312885            4 
  211000    1.1894467   -6.0220277    102.27719  0.040393835  0.043282433            2 
  212000    1.1690455   -6.0438424    102.27739  0.040203376  0.043253305            3 
  213000    1.1562488   -6.0174963    102.76023  0.040203532  0.043221342            2 
  214000    1.1837113   -6.0377298     102.7203  0.040000119  0.043183898            2 
  215000    1.1761147   -6.0496526    103.45489  0.040098794  0.043146679            5 
  216000    1.1665617    -6.043279    103.99155  0.040120198  0.043109841            2 
  217000    1.1609952   -6.0318201    104.33195  0.040066034  0.043073917            2 
  218000    1.1683858    -6.070338    104.11479   0.03979923  0.043035424            3 
  219000    1.1838002    -6.063699    104.64733   0.03982014  0.042997429            2 
  220000    1.1671013   -6.0267148    105.12541   0.03982023  0.042960196            4 
  221000    1.1801245   -6.0491062    105.13152  0.039642354  0.042920651            2 
  222000    1.2251681   -6.0509019    106.03283  0.039802114  0.042882403            2 
  223000     1.159977   -6.0876502    106.61843  0.039842464  0.042846977            2 
  224000    1.1797359   -5.9965118    107.48118  0.039985556  0.042811831            3 
  225000    1.1873237   -6.0634216    107.06173  0.039652491  0.042776303            3 
  226000    1.1338745   -6.0476177    108.28917  0.039929634  0.042736819            4 
  227000    1.1662402   -6.0668756    108.27837   0.03974977  0.042700439            3 
  228000    1.1449008   -6.0953054    108.56402  0.039679833  0.042665181            7 
  229000    1.1330303   -6.1089338     108.9267  0.039638536  0.042625907            3 
  230000    1.1560053   -6.0545887    109.29218  0.039598617  0.042587113            3 
  231000    1.1574049   -6.1047998    109.73999  0.039588742  0.042547589            5 
  232000     1.143408   -6.0653536    110.44104  0.039669915  0.042506615            2 
  233000    1.1742848   -6.0778943    110.29039  0.039445776  0.042469265            2 
  234000    1.1785888   -6.0778505    110.52802  0.039361832  0.042427207            2 
  235000    1.1667902   -6.0428062    111.54237  0.039554033   0.04238689            2 
  236000    1.1344699     -6.06835    111.56984  0.039396128  0.042346581            4 
  237000    1.1501087   -6.0496381    111.93687  0.039358954  0.042308945            5 
  238000    1.1703658   -6.1342047    112.23488  0.039297929  0.042270363            2 
  239000    1.1602483   -6.0844045     112.7464  0.039311855  0.042230948            5 
  240000    1.1524708   -6.1062224    113.04724  0.039252513  0.042188964            3 
  241000    1.1706825   -6.0762937    113.80595   0.03935199  0.042149807            4 
  242000    1.1428881   -6.0819055     114.0991  0.039290322  0.042110956            2 
  243000    1.1498902   -6.0799699    114.68114  0.039328239  0.042071902            3 
  244000    1.1540931   -6.0801596     115.0925  0.039307547  0.042034036            2 
  245000    1.1319293   -6.0672329    115.21198  0.039187747  0.041997824            6 
  246000    1.1621562   -6.0530165    116.15795    0.0393489  0.041962862            3 
  247000    1.1654253   -6.0865935    116.73739  0.039385083  0.041927432            2 
  248000     1.142955   -6.1198283    116.82573  0.039255958  0.041891192            1 
  249000    1.1788485    -6.133423     117.2374  0.039236077   0.04185675            4 
  250000     1.168739   -6.0905134    118.27029  0.039423431  0.041823457            3 
  251000    1.1450376    -6.077138    118.42834  0.039318837  0.041791449            3 
  252000    1.1474102   -6.0679862    119.12421  0.039392927  0.041760355            2 
  253000    1.1553355     -6.01402    120.05199  0.039542815  0.041729751            4 
  254000    1.1439635   -6.0698704    119.71283  0.039275863  0.041699638            2 
  255000     1.170566   -6.1072889    119.81329   0.03915467  0.041667734            3 
  256000    1.1346591   -6.0816482     120.0502  0.039078841  0.041633098            2 
  257000    1.1758439   -6.0717061    120.77574  0.039162042  0.041601209            2 
  258000    1.1613142   -6.0952616    121.53686   0.03925609  0.041570118            2 
  259000    1.1473676   -6.0676646    122.17184   0.03930883  0.041537505            2 
  260000    1.1591135   -6.0523397    122.92116  0.039397809  0.041509146            3 
  261000    1.1505225   -6.0872909    122.99248  0.039269629  0.041482133            1 
  262000    1.1562059   -6.1310724    123.79353  0.039374532  0.041454144            6 
  263000     1.149258    -6.082551    124.18679  0.039349426  0.041429206            3 
  264000    1.1535139   -6.1014953    124.51818  0.039304981  0.041405208            2 
  265000    1.1164476   -6.1126521    125.19084  0.039368189  0.041381738            4 
  266000    1.1792132   -6.0896951    126.13208  0.039515063  0.041361053            4 
  267000    1.1746749   -6.0973664    126.82203  0.039582407  0.041340446            4 
  268000    1.1417509   -6.1087895    126.49677  0.039333572   0.04131836            1 
  269000    1.1273046   -6.1186881    126.78728  0.039277349  0.041295646            3 
  270000    1.1315068   -6.0825625    127.75435  0.039430355  0.041272945            4 
  271000    1.1481376   -6.1154031    127.82806  0.039307521  0.041249683            2 
  272000    1.1370279   -6.1298038      127.998  0.039215073  0.041226548            3 
  273000    1.1356204   -6.1314464    128.41172  0.039197716   0.04120202            2 
  274000    1.1356338   -6.0670222    129.07255   0.03925564  0.041176976            1 
  275000    1.1405184   -6.0963405    129.24092  0.039163914  0.041152578            2 
  276000    1.1314997   -6.0588455     129.7997  0.039190729   0.04112642            7 
  277000    1.1448684   -6.1283012     129.9962  0.039108364  0.041100247            1 
  278000     1.144736   -6.0701779    131.10679  0.039300597  0.041074425            6 
  279000    1.1295776   -6.1237199     130.9003  0.039098059  0.041048217            6 
  280000    1.1460633   -6.1713071    130.48984  0.038836263  0.041019979            6 
  281000    1.1540867   -6.0722972    131.92984    0.0391251  0.040992132            4 
  282000    1.1529448   -6.1645136    131.08895  0.038737869   0.04096313            2 
  283000    1.1396578    -6.097981    132.00185  0.038869803  0.040932911            2 
  284000    1.1383571   -6.1190539    132.39684  0.038848839  0.040903554            3 
  285000    1.1270744   -6.1528215    132.23209  0.038664355  0.040873555            4 
  286000    1.1256123   -6.0698377    133.53258  0.038908094  0.040844415            1 
  287000    1.1512006   -6.1170053      133.899  0.038878918  0.040817673            2 
  288000    1.1521746    -6.099528     134.2185  0.038836371   0.04079046            6 
  289000    1.1290413   -6.1418321    134.26497  0.038715389  0.040762969            2 
  290000    1.1151916   -6.0852966    135.42979  0.038916606  0.040735051            2 
  291000    1.1504234   -6.0902129    135.43121  0.038783279  0.040706928            4 
  292000    1.1328099   -6.1364738    135.46805  0.038660973  0.040678038            4 
  293000    1.1565149   -6.1143366    136.22717  0.038744928  0.040649557            2 
  294000    1.1334082   -6.1449459    136.42922  0.038670413  0.040622869            5 
  295000    1.1417914   -6.0929529     137.4644  0.038831753    0.0405955            3 
  296000     1.110939   -6.0970184    137.47139   0.03870253  0.040568936            3 
  297000    1.1277299   -6.1025249    137.34603  0.038537044  0.040541525            3 
  298000    1.1341185   -6.1244622    138.39279  0.038700444  0.040512433            1 
  299000    1.1508362   -6.1127571    138.68671  0.038652928   0.04048495            7 
  300000    1.1331816   -6.1185804    138.88459  0.038579054  0.040456727            2 
  301000    1.1372934   -6.1231277    139.52598  0.038628455  0.040428769            2 
  302000    1.1498401   -6.1289504    140.07029  0.038650743  0.040402069            2 
  303000    1.1376154   -6.1657811    139.33355  0.038320559  0.040373411            4 
  304000     1.128506   -6.1252602    140.21876   0.03843716  0.040344995            2 
  305000    1.1306298    -6.195711     140.2759  0.038326747  0.040315975            4 
  306000    1.1336129   -6.1487548    140.71545    0.0383212  0.040285232            3 
  307000    1.1522549   -6.1416097    141.35157  0.038369047  0.040255327            3 
  308000    1.1438154   -6.1781607    141.68213  0.038333908  0.040224367            2 
  309000    1.1480505   -6.1599024    141.70111  0.038214969  0.040194284            4 
  310000    1.1351726   -6.1277238    142.38687  0.038276041  0.040164128            1 
  311000    1.1228053   -6.1570799    142.43492  0.038165841  0.040133924            2 
  312000    1.1125183   -6.1292417    142.96978  0.038186372  0.040102509            3 
  313000    1.1272141   -6.1555162    142.66714  0.037983795  0.040069804            4 
  314000    1.1355912   -6.1628529    143.14392  0.037989362  0.040037987            3 
  315000     1.106883   -6.1346205    144.33909  0.038184946  0.040005784            2 
  316000    1.1278235   -6.1033331    143.88061  0.037943199  0.039973687            3 
  317000     1.129902    -6.128171    144.67224  0.038031609  0.039942062            4 
  318000    1.1551687    -6.172285    144.86881  0.037963524  0.039909745            2 
  319000    1.1518159   -6.1098865    145.95721  0.038128843  0.039878258            3 
  320000    1.1293243    -6.135485    145.93751   0.03800456  0.039846776            1 
  321000    1.1229239   -6.1253777    146.42232  0.038012024  0.039814706            2 
  322000    1.1110108   -6.1758683    146.33362  0.037871018  0.039783339            4 
  323000    1.1301605   -6.1267686    147.38804  0.038025811  0.039752389            3 
  324000    1.1359614   -6.2011415    147.24356  0.037871285  0.039720189            4 
  325000    1.1175163   -6.1608208     147.7678   0.03788918  0.039689037            3 
  326000    1.1221005   -6.1709721    147.50741  0.037706394  0.039657772            4 
  327000     1.104042    -6.163026    149.02397  0.037977566  0.039627868            2 
  328000    1.1107453   -6.1732813     149.3075  0.037933815  0.039598141            5 
  329000    1.1343236   -6.1878331    149.48227  0.037862784  0.039570425            3 
  330000    1.1140951   -6.0967837    150.92698  0.038112874  0.039542002            3 
  331000     1.144687   -6.1755074    150.41237  0.037868169  0.039513459            2 
  332000    1.1235002   -6.1803459    150.17982  0.037695739  0.039484295            5 
  333000    1.1103584    -6.163116    150.73728  0.037722043  0.039454313            3 
  334000    1.1397728   -6.1430536    151.08419  0.037695657  0.039424254            2 
  335000    1.0974819    -6.148386     151.8443  0.037772213  0.039395551            3 
  336000     1.085874   -6.1592628    151.93933  0.037683366  0.039366854            2 
  337000    1.1115554   -6.1608037    151.60009  0.037487658  0.039336429            2 
  338000    1.0931255   -6.1537527    152.14821  0.037511887  0.039305843            2 
  339000    1.1175638   -6.1532625     152.1278  0.037396214   0.03927527            5 
  340000    1.1165027   -6.1738983    153.17493  0.037542876  0.039244162            4 
  341000    1.1283619   -6.1830972    153.44369  0.037498458  0.039213622            3 
  342000    1.1089104   -6.1395007    153.97117  0.037517341  0.039182975            2 
  343000    1.1236672   -6.1736872    154.38453   0.03750839  0.039152391            3 
  344000    1.1191918   -6.1623119    154.69901  0.037475535  0.039122907            7 
  345000    1.0768154   -6.1567523    155.90006   0.03765702  0.039091732            3 
  346000    1.1329936   -6.1691968    155.25259  0.037392243  0.039062101            3 
  347000    1.1201342   -6.1834121    155.54896  0.037355658  0.039032404            4 
  348000    1.1182469   -6.1714022    156.18371  0.037400313  0.039003322            2 
  349000    1.0821618   -6.1871704    156.55811  0.037382548  0.038974567            2 
  350000    1.1048861   -6.1719606     156.3594   0.03722843  0.038944371            4 
  351000    1.1121358   -6.1779247    157.01303  0.037277547  0.038914348            4 
  352000    1.1088403    -6.172239    157.24321   0.03722614  0.038884992            3 
  353000    1.1081956   -6.1963089    157.92881  0.037282534  0.038855058            2 
  354000    1.1122113   -6.2063532    157.79631  0.037146024  0.038824656            3 
  355000    1.1220779   -6.1749713    157.91323  0.037068833  0.038794931            5 
  356000    1.1083319   -6.1670278    159.29946    0.0372892  0.038764878            3 
  357000    1.1401432   -6.1648175    158.99992  0.037114828  0.038734326            5 
  358000    1.1209607   -6.2024211    158.93332  0.036995651  0.038702768            2 
  359000    1.0907855   -6.1915701    159.62183  0.037052421  0.038670938            3 
  360000    1.1119946   -6.1913332    159.23019   0.03685884  0.038638557            3 
  361000    1.0905065   -6.2162767    160.10535  0.036958761  0.038607174            2 
  362000    1.1071556   -6.1843477    160.86679  0.037031949  0.038576616            3 
  363000    1.1136611   -6.1693083    161.04083  0.036969888  0.038546754            6 
  364000    1.1311328   -6.2328644    161.41752   0.03695456  0.038515802            3 
  365000    1.1208283   -6.2083919    161.48845  0.036869509  0.038485888            3 
  366000    1.1339273   -6.1814001    162.55684   0.03701203  0.038457426            3 
  367000    1.1094259   -6.2093309    162.86984  0.036982253  0.038429405            7 
  368000    1.1043666   -6.1836235      162.886  0.036885416  0.038401239            4 
  369000    1.0943161   -6.1635769    163.24959  0.036867569  0.038372826            6 
  370000    1.1299714   -6.1704725    164.39317   0.03702549  0.038344931            5 
  371000    1.1008848   -6.1620581    164.75751  0.037007528  0.038316655            4 
  372000    1.1072326    -6.188262    164.78771   0.03691481  0.038288919            3 
  373000      1.10589   -6.1776611    165.42274  0.036957717  0.038261358            6 
  374000    1.0898563   -6.1783376    165.55468  0.036888297  0.038233605            2 
  375000    1.0712207   -6.1927186    165.70876  0.036824169  0.038205053            2 
  376000    1.0918127   -6.1905742    165.60207  0.036702587  0.038176375            2 
  377000    1.1366225   -6.2139219    165.99721  0.036692575  0.038147136            6 
  378000    1.0953446   -6.1891342    166.53004  0.036712973  0.038119216            3 
  379000    1.1019654   -6.2039411    166.78764  0.036672743  0.038091312            5 
  380000    1.1097571   -6.2130627    167.82853  0.036804502  0.038063958            6 
  381000    1.0824813   -6.1932317    167.77343   0.03669585   0.03803634            2 
  382000    1.0935521   -6.1874612    168.15806  0.036683695   0.03800881            3 
  383000    1.0995658   -6.1934127     168.7625   0.03671943  0.037982263            4 
  384000    1.1060982   -6.1561279    169.64874  0.036816133  0.037956013            5 
  385000    1.0883619   -6.1862715    169.46613   0.03668098  0.037928752            3 
  386000    1.0747268   -6.2171791    169.41978  0.036575945  0.037901141            5 
  387000    1.0971188   -6.1825647     169.7724  0.036557363  0.037873034            4 
  388000    1.1017759   -6.1937684    170.22615  0.036560598  0.037844264            3 
  389000    1.0996459   -6.2188838    169.74155    0.0363628  0.037815348            5 
  390000     1.095711   -6.2192522    170.31685   0.03639249  0.037786366            4 
  391000    1.0985481   -6.2123012    171.52453  0.036556805  0.037758165            3 
  392000    1.1066394   -6.1787109    172.69941  0.036713309  0.037732433            3 
  393000    1.0881754   -6.2105889    172.10147  0.036493102  0.037707124            4 
  394000    1.1000657   -6.1808452    173.28176  0.036650118  0.037681407            5 
  395000    1.0727157   -6.2009345    173.13011  0.036525341  0.037655701            3 
  396000    1.0973572   -6.2494407    172.87376  0.036379157  0.037628805            4 
  397000    1.0887841   -6.2100071    173.51809  0.036422772  0.037602446            2 
  398000    1.0928143   -6.2609584    173.33421  0.036292757  0.037576002            3 
  399000    1.0846538   -6.1964082    174.27169  0.036397597  0.037549042            2 
  400000    1.1068374   -6.2251856    174.42661  0.036338877  0.037522177            1 
  401000     1.061641   -6.1704316    175.73035  0.036519192  0.037496703            4 
  402000    1.1107095   -6.1844495    175.21285  0.036321071  0.037471104            3 
  403000     1.066618   -6.2099352    175.91964  0.036377097   0.03744567            3 
  404000     1.093304   -6.2124569     175.8078  0.036263984  0.037419626            3 
  405000    1.1009998    -6.234363    175.76316  0.036165259  0.037392394            3 
  406000    1.0949981   -6.2397072    175.72149  0.036067629   0.03736549            3 
  407000     1.068503   -6.2071739    177.24857  0.036291681  0.037339213            6 
  408000    1.0784186   -6.2590505    176.36839  0.036022955  0.037313572            4 
  409000    1.0858401   -6.2304075    177.24489  0.036113465  0.037288007            3 
  410000    1.0771457   -6.2389721    177.09211  0.035994332  0.037261773            2 
  411000    1.1048341   -6.2135719    179.17336  0.036328743   0.03723562            2 
  412000    1.0658361    -6.264698    177.94835  0.035992789  0.037210227            3 
  413000    1.0876984   -6.2359031    179.11496  0.036141033  0.037184593            5 
  414000    1.0593978   -6.2427948    178.87264  0.036004959  0.037158492            9 
  415000    1.0635929   -6.2047664    179.88585  0.036121656  0.037132275            5 
  416000    1.0905128   -6.2090177    179.97713  0.036053112  0.037107184            2 
  417000    1.0863875   -6.2922915    179.31136  0.035833605  0.037081349            3 
  418000    1.0837488   -6.2452684    180.83628   0.03605189  0.037055213            5 
  419000    1.0919727    -6.237842    180.74384  0.035947462  0.037029707            2 
  420000    1.1110088   -6.2314299     180.9035  0.035893551  0.037004713            5 
  421000    1.0865482   -6.2050579    181.44095  0.035914678   0.03697889            3 
  422000    1.0808401   -6.2291068    181.99871  0.035939714  0.036952965            6 
  423000    1.0562144   -6.2545796    181.70133  0.035796165  0.036927761            3 
  424000    1.0860782   -6.2354213    181.93817  0.035758288  0.036901958            2 
  425000    1.0905008   -6.2574642     181.9757   0.03568151  0.036876083            3 
  426000    1.0873489   -6.2122102    183.25405  0.035847819  0.036850552            3 
  427000    1.0976588   -6.2711916    183.20785   0.03575485  0.036825662            3 
  428000    1.0771939   -6.2721461    183.62621  0.035752766  0.036799272            3 
  429000    1.0688822   -6.2677042    183.80299  0.035703766  0.036773279            3 
  430000    1.0937522   -6.2460081     184.8332  0.035820388  0.036748327            4 
  431000    1.0990947   -6.2447017    184.95792  0.035761393  0.036723357            5 
  432000    1.0736578   -6.2630397    185.57387  0.035797428  0.036698073            3 
  433000    1.1098698   -6.2894737    185.53092   0.03570649  0.036674061            4 
  434000    1.0879721   -6.2346081    186.11129  0.035735655  0.036649525            3 
  435000    1.1012857   -6.2641141    185.87967  0.035609131  0.036624673            4 
  436000    1.0853856   -6.2721471    186.33967  0.035615381  0.036599283            5 
  437000    1.0790808    -6.213702     187.6052   0.03577521  0.036574188            5 
  438000    1.0848754   -6.2566977    187.32664  0.035640532  0.036549371            3 
  439000    1.0755059   -6.2677652    187.50256  0.035592741  0.036524601            5 
  440000    1.0748412   -6.2679657    188.09845  0.035624706  0.036499969            2 
  441000     1.091351   -6.2819215    188.02971  0.035530935  0.036475803            2 
  442000    1.0564428   -6.2451828    188.64374  0.035566317  0.036451982            3 
  443000    1.0798839   -6.2757549    188.96301   0.03554609  0.036428474            3 
  444000    1.0772816    -6.275303    188.85535  0.035445824  0.036404284            5 
  445000    1.1115356   -6.2457693    189.62826   0.03551091  0.036380573            3 
  446000     1.099957   -6.2592022     189.2737  0.035365041   0.03635648            3 
  447000    1.0966534   -6.2944779     189.3847  0.035306617  0.036330917            3 
  448000    1.0820904   -6.2580455    190.23392  0.035385773  0.036305293            2 
  449000    1.0578932   -6.2509117    191.74968  0.035588286  0.036280748            4 
  450000     1.078205    -6.264861    190.59204  0.035294822  0.036256368            2 
  451000     1.073832   -6.2421744    191.73437  0.035427636  0.036231983            2 
  452000    1.0923748   -6.2649075    192.12783  0.035421798  0.036207774            4 
  453000    1.0889203   -6.2359173    191.70013  0.035264924  0.036183338            2 
  454000    1.0772362   -6.3041015    191.55574  0.035160746  0.036158329            4 
  455000    1.0763413   -6.2499116    192.64777  0.035283474  0.036132242            4 
  456000    1.0670263   -6.2992349    191.34812  0.034968588  0.036106378            3 
  457000    1.0446061   -6.3333797    191.70626  0.034957379  0.036079172            3 
  458000    1.0920031   -6.2649918    192.97269   0.03511148  0.036052075            5 
  459000    1.0816508   -6.2731009    192.32049  0.034916573  0.036026005            9 
  460000    1.0649586   -6.3043986    193.26324  0.035011456  0.035999163            2 
  461000    1.0533607   -6.2853432    193.70192  0.035014809  0.035972982            7 
  462000    1.0793933    -6.265279    194.11587  0.035013686  0.035948511            2 
  463000    1.0739315    -6.284921    194.68068   0.03503972  0.035922874            6 
  464000    1.0704269   -6.2777032    194.19493  0.034876963  0.035898581            4 
  465000    1.0650162   -6.2828897    195.59844  0.035053483  0.035874299            5 
  466000    1.0773527   -6.2292159    196.42467  0.035126014   0.03585015            3 
  467000    1.0393309    -6.248184    196.28525  0.035025918  0.035826182            6 
  468000    1.0522235   -6.2746156    196.81656  0.035045683  0.035802247            3 
  469000    1.0722864    -6.289074    196.62775  0.034937411  0.035777847            6 
  470000    1.0833007     -6.30751    196.84535  0.034901657  0.035753009            4 
  471000    1.0581332   -6.2695426    196.87638  0.034833046  0.035728242            3 
  472000    1.0522947    -6.315178    196.59924  0.034710318   0.03570382            3 
  473000    1.0776807   -6.2846779    197.80748  0.034849802  0.035679087            3 
  474000    1.0473463   -6.2758496    198.54843  0.034906546  0.035654079            2 
  475000     1.069939   -6.2886539     198.3752  0.034802667  0.035631007            3 
  476000    1.0654014   -6.2832089    198.84917   0.03481253  0.035607554            3 
  477000    1.0476872   -6.2688201    199.34374   0.03482595  0.035583571            4 
  478000    1.0634928   -6.3277503    199.33978  0.034752402  0.035559153            2 
  479000    1.0611164   -6.2512335    199.97541  0.034790434  0.035534519            5 
  480000    1.0523789    -6.277437    199.92568  0.034709319  0.035510218            4 
  481000    1.0519509   -6.2860168    199.77124  0.034610401  0.035485293            4 
  482000    1.0560814   -6.2782773    200.86932  0.034728444  0.035461315            4 
  483000    1.0592717   -6.3238173    199.76568  0.034466128  0.035436013            2 
  484000    1.0756127   -6.3155791    200.26422  0.034480754  0.035410363            5 
  485000    1.0834714   -6.3099797    200.93383  0.034524714  0.035384685            6 
  486000    1.0726456   -6.3585969    200.51368  0.034381633  0.035358979            4 
  487000    1.0656813   -6.2923063    201.68769  0.034511925  0.035333109            3 
  488000    1.0570879   -6.2599896    202.19553  0.034527926  0.035307186            3 
  489000    1.0697625   -6.3074559    202.06929  0.034435802  0.035282039            3 
  490000     1.069738    -6.271819     203.0332  0.034529456  0.035256576            4 
  491000    1.0939828   -6.3247786    202.59659  0.034385029  0.035231971            2 
  492000    1.0624055   -6.3118269    203.24601  0.034425137  0.035206721            2 
  493000    1.0776137   -6.2601523     204.1632  0.034510345  0.035182326            4 
  494000    1.0929579   -6.3434811    203.33082   0.03430007  0.035157363            6 
  495000    1.0667504   -6.2955465    204.44174  0.034417802  0.035132329            3 
  496000    1.0682243   -6.3018006    204.28775  0.034322538   0.03510723            2 
  497000    1.0348853   -6.3001353    204.56881  0.034300605   0.03508262            7 
  498000     1.045529   -6.2954941     204.5753  0.034232814  0.035057645            6 
  499000    1.0550408   -6.3031823    205.18772  0.034266487  0.035032872            5 
  500000    1.0561486   -6.3016542    205.40017  0.034233362   0.03500841            3 
  501000    1.0533224   -6.3217769    205.87507  0.034244024  0.034983981            3 
  502000     1.046332   -6.3469626    206.33642  0.034252393  0.034959401            3 
  503000    1.0622282   -6.3011657    206.42842   0.03419954  0.034934639            4 
  504000    1.0456013   -6.3351722    206.37488  0.034122831  0.034909652            4 
  505000    1.0555971   -6.2955474    206.39846  0.034059152  0.034884754           11 
  506000     1.058554   -6.3135392    207.41197  0.034158757  0.034859823            3 
  507000    1.0367834   -6.2972168    207.62718  0.034126756  0.034835332            5 
  508000    1.0704802   -6.3211768    207.82557  0.034092121  0.034810869            3 
  509000    1.0516466    -6.316546    208.16342  0.034080454  0.034786107            5 
  510000    1.0482646   -6.3774652    208.06201  0.033997061  0.034761563            3 
  511000    1.0589302   -6.3165035    208.27087  0.033964591  0.034736997            2 
  512000    1.0694656   -6.3636298    208.55576  0.033944622  0.034711465            3 
  513000    1.0290556   -6.3152252     208.8208  0.033921507  0.034686897            5 
  514000    1.0532938   -6.3543467    208.85256  0.033860662  0.034662012            4 
  515000    1.0382213   -6.3090407    210.07962  0.033993466  0.034636893            4 
  516000    1.0466426   -6.3273614    209.77155  0.033877834  0.034611868            3 
  517000    1.0702346   -6.3424039    209.06754   0.03369883  0.034587163            3 
  518000    1.0371498   -6.3072595    210.27237  0.033827601  0.034562358            6 
  519000    1.0419757   -6.3846196    209.65764  0.033663718  0.034536624            3 
  520000    1.0379658   -6.3599561    210.25915  0.033695376   0.03451045            3 
  521000    1.0464907   -6.3866421    210.21507  0.033623652  0.034485254            5 
  522000    1.0517485   -6.3272614    210.90639  0.033669602  0.034459469            4 
  523000    1.0465428   -6.3881105    210.56941  0.033551531  0.034434351            5 
  524000    1.0606395   -6.3273692    211.59787  0.033651061  0.034409315            5 
  525000    1.0490699   -6.3030821    212.26051  0.033692144   0.03438453            6 
  526000    1.0375582   -6.3048184    212.88733  0.033727398  0.034359894            3 
  527000    1.0448592   -6.3383022    212.49514  0.033601382  0.034335333            1 
  528000    1.0358675   -6.3853812    212.46808  0.033533472  0.034310849           11 
  529000    1.0560684   -6.3256819    212.69474  0.033505788  0.034285915            3 
  530000    1.0405685    -6.367092    213.60947  0.033586395  0.034261306            4 
  531000    1.0220189   -6.3386615    214.42165  0.033650604  0.034236844            3 
  532000    1.0774324   -6.3278927     214.4209  0.033587233  0.034212443            2 
  533000    1.0472044   -6.3801902     214.2446  0.033496654  0.034187828            3 
  534000    1.0661489   -6.3250122    214.47424  0.033469762  0.034162653            4 
  535000     1.040966   -6.3653768    213.01979  0.033180652  0.034136994            3 
  536000    1.0595516   -6.3326384    214.33393  0.033323062  0.034111327            3 
  537000    1.0647872   -6.3228548     215.1309  0.033384683  0.034086286            5 
  538000    1.0394889    -6.322408    215.23657  0.033338998  0.034061461           10 
  539000    1.0371511   -6.3461623    215.57442  0.033329378  0.034035941            2 
  540000    1.0523211   -6.3348369    215.74247  0.033293591  0.034010645            6 
  541000    1.0193806   -6.3868664    215.57532  0.033206303  0.033985728            2 
  542000    1.0560661   -6.3194951    216.44101  0.033278138   0.03396025            4 
  543000     1.058409   -6.3238753    216.60539   0.03324208  0.033935047            4 
  544000     1.028655   -6.3815393    216.61651  0.033182677  0.033909738            4 
  545000    1.0410851   -6.3692325    216.48258  0.033101313  0.033884142            4 
  546000       1.0515   -6.3290874    217.65437  0.033219532  0.033859557            5 
  547000    1.0262726     -6.32037    218.13124   0.03323145  0.033835078            3 
  548000    1.0502326   -6.3378913    218.57883  0.033238873  0.033811634            5 
  549000    1.0304458   -6.3651932    218.22101  0.033124015  0.033787489            5 
  550000    1.0319278   -6.3449462    218.59909  0.033121075  0.033763372            7 
  551000    1.0497235   -6.3381213    218.67497  0.033072439  0.033739732            4 
  552000    1.0580606   -6.3736494    218.61872  0.033004034  0.033715021            4 
  553000    1.0376139   -6.3899937     218.9884   0.03300006  0.033690046            3 
  554000    1.0376169   -6.3723389    218.98569  0.032940086  0.033665042            4 
  555000    1.0057808   -6.3830408    218.99513  0.032882151   0.03363978            5 
  556000    1.0281278   -6.3823094     219.3661  0.032878612  0.033614197            5 
  557000    1.0499882   -6.3607798    220.02794  0.032918603  0.033589127            3 
  558000     1.051075   -6.4017372    219.29367  0.032749951  0.033563944            2 
  559000    1.0353741   -6.3742884     220.0293  0.032801029  0.033538581            7 
  560000    1.0243694   -6.3864131    220.05862  0.032746819  0.033513237            2 
  561000     1.015741   -6.3954455    221.07492  0.032839412  0.033488359            4 
  562000    1.0257975   -6.3768549    220.88078  0.032752192  0.033463444            5 
  563000    1.0483751   -6.3900961    221.49592  0.032785068  0.033438102            7 
  564000    1.0277684   -6.3616494     221.8238  0.032775383  0.033413421            5 
  565000    1.0158112   -6.4196689    221.87345  0.032724698  0.033389067            3 
  566000    1.0008322   -6.3696305    223.01077   0.03283433  0.033364694            4 
  567000    1.0027462   -6.4090049    222.47815  0.032698142  0.033340595            8 
  568000    1.0499155   -6.3782718    223.63946  0.032810953  0.033316823            3 
  569000     1.020239   -6.4155549     223.5305  0.032737331  0.033293268            4 
  570000    1.0371457   -6.4092611    224.40098   0.03280716  0.033269756            3 
  571000    1.0155633   -6.4118765    223.28373  0.032586651  0.033246358            5 
  572000    1.0360434   -6.4067908    224.80157  0.032750812  0.033222511            4 
  573000    1.0423739   -6.4451607    224.19651  0.032605659  0.033199917            9 
  574000    1.0224563   -6.3969495    224.94834  0.032658005  0.033176894            7 
  575000    1.0084386   -6.4110281    225.45133  0.032674105   0.03315436           10 
  576000    1.0235109   -6.4586742    224.89763  0.032537273  0.033131335            2 
  577000    1.0121457   -6.4068689    226.21741  0.032671492  0.033108433            2 
  578000    1.0219725   -6.4183112    225.28012  0.032479833  0.033086291            2 
  579000    1.0035897     -6.38064    227.06875  0.032681167  0.033064403            4 
  580000    1.0377951   -6.4125623    226.77653  0.032582835  0.033042429            8 
  581000    1.0301596   -6.3666391    227.79522  0.032672866  0.033020638            4 
  582000    1.0284047   -6.4187326    227.07736  0.032513941  0.032998574            4 
  583000    1.0321969   -6.3977952    228.49525  0.032660842  0.032976359           10 
  584000    1.0133316   -6.4680831    228.19441  0.032561988  0.032954177            3 
  585000    1.0097976   -6.3932151    228.30269  0.032521751   0.03293253            4 
  586000    1.0179269   -6.4111281    228.79665  0.032536497  0.032910767            5 
  587000    1.0284047   -6.3694797    229.34696  0.032559194  0.032889363            5 
  588000    1.0071657   -6.4221788     229.7253  0.032557441  0.032867851            4 
  589000    1.0034006   -6.4168415    230.03278  0.032545668  0.032846275           10 
  590000    1.0213219   -6.3961553     230.2217  0.032517189  0.032824543            3 
  591000    1.0200922   -6.4005174    230.43378  0.032492073  0.032803038           11 
  592000   0.98917455   -6.4714499    229.56775  0.032315281  0.032781362            4 
  593000    1.0096099   -6.4421847    230.16456  0.032344654  0.032759126            3 
  594000    1.0197075   -6.4216148    231.02867  0.032411429  0.032737109            4 
  595000    1.0172204   -6.3909625    231.28783  0.032393253  0.032715006            2 
  596000    1.0149833   -6.3969196     231.1765  0.032323337  0.032692877            4 
  597000    1.0039241   -6.4383197     231.1518  0.032265746  0.032671286            5 
  598000    1.0175118   -6.4243802    231.50268  0.032260686  0.032649336            2 
  599000   0.98734711   -6.3969155    232.15349   0.03229737  0.032627274            6 
  600000    1.0005086    -6.408172    231.95475  0.032215937  0.032605564            3 
  601000    1.0191504   -6.4615514     231.8207  0.032143746  0.032582897            5 
  602000    1.0267522    -6.417829    231.85902  0.032095657  0.032559947            5 
  603000     0.993785   -6.3979375    233.17854  0.032224784  0.032537379            2 
  604000    1.0279178   -6.3892864    233.48211  0.032213316  0.032514787            2 
  605000    1.0029978   -6.4539112    233.07888   0.03210453  0.032492215            2 
  606000    1.0040238   -6.4323752    233.21452  0.032070204  0.032469944            5 
  607000    1.0241604   -6.4269524    233.34795  0.032035688  0.032447867            4 
  608000    1.0023637   -6.4430176    233.90799  0.032059758  0.032425839            6 
  609000    1.0102044    -6.449654    233.47126  0.031947354  0.032403868            6 
  610000    1.0056054   -6.4694148     234.0151  0.031969276  0.032381067            8 
  611000   0.99856945   -6.4407548    234.80904  0.032025238  0.032358528            7 
  612000    1.0098893    -6.407619    234.47421  0.031927316   0.03233691            3 
  613000    1.0077813   -6.3973995    236.14113  0.032101839  0.032315413            4 
  614000    1.0198127   -6.4257678    236.10185  0.032044225  0.032293652            3 
  615000    1.0022656   -6.4759209    235.74509  0.031943779  0.032272281            6 
  616000     1.002965   -6.4284178    236.08201  0.031937501  0.032250575            7 
  617000    1.0199683   -6.4431614    236.04221  0.031880364  0.032228855            2 
  618000    1.0080051   -6.4528067    236.43897  0.031882277  0.032207546            3 
  619000    1.0017727   -6.3914257    236.67901  0.031863087  0.032186084            4 
  620000    1.0031209   -6.4508975    236.85808  0.031835764  0.032164609            3 
  621000    1.0168201   -6.4401416    237.62588  0.031887531   0.03214307            5 
  622000     1.001488   -6.4483648    237.69448  0.031845455  0.032121496            4 
  623000    1.0125296   -6.4368653    237.61409  0.031783586  0.032099274            6 
  624000    1.0050446   -6.4265761    237.18074  0.031674778  0.032077467            3 
  625000     1.013046   -6.4178502    238.24444  0.031765926  0.032054982            2 
  626000    1.0040038   -6.4448658     237.6075  0.031630391  0.032032825            5 
  627000    1.0300152   -6.4387592    237.61777  0.031581309   0.03201052            5 
  628000   0.98653243   -6.4468548    237.72545  0.031545309  0.031988068            3 
  629000   0.98226411   -6.3974573    238.11344  0.031546561  0.031965737            6 
  630000    1.0103157   -6.4277485    238.46359  0.031542803  0.031942741            7 
  631000    1.0098908   -6.4896994    237.07396  0.031309292   0.03191935            5 
  632000     1.008599     -6.45039    237.87297  0.031365107  0.031895667            7 
  633000   0.98910557   -6.4509564    238.72005  0.031427074  0.031871664            5 
  634000   0.98170395   -6.4659398      238.371  0.031331624  0.031847834            6 
  635000   0.98799836   -6.4772127    238.48575  0.031297342  0.031824221            7 
  636000    1.0041572   -6.4611084    238.73462  0.031280741  0.031800742            7 
  637000    1.0252276   -6.4635037     238.8096  0.031241444   0.03177722            8 
  638000    1.0131902   -6.4627548    238.48593    0.0311502  0.031753723            3 
  639000    1.0126135   -6.4844678    239.17493  0.031191305   0.03173027            5 
  640000   0.97937055   -6.4599172    239.15378  0.031139815   0.03170666            7 
  641000    1.0081039   -6.4744636    239.88145  0.031185836  0.031683219            3 
  642000    1.0174286   -6.4457515    240.11568  0.031167664   0.03165985            4 
  643000   0.99420185   -6.4796057    240.76146  0.031202885  0.031636646           10 
  644000    1.0238527   -6.4701788     241.3201  0.031226721  0.031613457            7 
  645000   0.98119925   -6.4793587    240.65533   0.03109242  0.031590509            8 
  646000   0.98812211   -6.4639713    241.58163  0.031163781  0.031567021            3 
  647000   0.97458571   -6.4641267    241.82537  0.031147009  0.031543982            5 
  648000    1.0089071   -6.4796967    241.89189  0.031107496  0.031521116            3 
  649000    0.9988541   -6.4916089    241.90801  0.031061635  0.031498436            5 
  650000   0.97609129   -6.4804208    242.16245  0.031046468  0.031475748            7 
  651000    1.0049811   -6.4718827    242.90325  0.031093606  0.031453065            7 
  652000   0.98810397   -6.4799756    243.10041  0.031071116  0.031430317            3 
  653000   0.99854716   -6.4789007    243.01853  0.031013084  0.031407532            3 
  654000   0.98479132   -6.4883188    242.78433  0.030935822  0.031384662            4 
  655000   0.98829222   -6.5019527    242.57331  0.030861745  0.031361566            5 
  656000   0.99842396   -6.5062323    243.26346   0.03090237  0.031338426            3 
  657000   0.95691197   -6.4305964     244.9888  0.031074175  0.031315637            4 
  658000    0.9743308   -6.4892521    244.08908  0.030913004  0.031292716            5 
  659000   0.97181825   -6.4687428    244.82577  0.030959252  0.031269908            3 
  660000   0.98712035   -6.4843213    243.97467  0.030804882  0.031247355            6 
  661000   0.99320611   -6.5004511    244.65678  0.030844274  0.031224288            6 
  662000    0.9749666   -6.4872289    245.19808  0.030865821   0.03120123            3 
  663000   0.99676749   -6.4821832    245.60498   0.03087041  0.031178631            7 
  664000   0.97566727   -6.4773437    245.79668  0.030847977  0.031155565            4 
  665000   0.97440648   -6.4790318    246.18599  0.030850375   0.03113254            4 
  666000   0.98750712   -6.4519017    245.48161  0.030715918  0.031109478            6 
  667000   0.98782058   -6.5008318     245.5591  0.030679548  0.031086418            4 
  668000   0.97444248   -6.4874235    245.71656  0.030653263  0.031063049            3 
  669000    1.0106654   -6.4752765    246.10157  0.030655402  0.031040102            5 
  670000   0.97144749   -6.4622334    246.85802  0.030703734   0.03101726            2 
  671000   0.98510215    -6.478596    246.93813  0.030667925  0.030994781            3 
  672000   0.98576754   -6.4777631      247.139  0.030647198  0.030972324           11 
  673000   0.99136507   -6.4560852    246.87801  0.030569343  0.030949879            3 
  674000   0.97425359   -6.4566911    247.69692  0.030625238  0.030926926            5 
  675000   0.98240902   -6.4777701    247.74426  0.030585712  0.030904324            4 
  676000   0.96919688    -6.503891    248.08455  0.030582414  0.030881753            6 
  677000   0.98281589   -6.5201543    247.90496  0.030515135  0.030859209            3 
  678000   0.98880988    -6.505861    247.70032  0.030444975  0.030837006            5 
  679000   0.99196022    -6.518608    248.09753  0.030448887  0.030814275            6 
  680000   0.97566155   -6.5014828     248.3789  0.030438591  0.030791667            6 
  681000    0.9955269   -6.4689992    248.80207  0.030445677  0.030769319            4 
  682000   0.97912921   -6.4754972    249.34854  0.030467807  0.030746834            6 
  683000   0.98738652   -6.4768492    249.31698  0.030419348  0.030724474            4 
  684000    1.0032692   -6.5170295    249.52422  0.030400125  0.030701887            7 
  685000   0.98008395   -6.5414706    248.83883  0.030272363  0.030679384            4 
  686000   0.97288726   -6.5196544    249.65917  0.030327887  0.030657128            8 
  687000   0.97342993   -6.4935458    249.87431  0.030309838  0.030634761            8 
  688000    0.9727376   -6.5447829    249.82966  0.030260376  0.030612297            5 
  689000    0.9738786   -6.5236714    250.38891  0.030284096  0.030589828            4 
  690000   0.97708703   -6.5011322    250.41781  0.030243697  0.030567332            5 
  691000   0.97289449   -6.5013516    250.63231  0.030225797  0.030545035            4 
  692000   0.99771574   -6.5107907    251.32668  0.030265737  0.030522969            3 
  693000   0.98302972   -6.5086148    251.80396  0.030279457  0.030500597            4 
  694000   0.98464999   -6.5142385    250.76514  0.030111088   0.03047829            6 
  695000   0.98704254   -6.5003837    251.31913  0.030134189  0.030456316            5 
  696000   0.97938985   -6.5353462    250.93829  0.030045294  0.030433855            4 
  697000   0.99564045   -6.5332365    251.57399  0.030078191  0.030411208            6 
  698000    0.9861469   -6.5407822    251.73692   0.03005455  0.030388786            5 
  699000   0.99167359   -6.5230446    251.92048  0.030033438  0.030366439            7 
  700000   0.98892433   -6.4782276    253.36807  0.030162865  0.030344327            4 
  701000   0.96574575   -6.5401756    252.44605   0.03001023  0.030322589            4 
  702000   0.96259436   -6.5159263    253.42156  0.030083281  0.030300998            4 
  703000   0.97731869   -6.5308706    253.36101  0.030033311  0.030279352            4 
  704000   0.97531244   -6.5032171    254.42371  0.030116443  0.030257967            4 
  705000   0.98030994   -6.5329348    253.13804  0.029921754   0.03023623            4 
  706000   0.99144038   -6.5454448    253.90091  0.029969418  0.030214041            4 
  707000   0.98307208   -6.4872418    254.41281  0.029987366  0.030192707            3 
  708000   0.95422927   -6.5076078    255.16838  0.030033943  0.030171853            6 
  709000   0.96953378   -6.4927573    255.95389  0.030083908  0.030150794            3 
  710000   0.96632326   -6.4889514    255.84965  0.030029301  0.030130146            4 
  711000   0.97550785   -6.5167525    256.20342  0.030028531  0.030108736            6 
  712000   0.95992651   -6.5557794    255.22347   0.02987166  0.030087449            4 
  713000   0.99851572   -6.5696147    255.70878  0.029886486  0.030066282            4 
  714000    0.9720098   -6.5371963    256.25806  0.029908737  0.030045694           20 
  715000   0.98429194   -6.5676183    255.86208  0.029820755  0.030024834            5 
  716000   0.96422299   -6.5618126    256.87361  0.029896835  0.030003557            5 
  717000   0.95287635   -6.5456488    257.24064  0.029897796  0.029982799            8 
  718000   0.97198189   -6.5506807    257.41422  0.029876302  0.029962165            5 
  719000   0.96656624   -6.5178345    257.51064  0.029845925  0.029941666            5 
  720000   0.96082896   -6.5495323    257.53813  0.029807654  0.029921009            2 
  721000   0.96763331   -6.5136061     258.1172  0.029833241  0.029900327            5 
  722000   0.98073373   -6.5269876    257.76853  0.029751677  0.029879577           11 
  723000   0.95567418   -6.5527605    257.68966  0.029701436  0.029858498            6 
  724000   0.96774086    -6.576153    258.08551  0.029705975  0.029837209            3 
  725000   0.95255316   -6.5284386    257.71344  0.029622234  0.029816311            5 
  726000   0.95985734   -6.5124132    258.64769   0.02968867   0.02979534            4 
  727000   0.96576815   -6.5672452    259.26214  0.029718265  0.029774319            7 
  728000   0.96717656   -6.5795359    258.22489   0.02955871  0.029753304            5 
  729000   0.97196506   -6.5347017    259.54309  0.029668849  0.029732435            6 
  730000   0.95887532   -6.5461465    259.43355  0.029615702  0.029711698            7 
  731000   0.95460363    -6.541321    259.81957  0.029619194  0.029690913            2 
  732000   0.95580431   -6.5650649    260.35413  0.029639587  0.029670042            9 
  733000   0.95508285   -6.5794547    259.36247  0.029486411  0.029648773            6 
  734000   0.98383532   -6.5107149    260.89308  0.029620014  0.029627744            3 
  735000   0.95889968   -6.5560724    258.92779  0.029356892  0.029606593            6 
  736000   0.97486851   -6.5680646      259.922  0.029429575  0.029585603            5 
  737000   0.96789216   -6.5841984    259.71627  0.029366381  0.029564465            6 
  738000   0.96697482   -6.5650856    260.49825  0.029414888  0.029543618            4 
  739000   0.95662044   -6.5467359    260.86834  0.029416818  0.029522887            4 
  740000   0.97529095   -6.5292769    261.35429  0.029431789  0.029502359            5 
  741000   0.95182928   -6.6100621    260.62264  0.029309789  0.029481549           11 
  742000   0.95580662   -6.5828288    261.35387  0.029352411   0.02946105            6 
  743000   0.97604555   -6.5761015    261.51487  0.029330963  0.029440415            3 
  744000   0.94603075   -6.5347839    262.84769  0.029440825  0.029419826            5 
  745000   0.94779179   -6.5397779    263.16999  0.029437359  0.029399791            6 
  746000   0.93412934   -6.5898965    261.82329  0.029247463  0.029379292            3 
  747000   0.97361835    -6.569766    262.54302  0.029288601  0.029358802            3 
  748000   0.98314213   -6.5355913    263.55135  0.029361781  0.029338669            4 
  749000   0.95410136   -6.5976869    262.75061   0.02923349  0.029318294            6 
  750000   0.95406741   -6.6020505    262.33793  0.029148659   0.02929727            6 
  751000   0.97082599   -6.6027704    263.12942  0.029197672  0.029276457            3 
  752000   0.97337547   -6.5498508    263.39897  0.029188715  0.029255756            5 
  753000   0.96467857   -6.5911438    263.87509  0.029202644  0.029235601            5 
  754000   0.94052849   -6.5735911    264.03458   0.02918154  0.029215772            7 
  755000   0.95982291   -6.5633798    264.63693  0.029209374   0.02919604            5 
  756000   0.97811971   -6.5801067     265.1094  0.029222818  0.029176417            2 
  757000   0.94474516   -6.5721076      265.188  0.029192866  0.029156818            5 
  758000   0.94899265   -6.5533937    266.26286  0.029272522  0.029137521            8 
  759000   0.96235453   -6.5889585    264.98599  0.029093763  0.029117637            4 
  760000    0.9430777   -6.5960665    265.50908  0.029112837  0.029097599            3 
  761000   0.94638498   -6.5969106    265.50796   0.02907446  0.029077488            5 
  762000   0.93977831   -6.5763589    265.87258  0.029076179  0.029057753            3 
  763000   0.94137466   -6.5582806    267.32747  0.029196972  0.029038154            5 
  764000   0.91154012   -6.6156743    266.27569  0.029044033  0.029018534            2 
  765000   0.94387118   -6.5820663    267.85198  0.029177775  0.028999007            6 
  766000   0.92712345    -6.569139    266.78899  0.029024041  0.028980063            5 
  767000   0.94605837   -6.5800282    267.15756  0.029026246  0.028960473            3 
  768000   0.92241383   -6.5863496    267.17343  0.028990173  0.028941052            5 
  769000   0.96022477   -6.6256591    266.57778  0.028887926  0.028921501            4 
  770000   0.92466907   -6.6260857    267.14412  0.028911701  0.028901553            7 
  771000   0.94815604    -6.611167    267.38247  0.028899964  0.028881692            3 
  772000   0.92562778    -6.609453    267.11961  0.028834155  0.028861762            5 
  773000    0.9679399   -6.5873774    267.86099  0.028876777  0.028842017            7 
  774000   0.95006912   -6.5900813    266.97825  0.028744428  0.028822273            2 
  775000   0.94694651   -6.5925674    268.68038  0.028890363  0.028802317            5 
  776000   0.95768598   -6.6087462    268.55104  0.028839244  0.028782444            2 
  777000   0.94227159   -6.5798701     268.4041  0.028786368  0.028762888            5 
  778000   0.95727547   -6.5880667     269.9558  0.028915574  0.028743189            6 
  779000   0.93786977   -6.5775771    269.30109  0.028808418  0.028723714            5 
  780000   0.96995588   -6.6404141    268.58763   0.02869526  0.028704204            6 
  781000   0.94244442   -6.6277497    268.93862  0.028695968  0.028684488            7 
  782000   0.93135232   -6.5870622    269.26945  0.028694528    0.0286649            5 
  783000   0.93892725   -6.6072814    269.31245  0.028662458  0.028645471            5 
  784000   0.94710778   -6.6404532    269.51993  0.028647952   0.02862572           12 
  785000    0.9707999   -6.6177994    269.68569  0.028629054  0.028605986            5 
  786000   0.93381518   -6.6341931    270.40702  0.028669108  0.028586482            3 
  787000   0.96401783   -6.6326603    269.85793  0.028574538  0.028567005            4 
  788000   0.92817504   -6.6450603    271.01254  0.028660378  0.028547468            5 
  789000   0.96142768   -6.6406979    270.91356  0.028613599  0.028528185            7 
  790000   0.91724778   -6.6061687    271.18068  0.028605557  0.028509097            8 
  791000    0.9367774   -6.6530555    270.77505  0.028526659  0.028489422            8 
  792000   0.95101347   -6.6201574    270.77136  0.028490253  0.028469631            9 
  793000   0.91308666   -6.6408199    270.55534  0.028431625  0.028449532            9 
  794000    0.9384472   -6.6520458    271.41548  0.028486092  0.028429428            5 
  795000   0.94209667   -6.6032233    272.35399  0.028548636  0.028409719            8 
  796000   0.93291247   -6.6268556    272.07326  0.028483381  0.028390238           18 
  797000   0.94659065   -6.6356821    271.70708  0.028409356  0.028370703            3 
  798000   0.94018399    -6.604275      272.324  0.028438178  0.028351238            6 
  799000   0.94361624   -6.6114769    272.91021  0.028463727  0.028331806            5 
  800000   0.93353475   -6.6161994    272.40776  0.028375808  0.028312375            3 
  801000   0.93733687   -6.6161194    272.46095  0.028345917  0.028293173            4 
  802000   0.92493569   -6.6177313    272.75863  0.028341503  0.028273954            7 
  803000   0.91627216    -6.624893    273.26509  0.028358768  0.028254681            4 
  804000   0.91999341   -6.6441834    273.22184  0.028319013  0.028235411            4 
  805000   0.90978863    -6.670983    273.43335   0.02830573  0.028215933            3 
  806000    0.9254475   -6.6092031     274.1168  0.028341273  0.028196535            5 
  807000   0.93180143   -6.6514242    273.52253  0.028244788  0.028177272            4 
  808000   0.93191834   -6.6500444    273.97571  0.028256571  0.028157751            8 
[...]
 1800000   0.53176095   -7.7186791    306.40681    0.0141855  0.012515365          804 
 1801000   0.54527779   -7.7349512    306.70304  0.014191331  0.012504494          723 
 1802000   0.54117109   -7.7390171    306.44597  0.014171567  0.012493638          735 
 1803000   0.52987378   -7.7344221    306.08065  0.014146822  0.012482805          793 
 1804000    0.5352908   -7.7323959    306.48337  0.014157584  0.012471977          797 
 1805000   0.53126187   -7.7287107     306.4109  0.014146394  0.012461177          817 
 1806000   0.53175413   -7.7392229    306.13472  0.014125817  0.012450373          771 
 1807000   0.54249693   -7.7229329    307.02687  0.014159144  0.012439594          878 
 1808000   0.52865848   -7.7291857    306.29922  0.014117774   0.01242883          796 
 1809000   0.52942434   -7.7379858    306.58789  0.014123267  0.012418068          766 
 1810000   0.52843755   -7.7331715    306.10512  0.014093237  0.012407323          739 
 1811000   0.52682176    -7.754181    306.23344   0.01409136  0.012396586          771 
 1812000   0.53416549   -7.7213132    306.09771  0.014077341  0.012385863          733 
 1813000   0.53167551   -7.7359956    306.85498  0.014104384  0.012375157          778 
 1814000   0.52709667   -7.7526186    306.19415  0.014066251   0.01236446          830 
 1815000   0.53804746   -7.7484526    306.42342  0.014069027  0.012353757          814 
 1816000   0.52800212   -7.7568034    305.85464   0.01403518  0.012343061          747 
 1817000   0.52898667   -7.7563122    305.56561  0.014014199   0.01233237          814 
 1818000   0.52916872    -7.755929    306.22921  0.014036909  0.012321704          833 
 1819000   0.52352189    -7.735038    305.78054  0.014008638  0.012311043          770 
 1820000    0.5248941   -7.7583426    305.93195  0.014007873  0.012300394          776 
 1821000   0.52689497     -7.75057    306.47669  0.014025109  0.012289758          783 
 1822000   0.53354603    -7.753167    305.78992  0.013986001  0.012279128          720 
 1823000   0.51527445   -7.7453791    306.39619  0.014006043  0.012268506          810 
 1824000   0.53529339   -7.7380264    306.34064  0.013995826  0.012257903          784 
 1825000   0.53567781    -7.737488    306.21692  0.013982508  0.012247314          901 
 1826000   0.52159215     -7.77429    306.02618  0.013966145  0.012236733          820 
 1827000   0.51918687   -7.7522474    306.67028   0.01398788  0.012226147          899 
 1828000   0.52322182   -7.7540152    305.55537  0.013929402  0.012215582          857 
 1829000   0.51527119   -7.7550067    305.76201  0.013931202  0.012205029          885 
 1830000   0.52334888   -7.7537131    306.26282  0.013946395  0.012194485          821 
 1831000   0.51712155   -7.7618142    306.16176  0.013934178  0.012183945          818 
 1832000   0.52958815   -7.7636068    305.36757  0.013890446  0.012173428          759 
 1833000   0.53061817    -7.759198    306.30064  0.013925288  0.012162927          874 
 1834000   0.51227702   -7.7541492    306.26763  0.013916196  0.012152444          781 
 1835000   0.51768786   -7.7492461     306.2638  0.013908438  0.012141954          837 
 1836000   0.52861783     -7.77674    305.91841  0.013885186  0.012131486          823 
 1837000   0.52498359   -7.7649928    305.94775  0.013878958  0.012121018          815 
 1838000   0.52126577   -7.7572257    306.14768  0.013880472  0.012110562          856 
 1839000    0.5151039   -7.7499298    307.08312  0.013915313  0.012100126          805 
 1840000   0.51357012   -7.7543478      305.442  0.013833424  0.012089694          799 
 1841000    0.5102903   -7.7732587    306.09438   0.01385544  0.012079274          701 
 1842000   0.51929232   -7.7716672    305.94956  0.013841366  0.012068866          813 
 1843000   0.51951346   -7.7561726    306.12115  0.013841615  0.012058484          816 
 1844000   0.51476623   -7.7661052    306.12084  0.013834094  0.012048103          850 
 1845000   0.50962141   -7.7562876    306.46602  0.013842187  0.012037724          777 
 1846000   0.51902582   -7.7596718    305.63625  0.013797231  0.012027357          746 
 1847000   0.51367255   -7.7785286    305.45377  0.013781527  0.012017012          835 
 1848000   0.51191734   -7.7745432    306.16888  0.013806317  0.012006677          838 
 1849000    0.5163826   -7.7896263    305.82127  0.013783183  0.011996349          720 
 1850000   0.51206975   -7.7714653    305.85914  0.013777439  0.011986034          870 
 1851000   0.50385683   -7.7648135    305.80122  0.013767388   0.01197572          821 
 1852000   0.50975729   -7.7643272    305.49998    0.0137464  0.011965413          835 
 1853000   0.52584903   -7.7664438    306.02939   0.01376279   0.01195513          777 
 1854000   0.50511436   -7.7614729     305.9695  0.013752674  0.011944841          785 
 1855000   0.51465847   -7.7777552    305.94784  0.013744288  0.011934568          777 
 1856000    0.5130231   -7.7765617    305.91371   0.01373535   0.01192432          784 
 1857000    0.5176054   -7.7721005    305.52651  0.013710577  0.011914057          804 
 1858000   0.50896391    -7.756845    306.00151  0.013724503  0.011903817          761 
 1859000   0.51525774   -7.7483736    305.30288  0.013685802  0.011893575          862 
 1860000   0.51023688   -7.7741578    305.47218  0.013686029  0.011883357          797 
 1861000   0.51150062   -7.7765352    305.53849  0.013681645  0.011873143          835 
 1862000   0.51951388   -7.7788242    305.75795  0.013684119  0.011862944          882 
 1863000   0.50350321   -7.7721332    305.63926  0.013671465  0.011852752          758 
 1864000   0.52960795    -7.777482    305.78984  0.013670862   0.01184256          826 
 1865000    0.5113746   -7.7843838    305.65995  0.013657728  0.011832395          879 
 1866000   0.49749022   -7.7851073    306.23051  0.013675889  0.011822232          760 
 1867000   0.51178973   -7.7735932    305.57381  0.013639253  0.011812068          870 
 1868000   0.50798285   -7.7721733    305.22057  0.013616193  0.011801912          891 
 1869000   0.50410143   -7.7902535    305.71476  0.013630942  0.011791759          831 
 1870000   0.49547256   -7.7824972    305.45393  0.013612029  0.011781642          886 
 1871000   0.52037885   -7.7829871    305.39905  0.013602309  0.011771532          894 
 1872000   0.50963079   -7.7840267     305.6778  0.013607452  0.011761435          929 
 1873000   0.50670882   -7.7852903    305.21327  0.013579519  0.011751335          929 
 1874000   0.51129929   -7.7729101    305.02457  0.013563882  0.011741256          845 
 1875000   0.51934772   -7.7937524    305.62108  0.013583159  0.011731183          877 
 1876000   0.50196707   -7.7887219    305.61351  0.013575582  0.011721119          791 
 1877000   0.51556314    -7.773145    305.28783   0.01355389  0.011711065          840 
 1878000   0.50486909   -7.7888028    305.53584  0.013557679  0.011701019          792 
 1879000   0.50664699   -7.7896138    305.41765  0.013545221   0.01169098          794 
 1880000    0.4884097   -7.7832454    305.42179    0.0135382  0.011680958          935 
 1881000   0.50804411   -7.7840399    305.15775  0.013519305  0.011670948          924 
 1882000   0.50096637    -7.787258    305.55069   0.01352952  0.011660941          942 
 1883000   0.49652509   -7.7964095    305.58143  0.013523696  0.011650942          833 
 1884000   0.50504522   -7.7918295    305.70536  0.013521999  0.011640954          940 
 1885000   0.49796667   -7.7856881    305.41505  0.013501992  0.011630983          878 
 1886000   0.51047054   -7.8060505    305.50626  0.013498863  0.011621008          898 
 1887000   0.49157517   -7.7886154    305.32196   0.01348357  0.011611051          816 
 1888000   0.50105871   -7.8027665    305.31485  0.013476115  0.011601107          845 
 1889000   0.50720174   -7.8144355    305.03863  0.013456795  0.011591174          888 
 1890000   0.49129589   -7.8217559    305.28451  0.013460516   0.01158124          939 
 1891000   0.49226327   -7.7821286    304.93408  0.013437955  0.011571316          900 
 1892000    0.5014054   -7.7787798     305.3596  0.013449595  0.011561412          834 
 1893000   0.48727193   -7.7860257    305.16367  0.013433865  0.011551521          908 
 1894000   0.48198518    -7.808947    305.08889  0.013423482   0.01154163          897 
 1895000   0.49633487    -7.795897    304.64146  0.013396722  0.011531752          892 
 1896000   0.50297973   -7.7931239    305.46882  0.013426021  0.011521891          884 
 1897000   0.49828359   -7.7945649    305.23978  0.013408881  0.011512048          916 
 1898000   0.49476856   -7.8012076    305.45031  0.013411061   0.01150221          872 
 1899000   0.49494055   -7.7931805    305.14298  0.013390512  0.011492366         1009 
 1900000   0.49363327   -7.8139433    304.70075  0.013364068  0.011482538          818 
 1901000   0.48601781   -7.8192615    305.34341   0.01338521  0.011472719          872 
 1902000   0.48296074   -7.8128727    305.33387  0.013377755  0.011462911          851 
 1903000   0.50283912   -7.8030512    304.79335  0.013347055  0.011453133          806 
 1904000   0.48561306   -7.8080759    305.07356  0.013352309  0.011443359          865 
 1905000   0.48823553   -7.8008019    304.56244  0.013322941  0.011433596          908 
 1906000   0.50349509   -7.7929309     305.5644  0.013359759  0.011423855          884 
 1907000   0.49271456   -7.8038913    305.14302  0.013334339  0.011414103          847 
 1908000   0.48609242   -7.8140985    305.08661  0.013324887  0.011404372          884 
 1909000   0.49338538   -7.8040887    305.04402  0.013316048  0.011394651          915 
 1910000   0.48318492   -7.8030511    304.92288   0.01330379  0.011384931          872 
 1911000   0.48421991   -7.8003629    304.53634  0.013279973  0.011375229          909 
 1912000   0.50088661   -7.8163024     304.4813  0.013270629   0.01136553          934 
 1913000   0.49289733   -7.8101295    304.92773  0.013283139  0.011355849          898 
 1914000   0.49182903    -7.823969    304.63628  0.013263509  0.011346164          904 
 1915000   0.49201142   -7.8339851     304.5967  0.013254861  0.011336495          931 
 1916000   0.49179433   -7.8197154    304.66139  0.013250756  0.011326829          903 
 1917000   0.49814728   -7.8220638    304.95462  0.013256591  0.011317188          951 
 1918000   0.49458818   -7.8296234    304.51047  0.013230382  0.011307557          925 
 1919000   0.48487328   -7.8212274    305.20007  0.013253434  0.011297943          929 
 1920000   0.49082539   -7.7938724    305.19081  0.013246129  0.011288333          865 
 1921000   0.48196374   -7.8203939    304.62387  0.013214639  0.011278733          862 
 1922000   0.49762092   -7.8210458     304.8681  0.013218353  0.011269145          908 
 1923000   0.48952197   -7.8290047    304.20687  0.013182825   0.01125956          863 
 1924000   0.48767747   -7.8265049    304.82687  0.013202827  0.011249986          866 
 1925000   0.49439792   -7.8275675    305.23977  0.013213843  0.011240422          863 
 1926000   0.48244613   -7.8157655    304.93729  0.013193894  0.011230873          965 
 1927000   0.48424357   -7.8271761    304.50799  0.013168482   0.01122133          885 
 1928000   0.47558577   -7.8232852    305.08283  0.013186499  0.011211802          932 
 1929000   0.49543604    -7.804823    305.13843  0.013182065  0.011202282          862 
 1930000   0.48688061   -7.8199803    304.67821  0.013155363  0.011192766          927 
 1931000   0.49888189   -7.8316193    304.41133  0.013137033  0.011183257          919 
 1932000   0.48144884   -7.8296246    305.15844  0.013162459   0.01117376          922 
 1933000   0.48245113   -7.8265391    305.04423  0.013150725   0.01116427          828 
 1934000   0.48400779   -7.8101622    305.56675  0.013166441  0.011154806          868 
 1935000   0.47601941   -7.8236811    304.76492  0.013125104   0.01114535          736 
 1936000   0.48067724   -7.8304544     304.4152  0.013103271  0.011135899          939 
 1937000    0.4789379   -7.8333991    304.40672  0.013096142  0.011126456          923 
 1938000   0.48396317   -7.8426765    304.61984  0.013098548   0.01111702          940 
 1939000   0.48022559   -7.8317094    304.86793  0.013102455  0.011107601          809 
 1940000    0.4831327   -7.8284587    304.47714  0.013078915  0.011098183          905 
 1941000   0.48808709   -7.8345175    304.35631  0.013066989  0.011088787          868 
 1942000   0.47726512   -7.8468731    304.66389  0.013073459  0.011079385         1021 
 1943000   0.46844888    -7.836472    304.95263  0.013079115  0.011069999          967 
 1944000   0.46886606   -7.8440286    304.69045  0.013061148  0.011060625         1005 
 1945000   0.47116234   -7.8215469    304.89985  0.013063404  0.011051253          925 
 1946000   0.47878113    -7.840337       304.87  0.013055413  0.011041897          941 
 1947000   0.46076627   -7.8488492    304.73356  0.013042868  0.011032549          960 
 1948000   0.49136029   -7.8297121     304.8483  0.013041081  0.011023216          972 
 1949000   0.46794611   -7.8216363    304.98715  0.013040326   0.01101389          981 
 1950000   0.48103377   -7.8336365    304.80466   0.01302584  0.011004571          927 
 1951000   0.47406335   -7.8353618    304.77138  0.013017742  0.010995257         1012 
 1952000   0.45995191   -7.8525784    304.58591  0.013003155  0.010985955          895 
 1953000   0.46163579   -7.8503505    304.27394  0.012983186  0.010976668          916 
 1954000   0.46282934   -7.8386308    304.33695  0.012979228  0.010967383          951 
 1955000    0.4724431   -7.8431619    304.57629  0.012982792  0.010958106          895 
 1956000   0.47906931    -7.838068    304.24008   0.01296183  0.010948848          910 
 1957000   0.47494482   -7.8423729     304.4051  0.012962234  0.010939596          912 
 1958000   0.47305046   -7.8302853    304.61713  0.012964638  0.010930371          870 
 1959000   0.47343933   -7.8609193    304.55295   0.01295529  0.010921151          935 
 1960000   0.46271757   -7.8472031    304.33721  0.012939507  0.010911928          977 
 1961000   0.47682094   -7.8407455     304.6893  0.012947871  0.010902719          958 
 1962000   0.46406204   -7.8377663    304.77865  0.012945067  0.010893513          990 
 1963000   0.46337166   -7.8469853    304.86097  0.012941967  0.010884321          920 
 1964000   0.46582698   -7.8378105    304.57974  0.012923444  0.010875131          934 
 1965000   0.47208338   -7.8451696     304.3772  0.012908278  0.010865966          962 
 1966000   0.46122751   -7.8560963    304.38638  0.012902102  0.010856803          965 
 1967000   0.46879334   -7.8514178     304.3387  0.012893522  0.010847661         1001 
 1968000    0.4756304   -7.8588064    304.36015  0.012887879  0.010838505         1072 
 1969000   0.45861744   -7.8501796    304.18666  0.012873991  0.010829369          966 
 1970000   0.46760702   -7.8450306    304.50601  0.012880965   0.01082025          997 
 1971000   0.46575712    -7.840799    304.66139  0.012880999  0.010811129          978 
 1972000   0.45561858    -7.849203    304.73193  0.012877448  0.010802026          955 
 1973000   0.46958819   -7.8495313    304.42405  0.012857917  0.010792943          862 
 1974000   0.47412902    -7.847191    304.59966  0.012858817  0.010783859          771 
 1975000   0.46413322   -7.8522754      303.814  0.012819156  0.010774786         1010 
 1976000   0.47017185   -7.8493974    304.25301  0.012831183  0.010765723          836 
 1977000    0.4640217   -7.8579285    304.31002  0.012827096  0.010756668          921 
 1978000   0.46254427   -7.8568872    304.55357  0.012830872  0.010747629          924 
 1979000   0.47162057    -7.844528    304.42737  0.012819074  0.010738588          962 
 1980000   0.45773382   -7.8573177     304.5901  0.012819449   0.01072956          963 
 1981000   0.45598294   -7.8598432    304.12804   0.01279354  0.010720533          915 
 1982000   0.46411368   -7.8574468    304.15867  0.012788373  0.010711512          997 
 1983000    0.4669274   -7.8717979    304.38775  0.012791551  0.010702511          944 
 1984000   0.47399465   -7.8540896    303.95379  0.012766876  0.010693524         1022 
 1985000   0.46196676   -7.8694555    304.15389  0.012768845  0.010684545          960 
 1986000   0.46329543   -7.8644171    304.23658  0.012765885  0.010675579          915 
 1987000   0.45595132   -7.8672408    304.18723  0.012757391   0.01066662          970 
 1988000   0.47252903   -7.8518713    304.19712  0.012751388  0.010657682          954 
 1989000   0.45772585   -7.8672145    304.51601  0.012758338  0.010648744          910 
 1990000   0.46479916   -7.8604066    303.98843  0.012729834   0.01063982          949 
 1991000   0.45262637   -7.8737679    303.84544  0.012717455  0.010630899          942 
 1992000   0.45263939   -7.8743552    303.96521  0.012716081  0.010621976          929 
 1993000   0.45158021   -7.8627279    304.12481  0.012716374  0.010613072          933 
 1994000   0.47142072   -7.8654213    303.86941  0.012699323   0.01060418          978 
 1995000   0.45404425   -7.8529268    304.74576  0.012729564  0.010595305          936 
 1996000    0.4579569   -7.8710808    304.33974  0.012706235  0.010586437          989 
 1997000   0.45981324   -7.8799566    303.84182  0.012679095  0.010577566          943 
 1998000   0.45375441   -7.8649102    303.82572  0.012672077  0.010568709          900 
 1999000   0.45978597   -7.8751025     303.8937  0.012668572  0.010559871          953 
 2000000     0.452397   -7.8642068    304.16803  0.012673668  0.010551042          886 
 2001000   0.45768766   -7.8646316    304.17709  0.012667712  0.010542213          988 
 2002000   0.44240054   -7.8749831    303.83146  0.012646997  0.010533396          998 
 2003000   0.45195477   -7.8585035    303.80873  0.012639737  0.010524586          946 
 2004000   0.46240665   -7.8648502     304.1965  0.012649555  0.010515791          923 
 2005000   0.45416148   -7.8615194    304.02374  0.012636065     0.010507          932 
 2006000   0.45562858   -7.8783214     303.8538  0.012622707  0.010498227          982 
 2007000   0.45661078   -7.8776005    303.64681  0.012607823  0.010489458          884 
 2008000   0.45584494   -7.8783886    303.72398  0.012604747  0.010480704          998 
 2009000   0.45863882   -7.8613006    303.78397  0.012600961  0.010471959          987 
 2010000   0.44441311   -7.8697174    304.37505  0.012619198   0.01046322          897 
 2011000   0.44454954   -7.8860586     303.6728  0.012583822  0.010454491          957 
 2012000    0.4464556   -7.8503919    304.06358  0.012593753  0.010445766          936 
Loop time of 5182.37 on 48 procs for 2000000 steps with 4000 atoms

Performance: 66687.664 tau/day, 385.924 timesteps/s
99.4% CPU use with 48 MPI tasks x no OpenMP threads

MPI task timing breakdown:
Section |  min time  |  avg time  |  max time  |%varavg| %total
---------------------------------------------------------------
Pair    | 369.01     | 398.98     | 436.11     |  73.2 |  7.70
Neigh   | 36.83      | 38.015     | 39.549     |  10.9 |  0.73
Comm    | 322.36     | 360.76     | 393.14     |  77.3 |  6.96
Output  | 5.1631     | 5.165      | 5.2123     |   0.3 |  0.10
Modify  | 4321.3     | 4331.7     | 4345.4     |   7.4 | 83.59
Other   |            | 47.76      |            |       |  0.92

Nlocal:        83.3333 ave          90 max          77 min
Histogram: 2 4 4 9 6 5 12 3 1 2
Nghost:        2422.38 ave        2435 max        2405 min
Histogram: 1 2 1 4 4 11 9 9 3 4
Neighs:        16817.6 ave       19055 max       14344 min
Histogram: 4 3 6 6 4 4 5 4 8 4
FullNghs:      33636.1 ave       36443 max       31315 min
Histogram: 3 6 6 4 8 5 9 4 1 2

Total # of neighbors = 1614531
Ave neighs/atom = 403.63275
Neighbor list builds = 106795
Dangerous builds = 0

#clear
#
#next RN
#
#jump SELF
Total wall time: 1:26:25
