
units lj                  # Use reduced LJ style units
atom_style atomic         # Uncharged point particles
atom_modify map hash      # Needed for indexing of clusters etc
                          # Used to be able to find where atoms are in relation to each other.

# Define a lattice with which to populate the simulation cell. With units
# set to 'lj' the second argument to the lattice command is the reduced
# density rho* and the spacings are multiples of that required to acheive
# that density. Also define a simulation cell called 'box' in lattice units
# and fill it with atoms. Here we're creating a box which is ten lattice
# constants in each direction.
lattice fcc 1.0 spacing 1 1 1                 # All equal sizes - gives the right reduced density.
Lattice spacing in x,y,z = 1.5874011 1.5874011 1.5874011

region box block 0 10 0 10 0 10 units lattice # Defines a region, "box", in lattice units
create_box 1 box                              # Creates a simulation box as specified above,
Created orthogonal box = (0.0000000 0.0000000 0.0000000) to (15.874011 15.874011 15.874011)
  4 by 4 by 4 MPI processor grid
                                              # with one type of atom
create_atoms 1 box                            # Creates particles on lattice points
Created 4000 atoms
  using lattice units in orthogonal box = (0.0000000 0.0000000 0.0000000) to (15.874011 15.874011 15.874011)
  create_atoms CPU = 0.002 seconds


# Set the mass of the first (and only) atom type.
mass 1 1.0

# Lennard-Jones interactions between particles, 3.5 sigma cut-off. Apply
# long range tail corrections to energy and pressure and set all coefficients
# to unity since we work in reduced units here. Note that this doesn't shift
# the potential such that it goes to zero at the cutoff. That would require
# pair_modify('shift', 'yes').
pair_style lj/cut  3.5      # non-GPU version
pair_modify tail  yes
pair_coeff 1  1  1.0  1.0   # Intearaction between 1 and 1 set with epsilon = 1 and sigma = 1

write_data data.*
System init for write_data ...
Neighbor list info ...
  update every 1 steps, delay 10 steps, check yes
  max neighbors/atom: 2000, page size: 100000
  master list distance cutoff = 3.8
  ghost atom cutoff = 3.8
  binsize = 1.9, bins = 9 9 9
  1 neighbor lists, perpetual/occasional/extra = 1 0 0
  (1) pair lj/cut, perpetual
      attributes: half, newton on
      pair build: half/bin/atomonly/newton
      stencil: half/bin/3d
      bin: standard

#############################
#   M E L T   S Y S T E M   #
#############################

velocity all create 2.4 3143649 mom yes dist gaussian # Assign velocities
                                                    # Temperature 2.4, random number seed, zero linear momentum
						                                                        # Gaussian distribution

timestep 0.002   # simulation timestep
thermo 100       # output thermodynamic data every 100 steps

# Define a fix  in this case with index 1 applied to all
# particles in the simulation. This fix is for simulations
# in the anisotropic NPT ensemble. Note that we use the MTK
# correction.
fix 1 all npt temp 2.4 2.4 0.1 iso 5.68 5.68 0.5 mtk yes tchain 5 pchain 5 # Use NPT ensemble
                                                                         # Set temperature and pressure and damping
                                                                         # Numbers of thermostats in chain and in barostat
run 1000         # run for 10000 steps
Per MPI rank memory allocation (min/avg/max) = 3.630 | 3.630 | 3.630 Mbytes
Step Temp E_pair E_mol TotEng Press Volume 
       0          2.4   -8.3859253            0   -4.7868253   -2.2405722         4000 
     100    1.2648744   -6.5290671            0   -4.6322298    5.3798688    4090.0656 
     200    1.4689665   -6.3033458            0   -4.1004469    5.9766879    4141.9478 
     300    1.5757287   -6.0115718            0   -3.6485695    5.8461614    4272.4316 
     400    1.6979232   -5.7228765            0   -3.1766284    5.8923806    4398.0373 
     500    1.7905817    -5.427445            0   -2.7422439      5.78902    4550.9794 
     600    1.8981736   -5.1583052            0   -2.3117566    5.7628382       4700.9 
     700    2.0060053   -4.8956622            0   -1.8874064    5.8620002    4837.8597 
     800     2.161964   -4.7200774            0   -1.4779421    5.9239068    4947.9616 
     900    2.2454811   -4.5521004            0   -1.1847209    5.7904219    5078.3833 
    1000    2.3595505   -4.4432956            0   -0.9048547    5.8626198    5147.5374 
Loop time of 0.245954 on 64 procs for 1000 steps with 4000 atoms

Performance: 702569.109 tau/day, 4065.793 timesteps/s
99.6% CPU use with 64 MPI tasks x no OpenMP threads

MPI task timing breakdown:
Section |  min time  |  avg time  |  max time  |%varavg| %total
---------------------------------------------------------------
Pair    | 0.059242   | 0.062847   | 0.068045   |   0.7 | 25.55
Neigh   | 0.013968   | 0.014696   | 0.015581   |   0.3 |  5.98
Comm    | 0.12213    | 0.13414    | 0.14599    |   2.0 | 54.54
Output  | 0.00035348 | 0.00035781 | 0.00040523 |   0.0 |  0.15
Modify  | 0.023511   | 0.032031   | 0.041054   |   3.9 | 13.02
Other   |            | 0.001884   |            |       |  0.77

Nlocal:        62.5000 ave          69 max          52 min
Histogram: 1 1 2 2 11 13 10 14 5 5
Nghost:        1247.56 ave        1267 max        1229 min
Histogram: 3 8 10 4 3 9 13 6 5 3
Neighs:        5551.38 ave        6501 max        4539 min
Histogram: 2 2 2 11 13 13 12 4 3 2

Total # of neighbors = 355288
Ave neighs/atom = 88.822000
Neighbor list builds = 87
Dangerous builds = 20

# Equilibrate just above the melting temperature to avoid step fn in T

fix 1 all npt temp 1.25 1.25 0.1 iso 5.68 5.68 0.5 mtk yes tchain 5 pchain 5
run 1000
Per MPI rank memory allocation (min/avg/max) = 3.631 | 3.631 | 3.631 Mbytes
Step Temp E_pair E_mol TotEng Press Volume 
    1000    2.3595505   -4.4432956            0   -0.9048547    5.8626198    5147.5374 
    1100    1.9293476   -4.6486671            0   -1.7553692    5.7282766    4999.4388 
    1200    1.7345312   -4.9601095            0   -2.3589631    5.7791767    4797.9679 
    1300    1.5644489   -5.2082186            0   -2.8621319    5.5594876    4679.9578 
    1400     1.466305   -5.4051147            0   -3.2062071    5.7438096    4550.8751 
    1500    1.3912389   -5.5752414            0   -3.4889048    5.6991581    4468.1976 
    1600    1.3078898   -5.6911598            0   -3.7298155    5.4640743    4431.8167 
    1700    1.2563777   -5.7616223            0   -3.8775269    5.4245998    4398.8172 
    1800    1.2347894   -5.7874194            0   -3.9356984    5.5426245    4376.1587 
    1900     1.276485   -5.8164585            0   -3.9022097    5.4174286    4378.1985 
    2000    1.2569289   -5.8154156            0   -3.9304936    5.6265703     4360.924 
Loop time of 0.243596 on 64 procs for 1000 steps with 4000 atoms

Performance: 709370.116 tau/day, 4105.151 timesteps/s
99.9% CPU use with 64 MPI tasks x no OpenMP threads

MPI task timing breakdown:
Section |  min time  |  avg time  |  max time  |%varavg| %total
---------------------------------------------------------------
Pair    | 0.057201   | 0.061928   | 0.067962   |   0.8 | 25.42
Neigh   | 0.012022   | 0.012787   | 0.013762   |   0.3 |  5.25
Comm    | 0.12325    | 0.13464    | 0.14675    |   2.2 | 55.27
Output  | 0.00035705 | 0.00036476 | 0.00041625 |   0.0 |  0.15
Modify  | 0.021886   | 0.031511   | 0.041331   |   4.4 | 12.94
Other   |            | 0.002361   |            |       |  0.97

Nlocal:        62.5000 ave          69 max          56 min
Histogram: 2 4 6 10 11 5 14 8 3 1
Nghost:        1404.88 ave        1424 max        1383 min
Histogram: 2 2 8 5 15 6 7 13 2 4
Neighs:        6547.39 ave        7241 max        5694 min
Histogram: 2 2 6 5 13 12 3 12 6 3

Total # of neighbors = 419033
Ave neighs/atom = 104.75825
Neighbor list builds = 75
Dangerous builds = 6


# Small amount of linear quench

fix 1 all npt temp 1.25 ${temp} 0.1 iso 5.68 5.68 0.5 mtk yes tchain 5 pchain 5
fix 1 all npt temp 1.25 1.56 0.1 iso 5.68 5.68 0.5 mtk yes tchain 5 pchain 5
run 2000
Per MPI rank memory allocation (min/avg/max) = 3.631 | 3.631 | 3.631 Mbytes
Step Temp E_pair E_mol TotEng Press Volume 
    2000    1.2569289   -5.8154156            0   -3.9304936    5.6265703     4360.924 
    2100    1.2423936   -5.8257664            0   -3.9626419      5.63367    4353.9295 
    2200    1.2655014   -5.8440498            0   -3.9462723     5.608544    4348.8998 
    2300    1.2711932   -5.7802947            0   -3.8739815    5.8118104    4358.2925 
    2400    1.3146433   -5.7698246            0   -3.7983526    5.9259192    4356.8782 
    2500    1.3419265   -5.7607636            0   -3.7483771    5.8427031    4371.2484 
    2600    1.3332174   -5.7211303            0   -3.7218042    5.6906241    4397.6199 
    2700    1.3377562   -5.7083538            0   -3.7022211     5.510274    4422.1026 
    2800    1.3507613   -5.6863341            0   -3.6606987    5.5855246    4425.0977 
    2900     1.366771   -5.6315549            0   -3.5819109    5.8393855    4426.7978 
    3000    1.3940043      -5.6267            0   -3.5362163    5.6149753    4453.8096 
    3100    1.4254059    -5.617085            0   -3.4795106    5.6040173    4460.4845 
    3200    1.4166479    -5.612122            0   -3.4876814      5.47801     4474.445 
    3300    1.4445028     -5.56065            0   -3.3944374    5.6721177    4483.0661 
    3400    1.4750526   -5.5342704            0   -3.3222446     5.775131    4487.0716 
    3500    1.4677382   -5.4928349            0    -3.291778    5.7760105    4507.2052 
    3600    1.5045975   -5.4740666            0   -3.2177346    5.7669248    4518.8684 
    3700    1.5273978   -5.4624018            0   -3.1718778    5.6429093    4537.7013 
    3800    1.5199651   -5.4316951            0   -3.1523175    5.4922122    4565.0496 
    3900    1.5367569   -5.4163038            0   -3.1117448    5.6281931    4561.1913 
    4000    1.5521206    -5.381983            0   -3.0543842    5.8943811    4554.3721 
Loop time of 0.499675 on 64 procs for 2000 steps with 4000 atoms

Performance: 691650.037 tau/day, 4002.604 timesteps/s
99.9% CPU use with 64 MPI tasks x no OpenMP threads

MPI task timing breakdown:
Section |  min time  |  avg time  |  max time  |%varavg| %total
---------------------------------------------------------------
Pair    | 0.12177    | 0.12715    | 0.13484    |   0.8 | 25.45
Neigh   | 0.023922   | 0.024799   | 0.026052   |   0.3 |  4.96
Comm    | 0.2501     | 0.27378    | 0.29748    |   3.2 | 54.79
Output  | 0.00070144 | 0.0007127  | 0.00081405 |   0.0 |  0.14
Modify  | 0.047673   | 0.067897   | 0.089827   |   6.4 | 13.59
Other   |            | 0.005338   |            |       |  1.07

Nlocal:        62.5000 ave          70 max          54 min
Histogram: 1 3 2 13 4 15 12 8 5 1
Nghost:        1357.23 ave        1383 max        1336 min
Histogram: 4 4 11 10 10 6 10 4 2 3
Neighs:        6266.83 ave        7228 max        5317 min
Histogram: 2 2 4 14 9 12 10 10 0 1

Total # of neighbors = 401077
Ave neighs/atom = 100.26925
Neighbor list builds = 142
Dangerous builds = 0

#############################
# F R E E Z E  S Y S T E M  #
#############################

# Define solid atoms. This closely follows ten Wolde  Ruiz-Montero and Frenkel  Faraday Discuss  1996  104  93-110
# Compute components of the per-atom q6 vector
compute q6 all orientorder/atom degrees 1 6 components 6 nnn NULL cutoff 1.3 # compute the Q6 parameter.
                                                                             # Use all neighbours within 1.3 unit cell.

# get number of connections
compute coord_number all coord/atom orientorder q6 0.5

# An atom is solid if it has 8 or more connections (of a possible 14)
variable is_solid atom c_coord_number>=8
group solid dynamic all var is_solid    # Must be dynamic to update
dynamic group solid defined

# do clustering
compute cluster solid cluster/atom 1.3 # Create a cluster where all atoms within are solid and max 1.3 units from another member

# define chunks one chunk per cluster
compute clus_chunks solid chunk/atom c_cluster nchunk every compress yes  # Says which atoms are in which chunk

# count the size of each chunk
compute size_chunks solid property/chunk clus_chunks count


# Find the maximum entry in the vector of chunk sizes
variable max_n equal max(c_size_chunks)


# Thermo style which includes this variable
thermo_style custom step temp pe vol v_max_n

thermo ${N}  # Print the thermo information every 100 steps
thermo 100  

# Reset the npt fix at a lower temperature (below freezing)
fix 1  all npt temp  ${temp} ${temp}  0.1  iso  5.68  5.68  0.5  mtk yes tchain  5  pchain  5
fix 1  all npt temp  1.56 ${temp}  0.1  iso  5.68  5.68  0.5  mtk yes tchain  5  pchain  5
fix 1  all npt temp  1.56 1.56  0.1  iso  5.68  5.68  0.5  mtk yes tchain  5  pchain  5

dump dmp2 all dcd ${N} traj_${rand}.dcd
dump dmp2 all dcd 100 traj_${rand}.dcd
dump dmp2 all dcd 100 traj_462431.dcd


# fix rnuntil all halt ${N} v_max_n >= 3980 error soft message no   # Stop when solidified


run 100000 # 5000000  # Run for this many steps
Neighbor list info ...
  update every 1 steps, delay 10 steps, check yes
  max neighbors/atom: 2000, page size: 100000
  master list distance cutoff = 3.8
  ghost atom cutoff = 3.8
  binsize = 1.9, bins = 9 9 9
  4 neighbor lists, perpetual/occasional/extra = 1 3 0
  (1) pair lj/cut, perpetual
      attributes: half, newton on
      pair build: half/bin/atomonly/newton
      stencil: half/bin/3d
      bin: standard
  (2) compute orientorder/atom, occasional
      attributes: full, newton on
      pair build: full/bin/atomonly
      stencil: full/bin/3d
      bin: standard
  (3) compute coord/atom, occasional
      attributes: full, newton on
      pair build: full/bin/atomonly
      stencil: full/bin/3d
      bin: standard
  (4) compute cluster/atom, occasional
      attributes: full, newton on
      pair build: full/bin/atomonly
      stencil: full/bin/3d
      bin: standard
Per MPI rank memory allocation (min/avg/max) = 9.306 | 9.310 | 9.314 Mbytes
Step Temp PotEng Volume v_max_n 
    4000    1.5521206    -5.381983    4554.3721            2 
    4100    1.5883787    -5.387846    4562.4106            1 
    4200    1.5696764   -5.3640895    4621.0354            2 
    4300    1.5648369   -5.3779269    4602.7931            1 
    4400    1.5677248   -5.3671583    4582.1342            2 
    4500    1.5744046   -5.3111832    4590.6594            1 
    4600    1.5470084   -5.3227144    4618.3481            3 
    4700    1.5537488   -5.3699131    4579.3892            2 
    4800    1.5557147   -5.3526722    4572.9885            2 
    4900     1.558324   -5.3347356    4596.9514            1 
    5000    1.5888285   -5.3555403    4612.1457            5 
    5100     1.559094    -5.353433    4580.1412            2 
    5200    1.5704986    -5.335782    4571.6738            1 
    5300    1.5989824   -5.3382217    4618.0943            2 
    5400     1.569311   -5.3667843    4592.1601            2 
    5500    1.5673503   -5.3715203    4572.0498            1 
    5600    1.5565984   -5.3978699    4566.7727            2 
    5700    1.5409444   -5.3806657     4575.836            2 
    5800    1.5735663   -5.3836245     4576.923            1 
    5900    1.5488201   -5.3506443    4567.5893            2 
    6000     1.580483   -5.3579374    4592.2142            3 
    6100    1.5515201   -5.3868682    4567.8837            1 
    6200    1.5600059   -5.3967114    4564.5578            2 
    6300    1.5858342   -5.3695702    4580.3727            3 
    6400    1.5231816   -5.3848759    4579.5283            1 
    6500    1.5589629   -5.3642286    4602.0514            1 
    6600    1.5950912   -5.3592581    4571.1786            3 
    6700    1.5389274   -5.3511678     4574.658            1 
    6800    1.5611149   -5.3469865    4575.1773            1 
    6900    1.5751646   -5.3964117    4577.2712            2 
    7000    1.5089901   -5.3696838    4573.7627            1 
    7100    1.5729645   -5.3587969    4583.0644            1 
    7200     1.593174   -5.3487187    4561.1214            2 
    7300    1.5436241   -5.3840646    4573.5473            1 
    7400    1.5740161     -5.39329     4582.506            2 
    7500    1.5816749   -5.3600213    4597.8029            1 
    7600    1.5535106   -5.3648328    4581.5856            2 
    7700    1.5359443   -5.3637401    4580.3545            1 
    7800    1.5745377    -5.366704    4595.6683            2 
    7900    1.5680318   -5.3366265    4595.3514            1 
    8000    1.5769821   -5.3729092    4591.3254            1 
    8100     1.566005   -5.4099441     4582.888            1 
    8200    1.5465757   -5.4198656    4577.9996            1 
    8300    1.5790626   -5.4016274    4557.6709            1 
    8400    1.5965457   -5.3672131    4579.4879            2 
    8500    1.5537103   -5.4043157    4591.9945            2 
    8600    1.5478514   -5.3927159      4595.81            1 
    8700    1.5975364    -5.405327    4588.3889            2 
    8800    1.5574805   -5.3629639    4564.4059            2 
    8900    1.5609167   -5.3897049     4582.261            1 
    9000    1.5657629    -5.319882    4595.0929            2 
    9100    1.5694324   -5.3158412    4600.8778            1 
    9200    1.5707135   -5.3299977     4619.331            2 
    9300    1.5628645   -5.3711953    4584.0849            1 
    9400    1.5804732   -5.3640707    4582.2688            1 
    9500    1.5369754   -5.3798788    4589.1218            1 
    9600    1.5525564   -5.3583111    4559.6946            2 
    9700    1.5611266    -5.406185    4535.1113            3 
    9800    1.5339076   -5.3973542    4568.1129            8 
    9900    1.5761648   -5.4218305    4577.4024            2 
   10000    1.5254911   -5.3927643    4561.9172            1 
   10100    1.5885608   -5.4101019    4576.8763            2 
   10200      1.54934   -5.3649244    4597.2048            2 
   10300    1.5678277   -5.3320175    4604.9878            2 
   10400    1.5581685    -5.306085    4601.6419            2 
   10500    1.5487863   -5.3124898    4612.4514            2 
   10600      1.55944   -5.3506881     4597.121            2 
   10700    1.5615442   -5.3673891    4581.5141            1 
   10800    1.5564064   -5.3854155    4579.4309            3 
   10900    1.5300882   -5.3300965    4592.3587            1 
   11000    1.5833361   -5.3529135    4574.8988            1 
   11100    1.5360929   -5.3502759    4565.8115            3 
   11200    1.5762797   -5.3741122    4596.9666            3 
   11300    1.5589943   -5.3698932    4596.0817            2 
   11400    1.5795898   -5.3451941    4571.1041            2 
   11500    1.5718844   -5.3499394    4593.2417            1 
   11600    1.5450423   -5.3992387    4586.7508            1 
   11700     1.582621   -5.3789581    4582.1009            2 
   11800    1.5681228   -5.3259107    4592.0062            5 
   11900    1.5412961   -5.3563574    4605.1327            3 
   12000    1.5453685    -5.357544     4567.903            3 
   12100    1.5901447   -5.3609254    4564.1521            2 
   12200    1.5360709   -5.3516147    4601.4736            2 
   12300    1.5478724   -5.4026879    4575.7821            2 
   12400    1.5732231   -5.3962076    4563.2711            2 
   12500    1.5646893   -5.3736762    4575.0157            2 
   12600    1.5716796   -5.3851059    4584.0813            4 
   12700    1.5537129   -5.3421352    4590.6568            3 
   12800    1.5465869   -5.3584995    4587.1033            2 
   12900    1.5583196   -5.3842915    4564.1562            1 
   13000    1.5567366   -5.3773467    4562.0538            1 
   13100    1.5518822   -5.3723661    4593.6055            1 
   13200    1.5585404   -5.3957812    4589.9131            1 
   13300     1.514531    -5.387925    4568.0599            2 
   13400    1.5958601   -5.3953752    4560.1509            3 
   13500    1.5394466   -5.3679028    4563.6301            1 
   13600     1.602417   -5.4197188    4575.4982            1 
   13700    1.5537899    -5.438054    4563.7126            1 
   13800    1.5674979   -5.4104895    4574.0987            2 
   13900    1.5659479   -5.3616421     4599.342            2 
   14000    1.5764333   -5.3585012    4589.1859            1 
   14100    1.5491806   -5.3295898    4589.9586            1 
   14200    1.5574388    -5.356904    4601.4585            1 
   14300     1.534755   -5.3582656    4581.6913            1 
   14400    1.5846752   -5.3703466    4559.9906            3 
   14500    1.5632163   -5.3851351    4582.2671            1 
   14600    1.5440212   -5.4024335    4589.9918            2 
   14700    1.5884156    -5.347685    4567.9732            2 
   14800    1.5977432   -5.3897126    4578.5551            3 
   14900    1.5639678   -5.4404589    4592.9194            1 
   15000    1.5439722   -5.3998738    4573.3179            2 
   15100    1.5912391   -5.3649963    4572.7258            2 
   15200    1.5602136   -5.3686728    4585.8144            2 
   15300    1.5408504   -5.3855797    4593.5026            2 
   15400    1.5821997   -5.3588989    4595.0782            1 
   15500    1.5692822   -5.3926901    4576.6061            2 
   15600    1.5689571   -5.4182887    4566.7859            1 
   15700    1.5720996   -5.3996866    4570.6303            1 
   15800    1.5541049     -5.33204    4603.6012       -1e+20 
   15900    1.5464194   -5.3898054    4589.9933            2 
   16000    1.5698545   -5.3785406    4556.5178            2 
   16100    1.5442653   -5.3823643    4551.7111            2 
   16200    1.5434857   -5.3873425    4574.7713            1 
   16300    1.5692712   -5.4014836    4601.4147            1 
   16400    1.5665423   -5.3890642     4581.115            1 
   16500    1.5981633   -5.3648544    4556.5378            1 
   16600    1.5403321   -5.4042114    4593.4581            1 
   16700    1.5134867   -5.4199403     4572.573            1 
   16800    1.5629843   -5.3936936    4553.6268            3 
   16900    1.5555655   -5.3461989    4579.7335            1 
   17000    1.5686933    -5.366182     4592.337            2 
   17100    1.5414194   -5.3406119    4579.5094            1 
   17200    1.5689688   -5.3641377    4567.0559            1 
   17300    1.5524961   -5.4050933    4561.1119            3 
   17400    1.5368171    -5.409068    4580.0801            1 
   17500    1.5590401   -5.3489588    4579.7565            2 
   17600     1.595312   -5.3384565     4578.581            1 
   17700    1.5419676   -5.3419514    4650.3834            2 
   17800    1.5694481   -5.3840224    4568.0243            3 
   17900    1.5590326   -5.3868241    4571.0522            7 
   18000    1.5800549   -5.4001368    4588.0857            2 
   18100    1.5520333   -5.3490652    4596.2439            1 
   18200    1.5639702   -5.3756005    4584.5491            3 
   18300    1.5573751    -5.378634    4573.6607            1 
   18400     1.570839   -5.4173533     4579.075            2 
   18500    1.5459724   -5.3647112    4583.5958            2 
   18600     1.600794    -5.368509    4583.2778            2 
   18700     1.543357    -5.363094    4595.5822            1 
   18800    1.5618155   -5.3655894    4586.9146            2 
   18900    1.5744134   -5.3534824    4574.9053            2 
   19000    1.5128423   -5.3380349    4575.8145            1 
   19100     1.562817   -5.3685631    4602.4427            3 
   19200    1.5701582   -5.3618288    4579.3427            2 
   19300    1.5594123   -5.3745279    4556.6767            1 
   19400    1.5726186    -5.345711    4590.6202            2 
   19500    1.5705017   -5.3824121    4605.6893            1 
   19600    1.5424411   -5.3990941    4595.3913            3 
   19700    1.5852934   -5.3845605    4561.3743            1 
   19800    1.5862443   -5.3548301    4589.3701            1 
   19900    1.5487333    -5.329977    4590.2829            5 
   20000    1.5451238   -5.3583993    4592.0227            1 
   20100    1.5993853   -5.3647991    4599.1633            1 
   20200    1.5472847   -5.3492402    4580.8269            2 
   20300    1.5616461   -5.3507154    4566.9828            3 
   20400    1.5326977   -5.3601046    4579.5526            1 
   20500    1.5670897   -5.3650476    4595.2863            1 
   20600    1.5307418    -5.359055    4590.9836            2 
   20700    1.5900588   -5.3613735    4581.7013            2 
   20800    1.5462825   -5.3618412    4572.8955            2 
   20900    1.5584643   -5.4243539    4562.2535            2 
   21000    1.5883511   -5.3960271    4555.0061            2 
   21100    1.5415481   -5.3691001    4586.1302            1 
   21200    1.5634893   -5.3759438    4598.8471            4 
   21300    1.5719987   -5.3643873    4569.6604            1 
   21400    1.5467513   -5.3414795    4563.7511            3 
   21500    1.5521063   -5.3236206    4578.9016            1 
   21600    1.5222649   -5.3838947    4578.5501            1 
   21700    1.5438843   -5.3761011    4565.8432            2 
   21800    1.5824489   -5.3631947    4591.4496            1 
   21900    1.5836343   -5.3969535    4596.0598            1 
   22000      1.52624   -5.4102029     4577.573            2 
   22100    1.5651226     -5.38808    4557.0498            2 
   22200    1.5601233   -5.3430758    4592.3584            2 
   22300    1.5868214   -5.3637431    4584.3658            2 
   22400    1.5684383   -5.3887956    4599.7199            1 
   22500    1.5622298   -5.4414058    4587.8597            1 
   22600    1.5418321   -5.3565834    4582.9719            2 
   22700    1.5793516   -5.3426522    4567.4561            2 
   22800     1.549016   -5.3787478      4581.64            1 
   22900    1.5475806   -5.3672538    4576.7917            2 
   23000    1.5377485    -5.407265    4558.0593            2 
   23100    1.5768278   -5.4112646    4568.0078            1 
   23200    1.5707092   -5.3737816    4592.0561            3 
   23300    1.5520008   -5.3589963    4567.3093            2 
   23400    1.5741188   -5.3852314    4562.7158            2 
   23500    1.5337153   -5.3497727    4579.5173            2 
   23600    1.5931458   -5.3798399    4599.8979            2 
   23700    1.5699589   -5.3803479    4584.6731            1 
   23800    1.5340552   -5.3775218    4572.5183            2 
   23900    1.5680869   -5.3570538    4574.5741            2 
   24000    1.5675422   -5.2761318    4586.0124            2 
   24100    1.5460441   -5.3266733    4596.6123            3 
   24200    1.5644137   -5.3870415    4577.2653            2 
   24300    1.5474557   -5.3884835    4553.7274            2 
   24400    1.5650989   -5.3459494    4562.5412            1 
   24500    1.5345196    -5.362824    4611.7886            1 
   24600    1.5816978   -5.3926276    4593.8671            2 
   24700    1.5807916   -5.3811201    4547.2827            1 
   24800    1.5471582   -5.3713607     4578.446            2 
   24900    1.5646872   -5.3807177    4585.1109            2 
   25000    1.5629366   -5.3639797    4588.0425            3 
   25100    1.5676244   -5.3833881    4614.8734            3 
   25200    1.5559995    -5.386554    4579.1251            1 
   25300    1.5780783    -5.415267    4560.3165            1 
   25400    1.5608181   -5.3499828    4581.7933            2 
   25500    1.5486932   -5.3626219    4578.4768            1 
   25600    1.5839013   -5.3731502    4573.5452            2 
   25700    1.5409126   -5.3706452     4583.882            1 
   25800    1.5430343   -5.3840917    4573.2714            3 
   25900    1.5535843   -5.3297219    4580.9334            2 
   26000    1.5448041   -5.3390406    4582.5507            2 
   26100    1.5260648   -5.3758575     4582.254            2 
   26200    1.5910416   -5.3917887    4589.1753            3 
   26300    1.5497887   -5.3592064    4572.0019            2 
   26400    1.5471972   -5.3837347     4556.995            3 
   26500    1.5096261   -5.3820134    4549.9452            1 
   26600    1.5543828   -5.3729756    4586.8393            3 
   26700    1.5597147   -5.3544167    4598.3318            1 
   26800    1.5458646   -5.3800191    4569.1938            2 
   26900     1.581531    -5.400334     4578.966            4 
   27000    1.5598431   -5.3517423    4613.6122            1 
   27100    1.5825748   -5.3738241    4586.7598            1 
   27200    1.5627767   -5.3373318    4568.9377            1 
   27300    1.5223521   -5.3468794    4585.6585            1 
   27400    1.5428798   -5.3396032     4572.909            1 
   27500    1.5753421   -5.3220972     4598.292            2 
   27600    1.5417005   -5.3343634    4599.3799            2 
   27700    1.5527926   -5.3704533    4584.3528            5 
   27800    1.5569559   -5.3616952    4577.0451            2 
   27900    1.6016992   -5.3649953    4601.6705            3 
   28000    1.5543328   -5.3378833     4590.757            2 
   28100    1.5278583   -5.3491052    4583.0775            2 
   28200    1.5723681   -5.3522372    4570.9508            2 
   28300    1.5737298   -5.3755522    4577.8923            1 
   28400    1.5224644    -5.392427    4574.2466            1 
   28500    1.5479943   -5.4252765    4551.0837            1 
   28600    1.5993552   -5.4241529    4544.0003            2 
   28700    1.5168116   -5.4009103    4568.8696            2 
   28800    1.5477765   -5.3926983    4575.8774            2 
   28900    1.5753446   -5.3783196    4567.9785            1 
   29000     1.579457   -5.3790074    4565.4866            1 
   29100    1.5038917   -5.3793534      4602.48            1 
   29200    1.5582589   -5.3754363    4593.2355            2 
   29300    1.5759314   -5.3286571    4575.6353            3 
   29400     1.548711   -5.3869756    4575.2469            2 
   29500    1.5450519   -5.4107171    4561.8578            3 
   29600    1.5860707    -5.418489    4564.5998            2 
   29700    1.5420952   -5.4208311    4571.7433            2 
   29800     1.557099   -5.3915359    4573.9911            2 
   29900    1.5847765   -5.3775236    4601.5464            3 
   30000    1.5589046    -5.344984    4598.8404            1 
   30100     1.574601   -5.3450298    4580.0996            2 
   30200    1.5480863    -5.385379    4569.9316            1 
   30300    1.5399499   -5.3783267    4563.8815            3 
   30400    1.5505865    -5.372884    4569.7045            4 
   30500    1.5682297   -5.3474292    4591.5408            1 
   30600    1.5337812   -5.3611217    4580.1691            1 
   30700     1.582213    -5.383549    4573.1311            1 
   30800    1.5331835   -5.4098359    4566.5426            2 
   30900    1.5371115   -5.3910433    4576.0103            2 
   31000    1.5741279   -5.3809572    4573.0037            1 
   31100    1.5708731   -5.3626308    4578.7011            2 
   31200    1.5581166   -5.3485872    4606.2707            1 
   31300    1.5410701   -5.3575968    4575.4635            1 
   31400    1.5891631   -5.3474923    4560.7075            1 
   31500    1.5488825   -5.3395324    4590.9117            1 
   31600    1.5452997   -5.3887711    4598.0965            2 
   31700    1.5388827    -5.398683    4569.9661            3 
   31800    1.5573168    -5.343536    4578.8698            1 
   31900    1.5453575   -5.3486243    4577.8918            1 
   32000    1.5295158   -5.4130533    4564.7442            2 
   32100    1.5428985   -5.3831026    4588.8646            2 
   32200    1.5553696   -5.3688005    4584.3329            2 
   32300    1.6226084   -5.3632857    4569.7152            2 
   32400    1.5502037   -5.3611611    4579.1135            2 
   32500    1.5351867   -5.3896964    4576.3378            2 
   32600    1.5740433   -5.4063071    4557.5755            2 
   32700    1.5756932   -5.3625078    4569.5866            3 
   32800    1.5539685   -5.3466026    4594.2299            1 
   32900    1.5270102   -5.3596229     4576.773            2 
   33000    1.5910285   -5.3416278    4579.1014            1 
   33100    1.5522868   -5.3336274    4589.0905            2 
   33200    1.5637793   -5.3554103    4576.1888            2 
   33300    1.5339375   -5.3596589    4578.5897            2 
   33400    1.5428282   -5.3394676    4596.9253            3 
   33500    1.5627595   -5.3246424    4594.8898            2 
   33600    1.5935619   -5.3795597    4585.4326            1 
   33700    1.5617806   -5.3819155    4574.2195            2 
   33800    1.5500472    -5.402646    4584.2098            2 
   33900    1.5734467   -5.3744545    4598.7229            2 
   34000    1.5614032   -5.3509405     4585.874            1 
   34100    1.5514278   -5.3989036    4560.8881            2 
   34200    1.5718491   -5.3938527    4583.0688            2 
   34300    1.5655248   -5.3576319    4574.7273            1 
   34400    1.5792379   -5.4119903    4543.5497            1 
   34500    1.5315898   -5.3742188    4570.6166            1 
   34600    1.5544499   -5.3868311    4620.6151            4 
   34700      1.59707   -5.3675092    4577.4164            3 
   34800    1.5654337   -5.3771336    4578.1366            1 
   34900    1.5403471   -5.4287523      4573.89            2 
   35000    1.5784904   -5.3963184    4576.1572            2 
   35100    1.5553505   -5.3287158    4589.8313            1 
   35200    1.5697346   -5.3729929    4597.3466            1 
   35300    1.5837716   -5.4125416    4578.6562            2 
   35400    1.5285382   -5.3802441    4589.4673            1 
   35500    1.5489839   -5.3388386    4599.0864            3 
   35600    1.5762262   -5.3014774    4603.0816            2 
   35700    1.5653264   -5.3448706    4590.5506            2 
   35800    1.5727683   -5.3983229    4588.0692            2 
   35900     1.514065   -5.4035513    4598.7865            1 
   36000     1.568486   -5.3616452    4572.9383            1 
   36100    1.5642172   -5.3387011    4583.2601            2 
   36200    1.5732107    -5.325952     4609.704            3 
   36300     1.547428    -5.342232     4604.914            1 
   36400    1.5733123   -5.3527451     4599.865            2 
   36500    1.5821375   -5.3280577    4612.5502            1 
   36600    1.5717828   -5.3563956    4594.8576            1 
   36700    1.5393216   -5.3444385     4587.453            2 
   36800    1.5423875   -5.3651798    4556.2805            1 
   36900    1.5615325   -5.3947738     4547.998            2 
   37000    1.5643249   -5.3872961    4598.2688            5 
   37100    1.5611455    -5.391706    4606.4065            2 
   37200     1.552183   -5.3673209    4571.3995            1 
   37300    1.5977041   -5.3620997    4573.2408            1 
   37400    1.5395882    -5.377237    4576.7934            1 
   37500    1.5676728   -5.3888172    4565.7308            1 
   37600    1.5401828   -5.3704998     4559.448            4 
   37700    1.5743933   -5.3893183    4591.6281            1 
   37800    1.5751123    -5.390649    4582.2421            2 
   37900    1.5778905   -5.4220188    4557.9834            2 
   38000    1.5747288   -5.4126992    4577.7169            2 
   38100    1.5440626   -5.3721517    4606.4727            2 
   38200    1.5830946   -5.3147072    4592.3605            2 
   38300     1.602921   -5.3202996    4593.4132            2 
   38400    1.5699934   -5.3613267    4594.6664            2 
   38500    1.5221625   -5.3632604    4592.2802            1 
   38600     1.551431   -5.3719719    4564.0918            1 
   38700    1.5804384   -5.3548492     4551.495            2 
   38800    1.5488675   -5.3940248    4571.7164            1 
   38900    1.5806835   -5.3836073    4590.0029            1 
   39000    1.5297371   -5.3753774    4570.5578            3 
   39100    1.5616982   -5.3769073    4562.5109            2 
   39200    1.5940857   -5.3859845    4566.8039            3 
   39300    1.5325192   -5.3660312    4580.2967            1 
   39400    1.5472328   -5.3610527    4590.3586            4 
   39500    1.5744022   -5.3510187    4549.4856            3 
   39600     1.534488   -5.3669511    4579.1958            1 
   39700    1.5589724   -5.3820668    4609.6401            1 
   39800    1.5339878    -5.342652    4596.0598            2 
   39900    1.5553239   -5.4057491    4547.9723            2 
   40000    1.5462774   -5.3896638     4559.914            1 
   40100    1.5649923   -5.3943555    4581.5079            1 
   40200     1.550787   -5.3725659    4583.0099            2 
   40300     1.582429   -5.3626993    4572.8277            1 
   40400     1.592926   -5.3334248    4591.8304            1 
   40500    1.5744957   -5.4110455    4599.8716            5 
   40600    1.5615404   -5.4048868    4587.5395            5 
   40700    1.5652959    -5.391528    4569.6081            4 
   40800    1.5712974   -5.3772996    4578.4698            3 
   40900    1.5662186   -5.3757624    4593.8513            1 
   41000    1.5581084   -5.3672632    4602.5674            2 
   41100    1.5590738   -5.3312787    4590.4024            1 
   41200    1.5621141   -5.3236661    4576.0937            3 
   41300    1.5671454   -5.3572844    4593.0651            1 
   41400    1.5297604   -5.3316078    4593.5796            1 
   41500    1.5622084   -5.3731118    4571.6256            2 
   41600     1.534953   -5.3768545    4555.5838            2 
   41700    1.5650741   -5.3917151    4591.7351            4 
   41800    1.5601018   -5.3478539    4600.1363            2 
   41900    1.5545105   -5.3768217    4562.2525            3 
   42000    1.5671276     -5.39857     4552.218            3 
   42100     1.555316   -5.4033713    4588.2027            2 
   42200    1.5582986   -5.3755416    4590.6156            2 
   42300    1.5766526     -5.35768    4561.5055            1 
   42400    1.5929368    -5.343373    4598.2427            1 
   42500    1.5340939   -5.3471147    4582.0163            1 
   42600    1.5407893   -5.3782978    4574.3184            2 
   42700    1.5535978   -5.3695939    4558.9279            3 
   42800    1.5680822   -5.3396777    4572.0307            1 
   42900    1.5515199   -5.3516341    4596.1377            1 
   43000    1.5310856   -5.3765173    4570.7675            2 
   43100    1.5685072   -5.3677771    4554.5054            2 
   43200    1.5487478   -5.3639677    4584.0317            2 
   43300    1.5508414    -5.410105    4601.3839            1 
   43400    1.5206893   -5.3768688    4550.2724            1 
   43500    1.5628757   -5.3408978    4569.6598            1 
   43600    1.5981975   -5.3858257    4598.7179            2 
   43700    1.5550536   -5.4038277    4603.6411            3 
   43800    1.5646368   -5.3601088    4596.4707            1 
   43900    1.5804602   -5.3584224    4583.1166            2 
   44000    1.5708589   -5.3734584    4598.2649            2 
   44100    1.5447663   -5.3453795    4581.3766            3 
   44200    1.5611565     -5.34775    4574.7638            2 
   44300    1.5973248   -5.3493501    4615.1207            1 
   44400    1.5560513   -5.3785193    4599.7032            2 
   44500    1.5759247   -5.3522183    4585.7567            1 
   44600    1.5448475    -5.377006    4566.9711            1 
   44700    1.5711219   -5.4006556    4582.2963            1 
   44800    1.5798984   -5.3965563    4618.1387            4 
   44900     1.598538   -5.3490688    4612.2306            1 
   45000    1.5599822   -5.3410211    4565.4306            2 
   45100    1.5599733   -5.4111941    4576.6306            2 
   45200    1.5823874   -5.3912352    4589.3682            2 
   45300     1.583785   -5.3397571    4586.3509            1 
   45400    1.5443389    -5.345295    4576.5428            2 
   45500    1.5702266   -5.3920322     4588.688            3 
   45600    1.5681328   -5.3333122    4593.1046            1 
   45700    1.5424579   -5.3641325    4565.2019            2 
   45800    1.5654923   -5.3788902    4580.8362            2 
   45900    1.5860735   -5.3889258    4604.5741            2 
   46000    1.5790394   -5.4484613    4571.7258            2 
   46100    1.5498488   -5.4039552    4558.3419            1 
   46200    1.5809842   -5.3669312    4573.3898            4 
   46300    1.5552215    -5.395213    4604.9192            1 
   46400    1.5958833   -5.3993365    4604.0918            1 
   46500    1.5785748   -5.3973134    4570.2066            2 
   46600    1.5717582   -5.3668862    4557.6203            2 
   46700    1.5255224   -5.3875295    4559.0706            2 
   46800    1.5543542   -5.4122239    4583.2962            1 
   46900    1.5773113   -5.3847262    4565.8028            2 
   47000    1.5633227   -5.4093312    4558.4232            3 
   47100    1.5762324   -5.3819377    4584.8709            2 
   47200    1.5566924   -5.3986534     4585.165            2 
   47300    1.5552624   -5.3891168    4558.7837            4 
   47400    1.5462305   -5.3163499    4563.4217            1 
   47500    1.5734546   -5.3828003    4590.7912            3 
   47600    1.5347976   -5.4007952    4586.9667            3 
   47700    1.5408918   -5.3905267    4559.8177            1 
   47800    1.5664797   -5.3473021    4556.7211            1 
   47900    1.5931931   -5.3925763    4591.8611            3 
   48000     1.535232   -5.3994002    4588.8469            1 
   48100    1.5569354   -5.3655329    4574.9415            2 
   48200    1.6048192   -5.3477225    4597.0226            1 
   48300    1.5716821   -5.3681123    4571.3323            2 
   48400    1.5510489   -5.3636166    4571.5416            1 
   48500    1.6002616   -5.3560165    4598.8647            2 
   48600    1.5586465   -5.3773901    4592.4955            1 
   48700    1.5459754   -5.4038372    4582.5858            1 
   48800    1.5896486   -5.3715006    4570.5653            1 
   48900    1.5776347   -5.4068163    4583.2491            1 
   49000     1.513356   -5.3919077    4589.9674            2 
   49100    1.5786173   -5.3729017    4590.8106            2 
   49200    1.5566982   -5.3696204    4548.1511            4 
   49300    1.5600388    -5.371817    4560.2352            1 
   49400    1.5282602   -5.3516091    4589.1386            3 
   49500    1.5770464   -5.3517278    4593.2971            2 
   49600    1.5658493   -5.3678847    4578.8341            1 
   49700    1.5324874   -5.3866139    4582.5257            2 
   49800    1.5765804   -5.3809717    4595.3861            2 
   49900    1.5696935   -5.3541117    4587.0058            1 
   50000    1.5696178   -5.3386013    4605.9626            1 
   50100    1.5781747   -5.3889425    4571.0812            1 
   50200    1.5722128   -5.3883804    4579.4962            1 
   50300    1.5303464   -5.3573055    4617.4768            1 
   50400     1.557368    -5.368774    4572.3159            1 
   50500    1.5661993   -5.3505135    4562.0259            2 
   50600    1.5418832   -5.3484295    4582.7661            2 
   50700     1.535531   -5.3984185    4577.9942            2 
   50800    1.5519141   -5.3808646    4565.6676            1 
   50900    1.5613913   -5.3845153    4569.5251            3 
   51000    1.5374362   -5.4062818    4548.1267            3 
   51100    1.5585658   -5.3885648    4557.1857            1 
   51200    1.5555782   -5.3539914    4579.1088            3 
   51300    1.5784915   -5.3329799    4597.1608            2 
   51400    1.5828049   -5.3429077    4621.5175            2 
   51500    1.5643314   -5.3681242     4587.434            1 
   51600    1.5418913   -5.3754771    4571.9789            1 
   51700    1.5430612   -5.3975585    4553.6792            2 
   51800    1.5528181   -5.4128302     4579.387            1 
   51900    1.5496249   -5.3542248    4580.4849            2 
   52000    1.5988461   -5.3623744    4573.0753            2 
   52100    1.5590774   -5.4103369    4585.4246            3 
   52200    1.5578638    -5.370868    4577.6214            1 
   52300    1.5851384   -5.3650385    4571.1221            2 
   52400    1.5448336   -5.3737264    4581.4446            1 
   52500    1.5143675   -5.3961061    4572.1578            1 
   52600    1.5730835   -5.3923398    4575.1171            2 
   52700     1.555689   -5.3895556    4568.4646            1 
   52800    1.5829321   -5.3917976    4592.3448            4 
   52900    1.5714067   -5.4130504    4579.0231            2 
   53000    1.5792838   -5.3943826    4577.8475            1 
   53100    1.5335023   -5.3950742    4567.6994            2 
   53200    1.5581882   -5.4316488    4567.9853            3 
   53300     1.567477    -5.365057    4579.0585            2 
   53400    1.5546388   -5.3538352    4581.1799            2 
   53500    1.6237524   -5.3581031    4578.4142            3 
   53600    1.5570335    -5.365908    4591.4196            1 
   53700    1.5083016   -5.3599566    4605.2244            4 
   53800    1.6034162   -5.3800037    4569.1895            2 
   53900    1.5680182    -5.374629    4561.9597            4 
   54000    1.5457606   -5.4178985    4561.4554            3 
   54100    1.5127866   -5.4339925    4559.2604            2 
   54200    1.5402436    -5.368772    4564.2871            1 
   54300     1.574678   -5.3631154    4561.9212            4 
   54400     1.519028   -5.3659305    4558.6197            1 
   54500    1.5706822   -5.4066426    4583.8329            2 
   54600    1.5483225   -5.3764873    4565.8123            2 
   54700    1.5831919   -5.4133086    4561.6065            2 
   54800    1.5630161   -5.3806804    4581.7121            2 
   54900    1.5561264    -5.346521    4598.3597            1 
   55000    1.5712987   -5.3693103    4561.5573            1 
   55100    1.5462672   -5.3667602    4576.9742            2 
   55200    1.5513459   -5.3654726     4589.443            1 
   55300    1.5897253   -5.3499194    4592.4838            2 
   55400     1.523476   -5.3342882    4592.0616            1 
   55500    1.5817818   -5.3663385    4587.4263            2 
   55600    1.5285177    -5.376111    4577.6941            1 
   55700    1.5666592   -5.3707844    4570.2071            2 
   55800    1.5637083   -5.3142255    4577.3035            2 
   55900    1.5613808   -5.3506422    4589.0023            2 
   56000    1.5428957   -5.3490014    4596.2308            1 
   56100    1.5537587   -5.3713544    4576.8256            2 
   56200    1.5708868   -5.3755019     4580.871            1 
   56300    1.5268812   -5.3466914    4599.4384            1 
   56400    1.5875527   -5.3436527    4587.3149            2 
   56500    1.5771727   -5.3406006    4564.0621            2 
   56600    1.5270264    -5.394583    4578.7803            2 
   56700    1.5749686    -5.398805    4595.1432            3 
   56800    1.5888742   -5.3728817     4589.325            1 
   56900    1.5669444   -5.3779993    4584.3372            2 
   57000    1.5598037   -5.3915654    4580.8621            2 
   57100    1.5605335   -5.4483625    4542.2007            1 
   57200    1.5624361   -5.3958387    4560.2528            2 
   57300    1.5585282   -5.3750499    4591.5805            2 
   57400    1.5449789   -5.3429151      4595.88            1 
   57500     1.571563   -5.3245752    4585.6481            1 
   57600     1.544502   -5.3288339    4585.2327            2 
   57700    1.5595847   -5.3961162    4599.2004            1 
   57800    1.5788367   -5.3965052    4587.3901            2 
   57900    1.5749171   -5.4194111    4544.6277            2 
   58000    1.5397084   -5.3690568    4589.6657            1 
   58100    1.5733782   -5.3688519    4588.3052            2 
   58200    1.5418378   -5.3912677    4567.2312            2 
   58300    1.5381122   -5.3563231    4559.2717            1 
   58400    1.5712689   -5.3580934    4596.4631            2 
   58500    1.5333193   -5.3511398    4592.0519            1 
   58600    1.5566487   -5.3621251    4586.5578            2 
   58700    1.5620865    -5.352571    4580.2093            1 
   58800    1.5584384   -5.3766199    4592.4162            1 
   58900    1.5328897   -5.3891869    4594.0795            2 
   59000     1.592514   -5.3794319    4552.2412            3 
   59100    1.5547558   -5.3961004    4560.2685            1 
   59200    1.5762327   -5.3649154     4604.367            2 
   59300    1.5967818   -5.4016308    4582.4435            3 
   59400    1.5286175   -5.3574458    4583.1084            1 
   59500    1.5702432   -5.3507961    4573.5566            1 
   59600    1.5611455   -5.3344722    4574.2949            2 
   59700    1.5912507   -5.3692395    4604.6234            3 
   59800    1.5667953   -5.3958927    4580.5301            1 
   59900    1.5565227   -5.3867176    4576.1015            2 
   60000    1.5799352   -5.3774889    4590.5231            1 
   60100    1.5403841     -5.36765    4551.5724            1 
   60200    1.5575474   -5.3917759    4561.6626            3 
   60300    1.5900183   -5.3912391     4592.138            3 
   60400    1.5482805   -5.3725733    4600.4542            3 
   60500     1.574894   -5.3769569    4573.1795            3 
   60600    1.5820628   -5.3773185    4558.3321            2 
   60700    1.5665267   -5.4137105    4576.7806            3 
   60800    1.5748427   -5.3821533    4594.4367            2 
   60900    1.5567972   -5.3381713    4609.7036            2 
   61000    1.5640015   -5.3220748    4588.5735            2 
   61100    1.5472821   -5.3458522    4552.9056            1 
   61200     1.545675    -5.365691    4577.5302            2 
   61300    1.5535468   -5.3582029    4589.4492            1 
   61400    1.5720017   -5.3527378    4555.2171            4 
   61500    1.5593016   -5.3705795    4577.4168            1 
   61600    1.5703536    -5.390107    4579.5021            2 
   61700    1.5218399   -5.3752552    4563.2974            2 
   61800    1.5800951   -5.3921867     4572.769            2 
   61900    1.5896588   -5.3661008    4567.7587            2 
   62000    1.5469705   -5.3747168    4585.2149            2 
   62100    1.5443741   -5.3611613    4594.2105            2 
   62200    1.5684613   -5.3432678    4588.0761            1 
   62300    1.5526699   -5.3621452    4575.1751            3 
   62400    1.5466394   -5.3343597    4590.8072            1 
   62500    1.5772615   -5.3455606     4617.167            2 
   62600    1.5619671   -5.3809824    4579.9491            2 
   62700    1.5663859    -5.352233    4572.1415            1 
   62800     1.562769   -5.3271035    4605.8317            2 
   62900    1.5577322   -5.3485133    4608.3034            1 
   63000    1.5824281   -5.3744272    4568.8543            1 
   63100    1.5342289   -5.3241434    4580.3948            2 
   63200    1.5552453   -5.3399961    4595.0009            1 
   63300    1.5413353    -5.378949    4582.5011            2 
   63400    1.6067529   -5.3819223    4574.7179            2 
   63500    1.5627264   -5.3825547    4568.9193            1 
   63600    1.5331489   -5.3762457    4588.2995            2 
   63700     1.584581    -5.372638    4602.5743            3 
   63800    1.5610009    -5.381776    4592.0336            2 
   63900    1.5576911   -5.4088675    4577.8963            2 
   64000    1.5416216   -5.3433782    4568.6576            3 
   64100    1.5863701   -5.3398811    4577.4724            4 
   64200    1.5502423   -5.3772528    4603.7749            2 
   64300    1.5501816   -5.3911019    4573.7061            1 
   64400    1.5481177   -5.3460992    4570.8619            2 
   64500    1.5895585   -5.4039759    4571.9106            1 
   64600    1.5325706   -5.3842855    4569.9008            1 
   64700    1.5493613   -5.4551795    4551.9694            2 
   64800    1.5555647   -5.4252972    4555.8582            2 
   64900    1.5541332   -5.3839107    4578.8688            2 
   65000    1.5697011    -5.349375    4588.9385            2 
   65100    1.5616588   -5.3693475    4599.1488            2 
   65200    1.5449373   -5.3957842    4584.3247            1 
   65300     1.597976   -5.3690988    4568.5236            3 
   65400    1.5643757   -5.3592432    4591.7803            1 
   65500    1.5545659   -5.3603069    4582.5986            2 
   65600    1.5491309   -5.3716529    4575.1156            1 
   65700    1.5575885   -5.3558999    4566.8164            1 
   65800    1.5741851   -5.3625198    4605.4318            2 
   65900    1.5376723   -5.3120619    4595.9341            4 
   66000    1.5415052   -5.3097911    4577.1598            1 
   66100    1.5531949   -5.3827517    4549.6255            1 
   66200    1.5098088   -5.3606917    4582.9805            2 
   66300    1.5744025   -5.3654696    4590.4442            1 
   66400    1.5625796   -5.3295533     4602.021            1 
   66500    1.5561687   -5.3675368    4587.4245            2 
   66600    1.5748298   -5.4073791    4568.7982            2 
   66700    1.5321071    -5.356882    4576.6767            3 
   66800    1.5502978   -5.3322606    4595.0497            4 
   66900    1.5560334   -5.3900124    4581.0849            1 
   67000    1.5389735   -5.3814116    4575.0003            1 
   67100    1.5651528   -5.3449424    4580.0536            2 
   67200    1.5605479   -5.4094921    4573.5139            1 
   67300    1.5543844   -5.3708238    4596.9567            2 
   67400    1.5731637   -5.3833873    4586.5769            2 
   67500     1.563967    -5.380871    4548.0103            2 
   67600    1.5200335   -5.3718487    4547.0637            2 
   67700    1.5281158    -5.355223    4582.5173            3 
   67800    1.5853688   -5.3953944    4589.2085            2 
   67900    1.5459338   -5.3928088    4567.2156            2 
   68000    1.5385106   -5.4118394    4569.6392            1 
   68100    1.5535116   -5.3552203    4578.8325            1 
   68200    1.5676139   -5.3296977    4588.9388            1 
   68300    1.5951091   -5.3095773    4618.6577            2 
   68400     1.528434   -5.3014301    4594.6423            2 
   68500    1.5772834   -5.3309067     4576.832            1 
   68600    1.5453181   -5.3742927    4573.3651            2 
   68700    1.5273241   -5.3839953     4595.449            2 
   68800    1.5615271     -5.35588    4564.3351            2 
   68900    1.5532392   -5.3743279    4548.7191            2 
   69000    1.5675816   -5.3702702    4581.4051            1 
   69100    1.5251274   -5.3871925      4574.98            2 
   69200    1.5457083   -5.3765614     4566.989            1 
   69300    1.5415307   -5.3291015    4555.6772            1 
   69400    1.5880844   -5.3292896    4591.1366            4 
   69500    1.5543216   -5.3160986    4612.6407            2 
   69600     1.551886   -5.3580425    4590.9497            2 
   69700    1.5276534   -5.3459417    4570.1532            1 
   69800    1.5873724   -5.3389098    4585.9452            1 
   69900    1.5814986   -5.3175323    4583.7133            1 
   70000     1.556011   -5.3811164    4580.0585            2 
   70100    1.5330307   -5.3950607    4580.9946            1 
   70200    1.5499481    -5.319241    4583.4871            1 
   70300    1.5640541      -5.2723    4583.8552            2 
   70400    1.5276568   -5.3415699    4602.1899            3 
   70500    1.5674477   -5.3810673    4588.5911            1 
   70600    1.5189042   -5.3741038    4559.1435            2 
   70700    1.5652057   -5.3624841         4575            1 
   70800    1.5561846    -5.366918    4590.3904            1 
   70900    1.5693181   -5.4303366    4587.4657            2 
   71000     1.561839   -5.3948912    4568.4164            3 
   71100     1.606743   -5.3566158    4585.9167            2 
   71200    1.5796297    -5.353078    4577.2904            2 
   71300    1.5555928   -5.3803489     4595.652            1 
   71400    1.5173687    -5.385197    4595.9958            2 
   71500    1.5635732   -5.3802143    4550.5729            2 
   71600    1.6128644   -5.3668801    4559.3727            1 
   71700    1.5408148     -5.38809    4582.9158            2 
   71800    1.5797433   -5.3817639    4591.2756            2 
   71900    1.5545159   -5.3875347    4585.1595            3 
   72000    1.5630429   -5.3975439    4572.5211            3 
   72100    1.5570666   -5.3477301    4577.6636            2 
   72200    1.5938056   -5.3636578    4599.4903            2 
   72300     1.561064   -5.3919892    4597.4044            4 
   72400     1.563688   -5.3561719    4579.2703            1 
   72500    1.5718431   -5.3365559    4595.4965            2 
   72600    1.5629316   -5.3576471    4592.8289            2 
   72700    1.5557988   -5.3522664    4578.3919            2 
   72800    1.5474303   -5.3348885    4597.6836            3 
   72900    1.5749628   -5.3680273    4608.2196            3 
   73000     1.541754   -5.3615412    4568.3346            3 
   73100    1.5680181   -5.3306484    4587.3519            1 
   73200    1.5825068   -5.3532404    4612.6931            1 
   73300    1.5386355   -5.3582343    4590.1097            2 
   73400    1.5830115   -5.3806269    4584.3756            3 
   73500    1.5529576   -5.3972888    4585.4765            2 
   73600    1.5611192   -5.3986852    4580.5536            3 
   73700    1.5885779   -5.3664194    4580.6928            2 
   73800    1.5288122   -5.3450924    4574.8426            4 
   73900    1.5417253    -5.389357    4571.3788            1 
   74000    1.5588854   -5.3648988    4559.5408            3 
   74100      1.58895   -5.3674002    4594.3518            1 
   74200    1.5505598   -5.3765545    4584.9931            3 
   74300    1.5738391    -5.350597    4569.2181            2 
   74400    1.6162643   -5.3438296    4599.8569            1 
   74500    1.5688334   -5.3569346    4594.8013            3 
   74600    1.5668222   -5.3953955    4585.7399            1 
   74700    1.5199434   -5.3843695    4572.5885            2 
   74800    1.5929277   -5.4059723    4566.2076            2 
   74900    1.5419379   -5.3651989    4586.1466            1 
   75000    1.5971655   -5.3310024    4584.3364            2 
   75100    1.5742647   -5.3724895    4565.0965            3 
   75200    1.5394446    -5.392482    4594.9351            1 
   75300    1.5804911    -5.378077    4599.0904            2 
   75400    1.5626863   -5.3744861     4571.284            1 
   75500    1.5578356   -5.3466366    4585.3289            2 
   75600    1.5658344   -5.3653958    4589.0498            3 
   75700    1.5522029    -5.346774    4575.3734            2 
   75800    1.5389301   -5.3594631     4585.965            3 
   75900    1.6030927   -5.3894744    4595.9664            2 
   76000    1.5372432   -5.3803223    4568.5402            2 
   76100    1.5312872   -5.3688927    4588.3918            4 
   76200    1.5688448   -5.3597888    4574.0447            2 
   76300     1.566816    -5.326209    4590.8017            2 
   76400    1.5716002   -5.3818855    4612.6123            2 
   76500    1.5517843   -5.3732062    4596.8552            1 
   76600    1.5732803   -5.3519163    4565.4037            4 
   76700     1.593341   -5.3349644     4606.976            2 
   76800    1.5757914   -5.3735506    4600.3115       -1e+20 
   76900    1.5690745   -5.4109111    4579.5859            4 
   77000    1.5743703   -5.3545267     4586.635            1 
   77100     1.562037   -5.3496961    4593.7485            2 
   77200    1.5575468   -5.4024998    4557.8414            1 
   77300    1.5409956   -5.3718362    4569.9386            2 
   77400    1.5644754   -5.3962369    4602.8681            2 
   77500    1.5669598   -5.4080693    4595.6721            1 
   77600    1.6046716    -5.353487    4569.3469            1 
   77700    1.5256216   -5.3387434    4587.3603            1 
   77800     1.531848   -5.3713986    4586.9631            2 
   77900    1.5837043   -5.3524572     4572.284            1 
   78000    1.5551925    -5.333446    4596.7557            1 
   78100    1.5720777    -5.349671    4625.0761            1 
   78200    1.5567279   -5.3692167    4581.2835            3 
   78300     1.560955   -5.3767682    4575.2836            2 
   78400    1.5466746   -5.3871094    4580.6191            1 
   78500    1.5632827   -5.3652767    4575.9323            2 
   78600     1.530176    -5.338045     4580.497            3 
   78700     1.565082   -5.3877703     4558.161            1 
   78800    1.5466696   -5.3626079    4582.1932            1 
   78900    1.5695447   -5.3753436    4605.8246            3 
   79000    1.5766035   -5.4012132    4562.6295            2 
   79100    1.5820147   -5.3890502     4575.292            1 
   79200    1.5277102   -5.3589208    4608.3861            2 
   79300    1.5859981   -5.3725523     4588.833            2 
   79400    1.5527316   -5.3368834    4563.6939            2 
   79500    1.5300448    -5.314961    4601.4527            3 
   79600     1.556387   -5.3352517    4614.0741            1 
   79700    1.5515313   -5.3546522    4570.9093            2 
   79800    1.5446105   -5.3714226    4570.4414            1 
   79900     1.554628   -5.3758204    4583.2834            3 
   80000    1.5797459   -5.3394007    4609.0717            3 
   80100    1.5860633   -5.3639803    4571.4107            2 
   80200    1.5519722   -5.3558749    4582.4859            2 
   80300    1.5552225   -5.3864371    4597.8994            2 
   80400    1.5259024   -5.3785731    4553.3556            2 
   80500    1.5715213   -5.3473812    4567.9868            3 
   80600     1.552907   -5.3516024    4597.7995            1 
   80700    1.5571242   -5.3737647    4597.5721            1 
   80800    1.5262985   -5.3591851    4559.3209            1 
   80900    1.5682192   -5.3340122    4564.1064            1 
   81000    1.5736473   -5.3693676    4590.3324            1 
   81100    1.5210683   -5.3918538     4590.042            1 
   81200    1.5746949   -5.4008971    4577.4815            2 
   81300    1.5269442   -5.4059482     4560.061            2 
   81400      1.55929   -5.4038443    4564.8648            3 
   81500    1.5605047   -5.3592597    4573.2108            1 
   81600    1.5526596   -5.3137929    4593.6132            2 
   81700    1.5916353   -5.3180855    4632.1753            1 
   81800    1.5789892   -5.3308735    4608.0983            2 
   81900    1.5635325   -5.3396098    4589.2492            1 
   82000    1.5380956   -5.3755138    4576.0346            1 
   82100    1.5737632   -5.3594082    4605.0334            2 
   82200      1.56064   -5.3314392    4571.7623            2 
   82300    1.5627734   -5.3364171    4580.2874            1 
   82400    1.5662736   -5.3929135    4583.3569            2 
   82500    1.5697348   -5.4065412    4588.8989            1 
   82600    1.5096346   -5.3485853    4573.8308            2 
   82700    1.5677959   -5.3784036     4565.889            2 
   82800    1.5689247   -5.3656004    4579.8444            2 
   82900    1.5418057   -5.4085811    4575.8414            2 
   83000    1.5799658   -5.4223116    4570.5479            1 
   83100     1.560408   -5.3740289    4572.9759            2 
   83200    1.5908492   -5.3495733    4587.9066            1 
   83300    1.5497916   -5.3500329    4581.0663            2 
   83400    1.5696269   -5.3797697    4594.6338            2 
   83500    1.5462785   -5.3606705    4595.6616            2 
   83600    1.5541425   -5.3418363    4561.0871            2 
   83700    1.5704112   -5.3601742     4587.303            4 
   83800    1.5575412    -5.366866    4562.7016            1 
   83900    1.5332829   -5.3241579    4582.3653            1 
   84000    1.5651653   -5.3681299    4608.7303            1 
   84100    1.5873464   -5.3642266    4582.4819            4 
   84200    1.5633651   -5.3877551    4568.1992            2 
   84300    1.5195044   -5.4145007    4582.3694            2 
   84400    1.5496317   -5.3560625     4577.224            2 
   84500    1.5780083   -5.3242671    4590.1801            2 
   84600    1.5782453   -5.3624977    4606.0291            1 
   84700    1.5372131   -5.3851834    4581.9582            1 
   84800     1.569289    -5.364544     4579.522            5 
   84900    1.5590674   -5.3586174    4570.0906            1 
   85000    1.5396612   -5.3973759    4559.5578            2 
   85100    1.5916748    -5.413542    4593.1194            2 
   85200    1.5361022   -5.3802178    4595.0276            1 
   85300    1.5995181   -5.3388323    4566.7558            1 
   85400    1.5665127   -5.3426272    4587.3857            2 
   85500    1.5676757   -5.4242366    4570.4055            2 
   85600    1.5587377   -5.3848053    4573.6534            2 
   85700    1.5964845   -5.3833785    4596.0233            2 
   85800    1.5439888   -5.3853222    4572.5845            2 
   85900    1.5575081   -5.3454971    4582.7488            2 
   86000    1.5620566   -5.3260522    4596.0298            2 
   86100    1.5658944   -5.3668117    4571.9178            3 
   86200     1.552398    -5.366645    4575.0041            2 
   86300     1.566411   -5.3599135    4602.2113            2 
   86400    1.5856511   -5.3287228     4584.274            2 
   86500    1.5579563   -5.3673129    4581.6432            2 
   86600    1.5198245   -5.3392461     4595.987            1 
   86700    1.5753839   -5.3248795    4585.5311            1 
   86800    1.5718368   -5.3546816    4561.7718            1 
   86900    1.5445237   -5.4120207    4570.3552            1 
   87000    1.5572592   -5.3921724    4594.5577            1 
   87100    1.5783687   -5.3766627    4572.5933            2 
   87200    1.5429852   -5.3737898    4582.1273            1 
   87300    1.5835381   -5.4086124    4591.1109            2 
   87400    1.5586153   -5.3765418    4582.1426            2 
   87500    1.5459948   -5.4093689    4557.9088            1 
   87600     1.560224   -5.3946736    4570.1672            3 
   87700    1.5507881   -5.3615428    4582.4091            2 
   87800    1.5792659    -5.344049    4586.2364            1 
   87900    1.5549232   -5.3718681    4561.8805            1 
   88000    1.5662976   -5.3753495    4599.6001            3 
   88100    1.5322239   -5.3489708    4607.0737            1 
   88200    1.5671711   -5.3876556    4564.7404            1 
   88300    1.5740597   -5.3906839    4548.1274            2 
   88400    1.5222781   -5.3789916    4595.2322            1 
   88500    1.5690309   -5.3821054    4605.4298            2 
   88600    1.5607586   -5.3586133    4582.7099            2 
   88700    1.5655512   -5.3992605    4548.7912            1 
   88800    1.5573823   -5.4342301    4566.2905            4 
   88900    1.5498097   -5.3959123    4573.4023            2 
   89000    1.5360818   -5.3787432    4565.9699            2 
   89100    1.5821226   -5.3681579    4595.7606            1 
   89200    1.5590575   -5.3319143    4611.3088            2 
   89300    1.5903229   -5.3259231    4617.9785            3 
   89400    1.5884378   -5.3558587    4587.3687            1 
   89500    1.5703367   -5.3811086    4579.0167            1 
   89600    1.5342909   -5.4007282    4601.5036            1 
   89700    1.5775604   -5.3993457    4594.6725            1 
   89800    1.5678891   -5.3958959    4555.5262            2 
   89900    1.5891584   -5.3574912    4566.1006            3 
   90000    1.5423739     -5.37783    4591.3632            1 
   90100    1.5622239   -5.3658899    4588.3472            4 
   90200    1.5846057   -5.3307077    4603.6715            2 
   90300    1.5477372   -5.3729903    4600.9093            2 
   90400    1.5385658   -5.3819668      4570.37            1 
   90500      1.58755   -5.3760409    4567.1419            1 
   90600    1.5699477   -5.3917799    4559.4426            3 
   90700    1.5461502   -5.4051653    4565.4688            1 
   90800    1.5593649   -5.3674791    4581.5935            1 
   90900    1.5580697   -5.3853034    4586.8545            2 
   91000    1.5865663   -5.3803899    4598.1246            3 
   91100    1.5698201   -5.3736417    4572.1695            2 
   91200     1.567387    -5.391818    4582.1188            1 
   91300    1.5532265   -5.3696214    4597.8696            2 
   91400    1.5465447   -5.3701358    4571.2331            2 
   91500    1.5769805   -5.4082238    4555.1499            4 
   91600     1.546968   -5.3842552     4587.899            2 
   91700    1.5666015   -5.3781202    4590.9248            3 
   91800    1.5794713   -5.4353082    4549.9467            3 
   91900    1.5388873   -5.3596113    4592.0885            1 
   92000    1.5621224    -5.337579    4586.4848            1 
   92100    1.5419993   -5.3261428    4583.6464            2 
   92200    1.5939433   -5.3576292    4610.4455            1 
   92300    1.5758833   -5.3505259    4597.4523            2 
   92400    1.5667389   -5.3405532    4582.4002            2 
   92500    1.5403584   -5.3701295    4597.7346            4 
   92600    1.5472363   -5.3515183    4621.3089            1 
   92700    1.5741734   -5.2918524    4577.3437            1 
   92800    1.5754685   -5.3346023     4570.989            2 
   92900    1.5273464   -5.3704924      4599.03            1 
   93000    1.5911223   -5.3721061    4598.9195            2 
   93100    1.5713166   -5.3649488    4579.7265            2 
   93200    1.5371513   -5.3888459    4597.9841            2 
   93300    1.5882666   -5.4087279     4579.579            4 
   93400    1.5635368   -5.3831646     4560.044            1 
   93500     1.522919   -5.4192335    4558.8972            3 
   93600    1.5535745   -5.3909685    4587.0908            2 
   93700    1.5591897   -5.3594669     4588.479            1 
   93800     1.588687   -5.3757466    4555.7237            2 
   93900    1.5411676    -5.366644    4563.2344            1 
   94000    1.5553642     -5.40803    4613.6367            1 
   94100    1.5457485    -5.337958    4584.3686            3 
   94200    1.5857665   -5.3785848    4567.2782            5 
   94300    1.5480475   -5.3956081    4568.9926            1 
   94400    1.5705138   -5.3591385    4586.9281            1 
   94500     1.565598   -5.3177184    4602.9672            1 
   94600    1.5479251   -5.3514859    4593.2548            1 
   94700    1.5585455   -5.3728807    4567.3577            2 
   94800     1.589161   -5.3833836    4580.6392            1 
   94900    1.5474748   -5.3545495    4593.6149            1 
   95000    1.5357977   -5.3663624    4594.9647            1 
   95100    1.5851245   -5.3450707    4594.9474            1 
   95200    1.5733067   -5.3288682    4563.6469            1 
   95300     1.535562   -5.3566288    4580.8797            1 
   95400    1.5532981   -5.3792446    4595.2004            1 
   95500     1.566377   -5.3624816    4591.0448            2 
   95600    1.5476436   -5.3547232    4582.1232            1 
   95700    1.5411604   -5.3854283    4569.9949            3 
   95800    1.5757719   -5.3789663    4594.5226            2 
   95900    1.5488424   -5.3992428     4579.408            1 
   96000    1.5911549   -5.3683962    4570.7959            1 
   96100    1.5671022   -5.3311947    4596.7338            1 
   96200    1.5654856   -5.3867769     4592.364            3 
   96300    1.5299165   -5.3942686    4593.9849            3 
   96400    1.5753359   -5.3596053    4580.6693            2 
   96500    1.5448291   -5.3341152    4576.9226            1 
   96600    1.5721071   -5.3387987    4591.6906            1 
   96700    1.5632354   -5.3716419    4586.5714            2 
   96800    1.5398872   -5.3857909    4575.2988            1 
   96900    1.5823188   -5.3849753    4585.4732            2 
   97000     1.568611   -5.3699837    4601.9273            1 
   97100    1.5576449   -5.3836648    4576.2099            1 
   97200    1.5633726   -5.3760067    4569.6239            1 
   97300    1.5432671    -5.406188    4578.3653            1 
   97400    1.5660833   -5.4383525    4546.3307            3 
   97500    1.5649096   -5.3527708    4569.6235            2 
   97600     1.543361   -5.3766526    4587.0849            2 
   97700    1.5057331   -5.3806088    4572.4314            1 
   97800    1.5668647     -5.36369     4569.409            1 
   97900    1.6048479   -5.3938429    4581.5624            2 
   98000    1.5444484    -5.419818    4606.4713            2 
   98100    1.5541335    -5.360086    4602.2123            2 
   98200    1.5850555   -5.3564919    4579.7768            2 
   98300    1.5520138   -5.3711393    4594.8048            2 
   98400    1.5510755   -5.3886429    4572.6363            2 
   98500    1.5654156   -5.3614064    4566.8348            2 
   98600    1.5503772   -5.3757059    4577.8012            5 
   98700    1.5393425   -5.4127987    4570.1472            1 
   98800     1.568351   -5.3887024    4574.3913            2 
   98900    1.5590304   -5.3753377    4585.5266            3 
   99000    1.6070453   -5.3875654    4603.1719            1 
   99100    1.5530736   -5.3565568    4589.5326            2 
   99200    1.5695595   -5.3753491    4569.6003            1 
   99300    1.5803079   -5.3336505    4568.4837            2 
   99400     1.561054   -5.3767504    4597.6722            1 
   99500    1.5409238   -5.3848104    4590.6096            2 
   99600    1.5739431   -5.3507265    4585.6551            1 
   99700    1.5810213   -5.3554795     4585.755            1 
   99800    1.5451143    -5.370011    4590.3202            1 
   99900    1.5758385   -5.3884493    4592.7492            2 
  100000    1.5620447   -5.4224628    4575.7184            2 
  100100    1.5553011   -5.3932413    4572.1464            2 
  100200    1.5623959   -5.3522268    4585.1726            1 
  100300    1.5272385   -5.3543532      4603.98            2 
  100400     1.574068   -5.3349059     4580.946            1 
  100500    1.5925217   -5.3510686    4588.2258            1 
  100600    1.5355438   -5.3389348    4571.7533            1 
  100700    1.5579569   -5.3930874    4594.1801            1 
  100800    1.5554757   -5.3587777    4601.4754            2 
  100900    1.5876373   -5.3464977    4566.6415            1 
  101000    1.5246071   -5.3510246    4584.9608            1 
  101100    1.5740633   -5.4274681    4570.3762            1 
  101200    1.5839678   -5.3956651    4560.6915            1 
  101300    1.5634927    -5.350154    4589.1247            3 
  101400    1.5399718   -5.3716359    4617.9423            2 
  101500    1.5438118   -5.3874633    4557.8977            1 
  101600    1.5819262   -5.4090723    4554.6078            1 
  101700    1.5520218   -5.3965675    4558.5648            2 
  101800    1.5254684    -5.442815    4560.0859            1 
  101900    1.5494278   -5.3788575    4553.1502            2 
  102000     1.593037    -5.396598    4570.7778            1 
  102100    1.5212425   -5.3906062    4593.9516            1 
  102200    1.5724164   -5.3782441    4592.6147            1 
  102300    1.5910858   -5.3541611    4589.0212            2 
  102400    1.5901848   -5.3268483    4612.4769            2 
  102500    1.5613054   -5.3601499    4590.4051            4 
  102600    1.5384609   -5.3596793    4576.0051            3 
  102700    1.5790101   -5.3934956    4581.8966            2 
  102800    1.5661234   -5.3814054    4586.8947            1 
  102900     1.565013   -5.3951754    4578.7298            2 
  103000    1.5832742   -5.3501384    4590.7181            1 
  103100    1.5667752   -5.3501941    4593.4484            3 
  103200    1.5404648    -5.388222    4585.0913            2 
  103300    1.5777052   -5.3357514     4593.586            2 
  103400    1.5314784   -5.2993396    4579.9793            2 
  103500    1.5713896   -5.3614606    4568.2192            3 
  103600    1.5511098      -5.3912    4578.0747            2 
  103700    1.5603558   -5.3832746    4589.7665            2 
  103800    1.5334007   -5.3532166    4565.4872            1 
  103900    1.5741859   -5.3402462    4556.5189            2 
  104000    1.5515984   -5.3706706    4593.0839            1 
Loop time of 219.804 on 64 procs for 100000 steps with 4000 atoms

Performance: 78615.532 tau/day, 454.951 timesteps/s
99.9% CPU use with 64 MPI tasks x no OpenMP threads

MPI task timing breakdown:
Section |  min time  |  avg time  |  max time  |%varavg| %total
---------------------------------------------------------------
Pair    | 6.6551     | 6.8471     | 7.2951     |   6.0 |  3.12
Neigh   | 1.2863     | 1.3108     | 1.3471     |   1.0 |  0.60
Comm    | 14.736     | 25.827     | 47.235     | 205.2 | 11.75
Output  | 4.8887     | 4.8901     | 4.8995     |   0.1 |  2.22
Modify  | 141.7      | 174.04     | 190.77     | 119.6 | 79.18
Other   |            | 6.885      |            |       |  3.13

Nlocal:        62.5000 ave          70 max          54 min
Histogram: 2 3 3 11 4 14 17 4 3 3
Nghost:        1353.42 ave        1368 max        1337 min
Histogram: 2 6 3 11 8 9 9 6 4 6
Neighs:        6210.22 ave        6922 max        5344 min
Histogram: 4 4 2 4 12 8 11 9 6 4
FullNghs:      12404.4 ave       14326 max       10754 min
Histogram: 2 6 3 12 8 18 9 5 0 1

Total # of neighbors = 793881
Ave neighs/atom = 198.47025
Neighbor list builds = 7419
Dangerous builds = 8

#clear
#
#next RN
#
#jump SELF
Total wall time: 0:03:40
