
units lj                  # Use reduced LJ style units
atom_style atomic         # Uncharged point particles
atom_modify map hash      # Needed for indexing of clusters etc
                          # Used to be able to find where atoms are in relation to each other.

lattice fcc 1.0 spacing 1 1 1
Lattice spacing in x,y,z = 1.5874011 1.5874011 1.5874011
region box block 0 10 0 10 0 10 units lattice
create_box 2 box
Created orthogonal box = (0.0000000 0.0000000 0.0000000) to (15.874011 15.874011 15.874011)
  3 by 4 by 4 MPI processor grid
create_atoms 1 box
Created 4000 atoms
  using lattice units in orthogonal box = (0.0000000 0.0000000 0.0000000) to (15.874011 15.874011 15.874011)
  create_atoms CPU = 0.003 seconds
set type 1 type/fraction 2 0.58 78393
Setting atom values ...
  2338 settings made for type/fraction
mass 1 1.0
mass 2 1.0
pair_style lj/cut  3.5
pair_modify tail  yes
pair_coeff 1  1  1.0  1.0   # Intearaction between 1 and 1 set with epsilon = 1 and sigma = 1
pair_coeff 1  2  1.5  0.8
pair_coeff 2  2  0.5  0.88

write_data data.0
System init for write_data ...
Neighbor list info ...
  update every 1 steps, delay 10 steps, check yes
  max neighbors/atom: 2000, page size: 100000
  master list distance cutoff = 3.8
  ghost atom cutoff = 3.8
  binsize = 1.9, bins = 9 9 9
  1 neighbor lists, perpetual/occasional/extra = 1 0 0
  (1) pair lj/cut, perpetual
      attributes: half, newton on
      pair build: half/bin/atomonly/newton
      stencil: half/bin/3d
      bin: standard
WARNING: Not all mixed pair coeffs generated from mixing. Use write_data with 'pair ij' option to store all pair coeffs. (../write_data.cpp:312)


#############################
#   M E L T   S Y S T E M   #
#############################

velocity all create 2.4 1741580 mom yes dist gaussian # Assign velocities
                                                    # Temperature 2.4, random number seed, zero linear momentum
                                                                                # Gaussian distribution

timestep 0.002   # simulation timestep
thermo 1000       # output thermodynamic data every 1000 steps bf 100

# Define a fix  in this case with index 1 applied to all
# particles in the simulation. This fix is for simulations
# in the anisotropic NPT ensemble. Note that we use the MTK
# correction.
fix 1 all npt temp 2.4 2.4 0.1 iso 5.68 5.68 0.5 mtk yes tchain 5 pchain 5 # Use NPT ensemble
                                                                         # Set temperature and pressure and damping
                                                                         # Numbers of thermostats in chain and in barostat
run 10000          # run for 10000 steps
Per MPI rank memory allocation (min/avg/max) = 3.642 | 3.644 | 3.648 Mbytes
Step Temp E_pair E_mol TotEng Press Volume 
       0          2.4   -4.8268882            0   -1.2277882   -4.1002737         4000 
    1000    2.4254037   -4.5830019            0  -0.94580589    5.8974224    3588.6418 
    2000      2.38037   -4.6236328            0   -1.0539705    5.5994949    3589.7969 
    3000    2.3535588    -4.614912            0   -1.0854563    5.7331245     3597.278 
    4000    2.4401472   -4.5565797            0  -0.89727383    5.8421112    3619.3607 
    5000    2.4163867   -4.5834556            0  -0.95978171    5.6304462    3622.0321 
    6000    2.4146919    -4.539261            0  -0.91812861    5.8907526    3620.6503 
    7000    2.3508391   -4.4972645            0  -0.97188735    6.2067268    3611.1083 
    8000    2.3892779   -4.5877317            0   -1.0047108    5.8422656    3595.0301 
    9000    2.4244448    -4.554796            0  -0.91903801    5.6260991     3636.119 
   10000    2.3502674   -4.5343162            0   -1.0097964    5.8679638    3615.0591 
Loop time of 2.66042 on 48 procs for 10000 steps with 4000 atoms

Performance: 649521.520 tau/day, 3758.805 timesteps/s
99.7% CPU use with 48 MPI tasks x no OpenMP threads

MPI task timing breakdown:
Section |  min time  |  avg time  |  max time  |%varavg| %total
---------------------------------------------------------------
Pair    | 1.2078     | 1.2748     | 1.3709     |   2.8 | 47.92
Neigh   | 0.21422    | 0.22376    | 0.23631    |   0.9 |  8.41
Comm    | 0.79002    | 0.88457    | 0.96011    |   3.5 | 33.25
Output  | 0.00024567 | 0.00025091 | 0.00031496 |   0.0 |  0.01
Modify  | 0.2463     | 0.26134    | 0.28429    |   2.4 |  9.82
Other   |            | 0.01566    |            |       |  0.59

Nlocal:        83.3333 ave          93 max          74 min
Histogram: 2 1 4 12 7 5 9 5 2 1
Nghost:        1757.35 ave        1783 max        1728 min
Histogram: 2 1 4 7 8 7 6 7 2 4
Neighs:        10565.3 ave       11979 max        8849 min
Histogram: 1 1 3 7 8 9 6 8 3 2

Total # of neighbors = 507133
Ave neighs/atom = 126.78325
Neighbor list builds = 904
Dangerous builds = 221

# Equilibrate just above the melting temperature to avoid step fn in T

fix 1 all npt temp 1.25 1.25 0.1 iso 5.68 5.68 0.5 mtk yes tchain 5 pchain 5
run 2000
Per MPI rank memory allocation (min/avg/max) = 3.644 | 3.646 | 3.650 Mbytes
Step Temp E_pair E_mol TotEng Press Volume 
   10000    2.3502674   -4.5343162            0   -1.0097964    5.8679638    3615.0591 
   11000    1.2479984   -6.6472472            0   -4.7757177    5.3005527    2795.6416 
   12000     1.260561   -6.7528333            0   -4.8624645    5.5929388    2761.4835 
Loop time of 0.668671 on 48 procs for 2000 steps with 4000 atoms

Performance: 516845.820 tau/day, 2991.006 timesteps/s
99.6% CPU use with 48 MPI tasks x no OpenMP threads

MPI task timing breakdown:
Section |  min time  |  avg time  |  max time  |%varavg| %total
---------------------------------------------------------------
Pair    | 0.30279    | 0.32504    | 0.35967    |   2.4 | 48.61
Neigh   | 0.042082   | 0.044059   | 0.04866    |   0.7 |  6.59
Comm    | 0.2127     | 0.25066    | 0.27874    |   3.1 | 37.49
Output  | 5.2516e-05 | 5.4507e-05 | 6.9461e-05 |   0.0 |  0.01
Modify  | 0.039273   | 0.043898   | 0.048457   |   1.2 |  6.57
Other   |            | 0.00496    |            |       |  0.74

Nlocal:        83.3333 ave          94 max          73 min
Histogram: 1 1 2 11 13 8 6 2 2 2
Nghost:        2106.33 ave        2128 max        2084 min
Histogram: 2 0 5 5 12 9 7 5 2 1
Neighs:        13835.5 ave       16444 max       11891 min
Histogram: 1 4 8 9 13 2 7 1 2 1

Total # of neighbors = 664104
Ave neighs/atom = 166.02600
Neighbor list builds = 144
Dangerous builds = 8

#############################
# L I N E A R  Q U E N C H  #
#############################

# Define solid atoms. This closely follows ten Wolde  Ruiz-Montero and Frenkel  Faraday Discuss  1996  104  93-110
# Compute components of the per-atom q6 vector
compute q6 all orientorder/atom degrees 1 6 components 6 nnn NULL cutoff 1.3 # compute the Q6 parameter.
                                                                             # Use all neighbours within 1.3 unit cell.

# get number of connections
compute coord_number all coord/atom orientorder q6 0.5

# An atom is solid if it has 8 or more connections (of a possible 14)
variable is_solid atom c_coord_number>=8
group solid dynamic all var is_solid    # Must be dynamic to update
dynamic group solid defined

# do clustering
compute cluster solid cluster/atom 1.3 # Create a cluster where all atoms within are solid and max 1.3 units from another member

# define chunks one chunk per cluster
compute clus_chunks solid chunk/atom c_cluster nchunk every compress yes  # Says which atoms are in which chunk

# count the size of each chunk
compute size_chunks solid property/chunk clus_chunks count


# Find the maximum entry in the vector of chunk sizes
variable max_n equal max(c_size_chunks)


# Thermo style which includes this variable
# thermo_style custom step temp pe vol v_max_n

thermo ${N}  # Print the thermo information every 100 steps
thermo 1000  

# Reset the npt fix at a lower temperature (below freezing)
fix 1  all npt temp  ${temp} ${temp}  0.1  iso  5.68  5.68  0.5  mtk yes tchain  5  pchain  5
fix 1  all npt temp  0.45 ${temp}  0.1  iso  5.68  5.68  0.5  mtk yes tchain  5  pchain  5
fix 1  all npt temp  0.45 0.45  0.1  iso  5.68  5.68  0.5  mtk yes tchain  5  pchain  5

dump dmp2 all dcd ${N} traj.dcd
dump dmp2 all dcd 1000 traj.dcd


compute msd all msd com yes
variable twopoint equal c_msd[4]/6/(step*dt+1.0e-6)
fix 9 all vector 10 c_msd[4]
variable fit equal slope(f_9)/6/(10*dt)
thermo_style custom step temp pe c_msd[4] v_twopoint v_fit v_max_n

fix 1 all npt temp 1.25 ${temp} 0.1 iso 5.68 5.68 0.5 mtk yes tchain 5 pchain 5
fix 1 all npt temp 1.25 0.45 0.1 iso 5.68 5.68 0.5 mtk yes tchain 5 pchain 5
run 5000000 # 5000000  # Run for this many steps
Neighbor list info ...
  update every 1 steps, delay 10 steps, check yes
  max neighbors/atom: 2000, page size: 100000
  master list distance cutoff = 3.8
  ghost atom cutoff = 3.8
  binsize = 1.9, bins = 8 8 8
  4 neighbor lists, perpetual/occasional/extra = 1 3 0
  (1) pair lj/cut, perpetual
      attributes: half, newton on
      pair build: half/bin/atomonly/newton
      stencil: half/bin/3d
      bin: standard
  (2) compute orientorder/atom, occasional
      attributes: full, newton on
      pair build: full/bin/atomonly
      stencil: full/bin/3d
      bin: standard
  (3) compute coord/atom, occasional
      attributes: full, newton on
      pair build: full/bin/atomonly
      stencil: full/bin/3d
      bin: standard
  (4) compute cluster/atom, occasional
      attributes: full, newton on
      pair build: full/bin/atomonly
      stencil: full/bin/3d
      bin: standard
Per MPI rank memory allocation (min/avg/max) = 9.844 | 9.852 | 9.858 Mbytes
Step Temp PotEng c_msd[4] v_twopoint v_fit v_max_n 
   12000     1.260561   -6.7528333 1.7790786e-30 1.2354712e-32 8.3333333e+20            1 
   13000     1.208537   -6.7342494   0.48165473 0.0030875302  0.039151574            2 
   14000    1.2607679   -6.7463136   0.89256395 0.0053128805  0.036944845            1 
   15000    1.2557823   -6.7171593     1.344592 0.0074699552  0.036129043            2 
   16000    1.2234118   -6.7223492    1.7713548 0.0092258058  0.036073528            2 
   17000    1.2622277   -6.7677866    2.1125283  0.010355531  0.035223945            2 
   18000    1.2549515   -6.7084701    2.5658205  0.011878798  0.034718141            2 
   19000    1.2776099    -6.755931    2.9574405   0.01297123  0.034619778            2 
   20000    1.2704237   -6.7799921    3.3732104  0.014055043   0.03462868            1 
   21000    1.2432604   -6.7717033    3.8668301  0.015344564   0.03468919            2 
   22000     1.239428   -6.7982456    4.2422995  0.016069316  0.034809416            2 
   23000      1.21883    -6.765769    4.6432597  0.016823404  0.034787072            3 
   24000    1.2647871   -6.7544536    5.0687896  0.017599964  0.034705467            3 
   25000    1.2757447    -6.822542    5.4509141  0.018169713  0.034752167            1 
   26000    1.2593085   -6.7583889    5.9295164   0.01900486  0.034784648            4 
   27000    1.2475378   -6.7577191    6.3231601  0.019515926  0.034837356            1 
   28000    1.2554849    -6.740349    6.8091738  0.020265398  0.034859205            2 
   29000    1.2625281    -6.749416    7.2368147  0.020795444  0.034928094           10 
   30000    1.2528829   -6.8112732    7.6078372  0.021132881  0.034975849            2 
   31000    1.2446478    -6.788019    8.0154473  0.021546901  0.035000868            8 
   32000    1.2552725   -6.7679713    8.4212098  0.021930233  0.034972839            2 
   33000    1.2443495   -6.8185829     8.770788  0.022148454  0.034954321            3 
   34000    1.2530877   -6.7798149    9.1655373  0.022464552  0.034835282            5 
   35000    1.2593253   -6.7881532    9.5611855  0.022764727  0.034731273            2 
   36000    1.2853498   -6.8028448    9.9699232  0.023078526   0.03465747            2 
   37000    1.2340892    -6.706676    10.404598  0.023433779  0.034606204            2 
   38000    1.2751285   -6.7665232    10.808471  0.023702787  0.034529841            3 
   39000    1.2412778   -6.7318247    11.218031  0.023970152   0.03448623            3 
   40000    1.2170034    -6.784373     11.58775  0.024141145  0.034434463            2 
   41000    1.2270405   -6.7829912    11.998326  0.024386841  0.034412479            2 
   42000    1.2505862   -6.7801434    12.438865  0.024680287  0.034370965            2 
   43000     1.255485   -6.7942011    13.003449  0.025200482  0.034390881            3 
   44000    1.2262347   -6.7796351    13.304796  0.025198477  0.034407142            2 
   45000    1.2691081   -6.8066183    13.805387  0.025565532  0.034425992            4 
   46000    1.2674796    -6.814199    14.217268   0.02575592  0.034457149            2 
   47000    1.2258143   -6.8009132    14.704834    0.0260724  0.034508071            1 
   48000    1.2363587   -6.7969683    15.097604  0.026211118  0.034558889            2 
   49000    1.2479093   -6.8137541    15.521211  0.026396618  0.034597298            5 
   50000    1.2447477   -6.7932274    15.854952   0.02642492  0.034607345            2 
   51000    1.2629155   -6.8095963    16.279758  0.026600911  0.034611023            2 
   52000    1.2405833   -6.7799433    16.607679   0.02661487  0.034593242            3 
   53000    1.2548888   -6.7448949    17.067258   0.02683531  0.034579671            3 
   54000    1.2387023   -6.7747763    17.640702  0.027223306  0.034598506            2 
   55000    1.2399131   -6.7757182    17.955293  0.027204989  0.034616525            3 
   56000    1.2423018   -6.7852057    18.267032  0.027183083  0.034609334            3 
   57000    1.2555142   -6.7776937    18.660485   0.02728141  0.034593975            2 
   58000     1.242437   -6.8482141    18.890398  0.027141377   0.03456227            1 
   59000    1.2323032   -6.7321303    19.373991  0.027364393  0.034520815            3 
   60000    1.2380267   -6.8039483    19.815899  0.027522082  0.034483698            1 
   61000     1.231776   -6.7808091    20.331101  0.027774727  0.034462158            3 
   62000    1.2288094   -6.7396651    20.599104  0.027686968  0.034438998            2 
   63000    1.2427538   -6.8004764    20.822069  0.027542419  0.034394318            2 
   64000    1.2827988    -6.797731    21.230002  0.027643232  0.034345594            2 
   65000    1.2664212   -6.7960085    21.638926  0.027742213  0.034288422            2 
   66000    1.2465356   -6.8267739    21.913249  0.027668244  0.034228614            2 
   67000    1.2297338   -6.8096509    22.420461  0.027886145  0.034165565            4 
   68000    1.2234593   -6.7915906    23.010243  0.028198827  0.034131451            3 
   69000    1.2519419    -6.735966    23.421835   0.02828724  0.034108626            3 
   70000    1.2152912   -6.7585964    23.774388  0.028302842  0.034089628            2 
   71000    1.2419797   -6.7320411    24.198257   0.02840171  0.034066141            2 
   72000    1.2227057   -6.7852389    24.624907   0.02850105  0.034057761            2 
   73000    1.2491911    -6.790086    25.187117  0.028752416  0.034053049            2 
   74000    1.2179811   -6.7918123    25.680778  0.028919794    0.0340716            1 
   75000    1.2697149   -6.8140038    26.346236  0.029273595  0.034104356            1 
   76000    1.2587764   -6.7485859    26.719594    0.0292978   0.03415365            3 
   77000     1.240744   -6.7778651    27.286947  0.029531328  0.034198089            2 
   78000    1.2293437   -6.7403801    27.808634  0.029710079  0.034248353            2 
   79000    1.2439918   -6.7877432    28.052165  0.029590891  0.034295603            1 
   80000    1.2349056   -6.8013364    28.177852  0.029351929  0.034322921            2 
   81000    1.2787644   -6.7742632    28.743089  0.029571079  0.034348122            1 
   82000    1.2338198   -6.8331944    29.183465  0.029657993  0.034371945            2 
   83000    1.2323415   -6.7596751    29.514403  0.029632935  0.034384262            1 
   84000    1.2401473   -6.7876598    29.815878  0.029579244   0.03439398            1 
   85000    1.2807955    -6.794793    30.277872  0.029684188  0.034397251            1 
   86000    1.2582715   -6.8011882    30.735674  0.029782629  0.034405866            2 
   87000     1.238176   -6.8401521     31.04616  0.029737701  0.034414048            5 
   88000    1.2566534   -6.8229959    31.400742  0.029735551  0.034405846            4 
   89000    1.2240587   -6.8226092    31.742458  0.029721403  0.034399519            2 
   90000      1.22709   -6.8096536    32.242648  0.029854303  0.034400363            2 
   91000    1.2191946   -6.7700444    32.662405  0.029910627  0.034395406            1 
   92000    1.2347801   -6.7616798     33.03782  0.029925561  0.034387338            1 
   93000    1.2398383   -6.8326692    33.269646   0.02981151  0.034379251            3 
   94000    1.2358713   -6.8031949    33.764808   0.02993334  0.034368441            2 
   95000    1.2496558   -6.8198421    34.183615  0.029985627  0.034350654            4 
   96000      1.25367    -6.779508    34.542819  0.029985086  0.034337162            2 
   97000    1.2348504   -6.8371954     34.91649  0.029996985  0.034324944            2 
   98000    1.2303187   -6.8083367    35.465997  0.030158161  0.034319074            1 
   99000    1.2289512    -6.814973    35.978824  0.030285205  0.034316796            1 
  100000    1.2122649   -6.7576387    36.397249   0.03033104  0.034316827            5 
  101000    1.2353507   -6.7923516    36.669886  0.030255682  0.034314206            2 
  102000    1.2249236   -6.8117994    36.975266   0.03020855  0.034305595            1 
  103000    1.2254721    -6.752842    37.402871  0.030261222  0.034290419            1 
  104000    1.2655462   -6.7758545    37.686989  0.030197907  0.034272788            2 
  105000    1.2252052   -6.8118591    37.984979  0.030146809  0.034252192            2 
  106000    1.2277203   -6.8322416       38.555  0.030310534  0.034235779            2 
  107000    1.2423054   -6.7990301    39.053007  0.030415114  0.034226039            3 
  108000    1.2381773   -6.7895692    39.552595  0.030518977  0.034226955            2 
  109000    1.2464581   -6.7989373    39.936481  0.030532478   0.03422734            1 
  110000    1.2365774   -6.7707492    40.460474  0.030651874  0.034224319            1 
  111000    1.2153565    -6.805499    40.885145  0.030694553  0.034225628            4 
  112000    1.2366742   -6.7863883    41.050714  0.030543686   0.03422147            3 
  113000    1.2163244   -6.8093706    41.526753  0.030624449  0.034212317            2 
  114000    1.2246407   -6.8211287    41.711564  0.030490909  0.034201015            1 
  115000    1.2171055   -6.8197338    42.145419  0.030540158  0.034189991            3 
  116000    1.2398635   -6.7905468    42.336041  0.030413823  0.034177393            2 
  117000    1.2107617   -6.8179851    42.948189  0.030589878  0.034160195            2 
  118000    1.2323414   -6.8137208    43.271608  0.030559045  0.034145077            1 
  119000    1.2509194   -6.7876463    43.741736  0.030631467  0.034131928            2 
  120000    1.2328404   -6.7982965     44.02967  0.030576159  0.034116974            2 
  121000    1.2244087   -6.7851229    44.388577  0.030570645   0.03410056            2 
  122000    1.2607654   -6.8266382    44.605817  0.030468454  0.034079539            3 
  123000    1.2447397   -6.7808366    45.084368  0.030544964  0.034061652            2 
  124000    1.1991989    -6.862218    45.224948   0.03039311  0.034036886            2 
  125000    1.2308886   -6.7652195    45.895538  0.030597025  0.034010425            8 
  126000    1.2424165   -6.8087119    46.006347  0.030427478  0.033981691            3 
  127000    1.2235644   -6.8270402    46.406348   0.03045036  0.033954218            1 
  128000    1.2281708   -6.8186819    46.957167  0.030571072  0.033930375            2 
  129000    1.2386576   -6.8039139    47.372616  0.030602465  0.033909888            7 
  130000    1.2218798   -6.7678087    47.789155  0.030634073  0.033887105            2 
  131000    1.2284207   -6.7971775    48.136114  0.030620938   0.03386722            3 
  132000    1.2383775   -6.8345551    48.203334  0.030431398  0.033844371            3 
  133000    1.2383195   -6.8377282    48.524465    0.0304038  0.033814522            2 
  134000    1.2103041   -6.7794026    49.146049  0.030563463  0.033783947            3 
  135000    1.2083387   -6.8107241     49.28481  0.030422722   0.03375277            4 
  136000    1.2217143   -6.8463591    49.756528  0.030488068  0.033722657            3 
  137000    1.2194983   -6.8114047    50.241102  0.030560281  0.033693303            3 
  138000    1.2191181   -6.7567755    50.601892  0.030556698  0.033663699            3 
  139000    1.2158306   -6.7708018    50.923114  0.030529445  0.033636782            7 
  140000    1.2336498   -6.8107167    51.371679   0.03057838  0.033612047            2 
  141000    1.2098846   -6.8503929    51.654305  0.030528549  0.033588008            3 
  142000    1.2187366   -6.7994256    52.188071  0.030626802  0.033570179            4 
  143000    1.2557919   -6.8192534    52.736475  0.030732212  0.033557208            2 
  144000     1.242898   -6.8251427    53.198009  0.030785885  0.033546367            2 
  145000    1.2482735   -6.8237719    53.484978  0.030738493  0.033531042            2 
  146000    1.2504397   -6.8265353    53.751795  0.030680248   0.03351434            2 
  147000    1.2461523   -6.8070341     54.05488  0.030643356   0.03349606            3 
  148000    1.2281798   -6.8045233    54.381222  0.030620057  0.033478615            7 
  149000    1.2482096   -6.7761603    54.763807  0.030628527  0.033459588            1 
  150000    1.2094063   -6.7912703    55.152169  0.030640094  0.033436814            3 
  151000    1.2225719   -6.9027809    54.797923  0.030241679  0.033409039            4 
  152000     1.239006   -6.7844497    55.493341  0.030423981  0.033378647            2 
  153000    1.2058033   -6.8331919    55.664812  0.030318525  0.033346009            1 
  154000    1.2068675   -6.8461745    56.004112  0.030305255  0.033313158            2 
  155000    1.2062759   -6.8248279    56.580901  0.030419839  0.033278785            1 
  156000    1.2260464   -6.8223442     57.01671  0.030457644  0.033250172            1 
  157000    1.2469481   -6.8284476    57.518136  0.030529796   0.03322485            3 
  158000    1.2377427   -6.8128925    57.784278   0.03047694    0.0332022            2 
  159000    1.2233635   -6.7952633    58.344134  0.030578687  0.033180783            2 
  160000    1.2259375   -6.8054956    58.620008  0.030531254  0.033159444            3 
  161000    1.2258903   -6.8669747    58.793044  0.030431182  0.033136875            2 
  162000    1.2381495   -6.8142489    59.393651  0.030552289  0.033117434            4 
  163000    1.2354139   -6.8199756    59.753069  0.030548604  0.033096777            1 
  164000    1.2370872   -6.8578048    59.531326  0.030249658  0.033073046            2 
  165000     1.224874   -6.7876698    60.465378  0.030538069    0.0330462            4 
  166000    1.2239655    -6.811972    60.768583  0.030506317  0.033023319            3 
  167000    1.2195314   -6.8479551     60.53379  0.030206482  0.032997041            2 
  168000    1.2306693   -6.8268208    60.885943  0.030201361  0.032967216            2 
  169000     1.219691    -6.783752     61.60212  0.030375799  0.032937538            2 
  170000    1.2356148   -6.7604586    62.116434  0.030449232  0.032912222            4 
  171000    1.2341893   -6.7939555    62.506025  0.030461026  0.032888889            2 
  172000    1.2087982   -6.8371956    62.705903  0.030380767  0.032865698            3 
  173000    1.2323368   -6.8654234    63.011625   0.03035242  0.032842993            4 
  174000    1.2508654   -6.8305782     63.84945  0.030579239  0.032825078            3 
  175000    1.2541715   -6.8288257    64.408208  0.030670575  0.032811675            6 
  176000    1.2378492   -6.8554261    64.552364  0.030564566  0.032797428            7 
  177000    1.2052382   -6.8344985    65.270127  0.030729815   0.03278378            5 
  178000    1.2437535   -6.7985357    65.453889  0.030643206   0.03276896            6 
  179000    1.2120969   -6.7970587    66.136498  0.030789804  0.032758357            2 
  180000    1.2327773   -6.8561195    66.393139  0.030737564  0.032749381            3 
  181000    1.2460111   -6.8063433    66.797406   0.03075387   0.03274092            1 
  182000    1.2149254   -6.8469388    67.167363  0.030754287  0.032734258            2 
  183000    1.2389723   -6.8507766     67.39203  0.030688538  0.032722826            2 
  184000    1.2175259   -6.8605385    67.886854  0.030745858   0.03271105            2 
  185000    1.2012488   -6.8368457    68.138825  0.030693164  0.032698849            1 
  186000    1.2258746   -6.8374834    68.457987  0.030671141  0.032685806            2 
  187000    1.2307392   -6.8202142    68.805837  0.030662137  0.032673596            3 
  188000    1.2196382   -6.8383629    69.486699  0.030800841  0.032663639            3 
  189000    1.2016576   -6.8500572    70.124384   0.03091904  0.032657893            2 
  190000    1.2252214   -6.8619035    70.223004  0.030799563  0.032648891            2 
  191000    1.2153781   -6.8377509     70.51848  0.030767225  0.032640597            5 
  192000     1.218112   -6.9046625    70.709843  0.030690036  0.032628454            2 
  193000     1.207327    -6.831814    71.206019  0.030745258   0.03261886            3 
  194000    1.2165244   -6.8038087    71.609925  0.030760277  0.032610735            2 
  195000    1.2320348   -6.8187814    72.372865  0.030928575  0.032605273            2 
  196000    1.2314554   -6.7950879    73.014668  0.031043651  0.032600663            4 
  197000    1.2022558   -6.8398295    73.153052  0.030944607  0.032595238            2 
  198000    1.2028074   -6.8871594    73.057877  0.030748265  0.032588488            3 
  199000    1.2096804   -6.8612701    73.661172  0.030846387   0.03258139            4 
  200000     1.216685   -6.8426784    74.072692  0.030863621  0.032571211            4 
  201000    1.2467972   -6.8454172    74.206171  0.030765411  0.032562573            3 
  202000    1.2193584   -6.8416516    74.701954  0.030817638  0.032553963            2 
  203000     1.224448   -6.8671507    74.834048  0.030720052  0.032543159            1 
  204000    1.2066064   -6.8324466     75.63754  0.030897688  0.032532986            1 
  205000    1.2008067   -6.8267183     75.90053  0.030853874   0.03252468            1 
  206000    1.2212164   -6.8283417    76.318332  0.030873112  0.032518628            2 
  207000    1.2312695   -6.7864703    76.779432  0.030909594  0.032512044            2 
  208000    1.2160498   -6.8735006    77.074681  0.030879279  0.032504598            3 
  209000    1.2171414   -6.8272282    77.645515  0.030959136  0.032496432            4 
  210000     1.228105    -6.828701    77.947401  0.030931508  0.032489202            1 
  211000     1.235404   -6.8513879    78.110409  0.030849293  0.032482899            1 
  212000    1.2155514   -6.8363224    78.470117  0.030845172  0.032475918            4 
  213000    1.2147319   -6.8256839    78.907589  0.030871514  0.032468075            2 
  214000    1.2264513   -6.8658028    79.165191  0.030827567  0.032460232            3 
  215000    1.2169467    -6.855203    79.690912   0.03088795  0.032453817            6 
  216000    1.2016593   -6.9047877    79.790103  0.030783219  0.032445888            2 
  217000    1.2471465   -6.8186033    80.387823    0.0308709  0.032437316            1 
  218000    1.2313625   -6.8368344    80.383815  0.030727758  0.032427228            3 
  219000    1.2275253   -6.8764151    80.812518  0.030750578  0.032416678            2 
  220000    1.2143862    -6.829598    81.316037  0.030801529   0.03240691            3 
  221000    1.2035914   -6.8548337    81.678388  0.030798789  0.032398308            4 
  222000    1.2191369   -6.8508344    82.199938  0.030855832  0.032389927            1 
  223000    1.2330756     -6.81375    82.531572  0.030841394  0.032382352            4 
  224000    1.2099535   -6.8708646    82.760203  0.030788766  0.032376359            3 
  225000    1.2161713   -6.8578854     83.39457  0.030886878   0.03237096            2 
  226000    1.2010997   -6.8024331    84.152581  0.031029713  0.032365276            3 
  227000    1.2270202   -6.8947881    84.047031   0.03085427  0.032360141            2 
  228000    1.2102975   -6.8111964    84.944558  0.031046988  0.032356184            4 
  229000    1.2203175   -6.8226426    85.300152  0.031040812  0.032353489            2 
  230000    1.2126804   -6.8309616    85.823452  0.031095453  0.032350988            4 
  231000    1.1953911   -6.8424685    85.784325  0.030946726  0.032348662            2 
  232000    1.2069006   -6.8895338    86.258138  0.030983526  0.032344801            1 
  233000    1.2072896   -6.8848137     86.54809  0.030954252  0.032341785            3 
  234000    1.2184543   -6.8768103     87.06794  0.031007101  0.032338816            4 
  235000    1.2409154   -6.8487756    87.466292  0.031016415  0.032336097            4 
  236000    1.2035382   -6.8981661    87.662611  0.030954312  0.032333429            4 
  237000    1.2295383   -6.8624046    88.540538  0.031132397  0.032329924            2 
  238000    1.2203856   -6.8696389    88.548017  0.031004208  0.032326266            2 
  239000    1.2283598   -6.8040637    89.066804  0.031055371  0.032322038            2 
  240000    1.2138988   -6.8811464    89.191786   0.03096937  0.032318817            2 
  241000    1.1936218   -6.8444248    90.037927  0.031133446  0.032314155            3 
  242000    1.2087763   -6.8631549    90.223248  0.031068611  0.032313007            2 
  243000    1.2209947    -6.838203    90.990324  0.031203815  0.032313977            3 
  244000    1.2249151   -6.8319101    91.539273  0.031263413  0.032315623            1 
  245000    1.2131331   -6.8375684    92.371359   0.03141883  0.032317401            1 
  246000    1.1907262   -6.8470838    92.405572    0.0313027  0.032320012            2 
  247000     1.220297   -6.8534477    92.712281  0.031279447  0.032322948            4 
  248000     1.245337   -6.8625162    93.059126  0.031269867  0.032326868            4 
  249000    1.2165495   -6.8732792    93.699777  0.031358694  0.032331215            4 
  250000    1.1853225    -6.864744    93.658619   0.03121954  0.032333377            2 
  251000    1.2155993   -6.8611799    94.592141  0.031405093  0.032334691            1 
  252000    1.2286983   -6.8652664    94.920061  0.031388909  0.032337868            4 
  253000    1.1999536   -6.8830702    95.187533  0.031352942  0.032341911            3 
  254000    1.2081173   -6.8255171    95.951273  0.031480076  0.032347954            3 
  255000    1.2146197   -6.8423752    96.143002  0.031419282  0.032353498            5 
  256000    1.2236539   -6.8237143    96.649188  0.031461324  0.032357212            4 
  257000    1.2325994   -6.8982692    97.031074  0.031462735  0.032361676            4 
  258000    1.2029404   -6.8568214    97.476919  0.031484793  0.032366958            3 
  259000     1.216049   -6.8950458    97.554225  0.031388103  0.032371994            2 
  260000    1.2295138   -6.8520243    97.964972   0.03139903  0.032376079            1 
  261000    1.2157386   -6.9007751    97.837002  0.031237868  0.032378663            2 
  262000    1.2192207   -6.8473188    98.781102  0.031418925  0.032380828            2 
  263000    1.1740769   -6.8773971    98.738904  0.031286091  0.032381833            3 
  264000     1.197556   -6.8056484    99.583667  0.031434238  0.032383153            2 
  265000    1.2056916   -6.8311892    100.14747  0.031492916  0.032386305            2 
  266000    1.2078634   -6.8537613    100.70205  0.031548262  0.032389169            2 
  267000    1.2217577   -6.8779811    100.43657  0.031347245  0.032391558            3 
  268000     1.196273   -6.9182446    100.70251   0.03131297  0.032392169            3 
  269000    1.2013342   -6.8106193    101.83794   0.03154831  0.032393314            4 
  270000    1.2213128   -6.9023689    101.00412   0.03117411  0.032392274            2 
  271000    1.1972335   -6.8506648      101.684  0.031268144   0.03239048            5 
  272000    1.2035769   -6.8458926    101.85119  0.031204408  0.032389666            4 
  273000    1.2119445   -6.8502209     102.2881  0.031223473  0.032386409            2 
  274000    1.2268956   -6.8904421    102.20176  0.031083261  0.032383259            5 
  275000    1.2010014   -6.8809564    103.30036  0.031303138  0.032379558            3 
  276000    1.2158074    -6.844188    103.46611  0.031239768   0.03237878            1 
  277000    1.1979868   -6.8601889    103.37607  0.031099902  0.032375896            3 
  278000    1.2152472   -6.8697924    104.23159   0.03124448  0.032374624            5 
  279000      1.19583   -6.8418192    104.97106  0.031353364  0.032374169            5 
  280000    1.2112956   -6.8903516    105.11768  0.031285024  0.032372968            2 
  281000    1.2232832   -6.8751153     105.3952  0.031255991  0.032371937            2 
  282000    1.2052524   -6.8623581    105.91566  0.031298954  0.032369151            2 
  283000     1.203942   -6.8162767    106.09901  0.031242347  0.032367377            3 
  284000    1.2157755   -6.8436433    106.35629  0.031207832  0.032363895            3 
  285000     1.195018   -6.8372551    106.27568   0.03107476  0.032358938            2 
  286000    1.2184904    -6.833803    107.00633  0.031178999   0.03235347            2 
  287000    1.2143549   -6.8796208    107.48903  0.031210521  0.032349296            3 
  288000    1.1833539   -6.8514721    108.25312  0.031323242   0.03234531            2 
  289000    1.2172857   -6.8727481     108.1768   0.03119285  0.032341954            3 
  290000    1.2053983   -6.8743323     108.4558  0.031165459  0.032339214            2 
  291000    1.2038435   -6.9040554    108.78199  0.031151773  0.032335288            3 
  292000    1.2234036   -6.8703648    109.30099  0.031193205  0.032331476            4 
  293000    1.2005531   -6.8934729    109.79714  0.031227856  0.032327962            3 
  294000    1.1943293   -6.8995283    110.61432  0.031353265   0.03232646            4 
  295000    1.1990801    -6.910825    110.61107  0.031246064  0.032323601            1 
  296000    1.2270083   -6.8828443    111.11819  0.031283275  0.032320633            1 
  297000    1.2328789   -6.8714307    111.54439  0.031297528  0.032317354            3 
  298000    1.2211995   -6.8564979    111.73142  0.031244805  0.032314325            1 
  299000    1.1967758     -6.89895    111.72088   0.03113737  0.032311368            2 
  300000    1.1932847   -6.8860328    112.54352  0.031262088  0.032307675            3 
  301000     1.194144   -6.9110895    112.86813  0.031248097  0.032305175            4 
  302000    1.1739401   -6.9284811    113.18061  0.031230853  0.032303164            2 
  303000    1.1899962   -6.8760534    114.15567  0.031395948  0.032301792            5 
  304000    1.1982917   -6.9034806    114.13616  0.031287325  0.032300057            1 
  305000    1.1748586   -6.9137316    114.69529  0.031337512  0.032299758            2 
  306000    1.1680326   -6.8466596     114.8688  0.031282353  0.032298158            1 
  307000    1.1765497   -6.8616798    115.47326  0.031344534  0.032297148            1 
  308000    1.1980626   -6.8867208    115.72491  0.031310852  0.032294923            2 
  309000    1.2176299   -6.8761418    116.17323  0.031330429  0.032292794            3 
  310000    1.1984672   -6.8748493    116.77354  0.031390736  0.032291472            1 
  311000    1.2008382   -6.8763006    116.86872  0.031315307  0.032290149            2 
  312000    1.1860882   -6.9304041    117.23935  0.031313929  0.032287772            2 
  313000    1.2082815     -6.88743    117.59969  0.031309821  0.032285265            2 
  314000    1.2076523   -6.8721619    118.25315  0.031383533  0.032283365            1 
  315000    1.1877561   -6.8463362    118.65581  0.031390426   0.03228265            2 
  316000    1.2276897   -6.8587893    119.27105  0.031453336  0.032281751            1 
  317000    1.2004162   -6.8966891    118.87639  0.031250364  0.032280297            6 
  318000    1.2049383    -6.913361     119.1884  0.031233859  0.032277548            2 
  319000    1.1830414   -6.9310722    119.29739  0.031164417  0.032274239            7 
  320000    1.2074888   -6.8761512    119.59979  0.031145778  0.032270504            3 
  321000    1.2123253   -6.8940041    120.13381  0.031187386  0.032266129            3 
  322000    1.2129982   -6.8895503    120.55778  0.031200254   0.03226111            1 
  323000    1.1940495   -6.8849338    120.74401  0.031151706  0.032256571            1 
  324000     1.225132   -6.8919996    121.12498  0.031153544  0.032251603            4 
  325000     1.208394   -6.8708083    121.38015  0.031123115  0.032246697            2 
  326000    1.2311885   -6.9447397    121.28429  0.031003141   0.03224067            3 
  327000    1.1795627   -6.8737628    122.17178    0.0311345  0.032233403            2 
  328000    1.2164793   -6.9050999    122.76393  0.031190023  0.032228346            2 
  329000    1.1944209    -6.855884    122.84585  0.031115971  0.032222644            6 
  330000    1.2071288   -6.8825229    123.12291  0.031091645  0.032217192            2 
  331000    1.1894411   -6.8915092    123.70313   0.03114379  0.032211638            2 
  332000    1.1486371   -6.8908568    124.14193  0.031160123  0.032206419            2 
  333000     1.196138   -6.8937451    124.62585   0.03118765  0.032200283            5 
  334000    1.1898015   -6.8955727    125.04334  0.031198438  0.032194543            4 
  335000    1.1937546   -6.8645688    125.37718  0.031188354  0.032190771            2 
  336000    1.1897489   -6.8553194    125.81636  0.031204453  0.032186442            2 
  337000    1.2299162   -6.8813472    125.75793  0.031097411  0.032182803            2 
  338000    1.1854109   -6.9076259    126.16548  0.031105888  0.032177375            2 
  339000    1.1918939    -6.929973    126.13487  0.031006606  0.032171731            3 
  340000    1.1920935   -6.8967757    127.28639  0.031197645  0.032166275            3 
  341000    1.1778892   -6.9049002    127.51003  0.031160809  0.032160418            1 
  342000    1.1931675   -6.8636799    127.89376  0.031163198  0.032156054            3 
  343000    1.2091832    -6.924615    127.79304  0.031047872  0.032150528            1 
  344000    1.2125416   -6.9498831    127.99687  0.031006993  0.032144338            1 
  345000    1.1824348    -6.995445    128.14003  0.030951697   0.03213749            2 
  346000    1.1733437   -6.9318871    128.70788  0.030999007  0.032131024            2 
  347000    1.1952251   -6.9126075    129.24809  0.031039407  0.032124259            1 
  348000     1.185621   -6.9366798    129.69273  0.031056688  0.032118461            1 
  349000    1.1622555   -6.9155605     130.0719  0.031058239  0.032112182            6 
  350000    1.2247879   -6.9180492    129.94674  0.030939701  0.032105889            4 
  351000    1.2089733   -6.8960796    130.41675   0.03096314  0.032098164            1 
  352000    1.1940072   -6.8934946    130.54951  0.030906608  0.032090993            8 
  353000    1.2268618   -6.8920929    131.40646  0.031021356  0.032083323            2 
  354000    1.2079784   -6.9074442    131.56532  0.030971122  0.032076151            3 
  355000    1.2018921   -6.8972381     131.8567  0.030952276   0.03206816            2 
  356000    1.1838008    -6.869848    132.32507   0.03097497  0.032061322            1 
  357000    1.1879477    -6.935371    132.18397   0.03085527  0.032053126            2 
  358000      1.22273   -6.9503444    132.86254  0.030927034  0.032044446            2 
  359000    1.2059818    -6.882378    133.62338  0.031017497   0.03203746            5 
  360000    1.1786062   -6.8768641    133.66096  0.030940037  0.032030534            1 
  361000    1.2100831    -6.919173    133.58922   0.03083777  0.032021809            2 
  362000    1.2091669   -6.9533004    133.94347  0.030834131  0.032014965            4 
  363000    1.2111673   -6.9014098    134.41336  0.030857062  0.032007931            3 
  364000    1.1731839    -6.917989    134.95034  0.030895224  0.032001134            1 
  365000    1.1839561     -6.89175    135.59724  0.030958273  0.031993831            5 
  366000    1.2072209    -6.924626    135.84374  0.030929812  0.031986594            2 
  367000    1.1909459   -6.9295119    136.35816  0.030962343  0.031979326            1 
  368000    1.2027763     -6.88939    136.82126  0.030983075  0.031971986            3 
  369000    1.1764095   -6.8907374    136.62264  0.030854255   0.03196552            2 
  370000    1.1908595    -6.894864    137.33248  0.030930739  0.031958312            3 
  371000    1.1893298   -6.8811161    137.27354  0.030834128  0.031951203            6 
  372000    1.1868883   -6.9206515    137.87169  0.030885236  0.031944055            1 
  373000    1.2110183   -6.9209863    138.45234  0.030932158  0.031935531            4 
  374000    1.1944601   -6.8790704    138.80837  0.030928782   0.03192795            4 
  375000    1.1752324   -6.9329803    138.34289  0.030742865  0.031920498            2 
  376000    1.1796521   -6.9059927    138.68087  0.030736008  0.031911827            3 
  377000    1.1788446   -6.9063256    139.85712  0.030914482  0.031903399            2 
  378000    1.1895784   -6.8752891    139.80165   0.03082047  0.031895211            3 
  379000    1.2159201   -6.9251789    140.11735  0.030808563   0.03188823            1 
  380000    1.2201646   -6.8730695    140.99916  0.030920868  0.031880552            2 
  381000    1.1825092   -6.8700625    141.50017  0.030949293  0.031874222            3 
  382000    1.2175563   -6.9134728    141.43441  0.030853929  0.031868332            2 
  383000    1.1844902   -6.9057983    141.94544  0.030884561  0.031861876            4 
  384000    1.1975351   -6.9269985    141.93903  0.030802741  0.031854448            5 
  385000     1.192948   -6.9529742      142.479   0.03083961  0.031845819            1 
  386000    1.1849625   -6.9336773    142.85909  0.030841772  0.031838348            2 
  387000    1.1675619   -6.9406484    142.57149  0.030700149  0.031830276            2 
  388000    1.1808161   -6.8913999    143.14513  0.030744229  0.031823103            2 
  389000    1.2109527    -6.895819    144.43497  0.030941511   0.03181495            3 
  390000    1.1927487   -6.9001847    144.49444   0.03087488  0.031807322            2 
  391000    1.1926721   -6.9367557    143.94577   0.03067898   0.03179927            3 
  392000     1.179914   -6.9492196    144.65177  0.030750801    0.0317913            5 
  393000    1.1751744   -6.9079144    145.28583  0.030807005  0.031784557            6 
  394000    1.1862365   -6.9416528    144.94772  0.030657301  0.031777623            2 
  395000    1.1949198   -6.8972504    145.68543  0.030735322  0.031769823            3 
  396000    1.1950974   -6.9204001    146.28729  0.030784362  0.031761732            2 
  397000    1.1741244   -6.8911756     146.8205  0.030818745  0.031754183            3 
  398000    1.2148259   -6.8731733    147.35444  0.030853107  0.031748019            3 
  399000    1.1890445   -6.9464978    147.74602  0.030857565  0.031741779            3 
  400000    1.1794491    -6.957405     148.0964  0.030853416  0.031735668            2 
  401000    1.1739453   -6.9153101    148.77751   0.03091802   0.03173007            1 
  402000    1.1870383   -6.8742115    148.75846  0.030837161  0.031725205            2 
  403000    1.1747746   -6.9276975    148.99448  0.030809446  0.031719032            3 
  404000    1.1860119   -6.9682692    149.62087   0.03086239  0.031713118            2 
  405000     1.200691   -6.9329737    149.90181  0.030843994  0.031707788            1 
  406000    1.1998426   -6.9123418    149.94215  0.030776304  0.031702915            4 
  407000    1.2167206   -6.9356281    150.40323  0.030795092  0.031697189            6 
  408000    1.1577316    -6.911471    150.47608  0.030734493  0.031691623            1 
  409000    1.1999904    -6.974571    150.34872  0.030633398  0.031685362            2 
  410000    1.1661782   -6.9299181    151.46055  0.030784664  0.031678684            3 
  411000    1.1887509   -6.9116236    152.20045  0.030859782  0.031672564            3 
  412000    1.2119383     -6.92919    152.18433  0.030781619  0.031666107            3 
  413000    1.1783819    -6.920925    152.78815  0.030828923  0.031660289            2 
  414000    1.1812877   -6.9572002    152.96553  0.030790164   0.03165424            4 
  415000    1.1993386   -6.9045284    153.52674  0.030828664  0.031648572            1 
  416000    1.1685774    -6.961917    153.25353  0.030699826  0.031642829            2 
  417000    1.1874302   -6.9027724    154.03487  0.030782347  0.031636106            1 
  418000    1.1888633   -6.9575187     154.2194  0.030745494  0.031629635            3 
  419000     1.213565   -6.9315114    154.86805  0.030801125  0.031623902            3 
  420000    1.1828956   -6.9495102    155.21347  0.030796323  0.031617991            5 
  421000     1.173336   -6.8849151    155.78422  0.030836148  0.031611914            2 
  422000    1.1706772   -6.9407674    156.00876  0.030807417  0.031604947            4 
  423000    1.2100299   -6.9327549    155.86882  0.030707018  0.031598649            3 
  424000    1.2218729   -6.9404847    155.82212  0.030625416  0.031592331            2 
  425000    1.1656793   -6.9805432    155.92844  0.030574204  0.031586127            2 
  426000    1.1645983   -6.9354409    156.88653  0.030689854  0.031579468            2 
  427000    1.1779815   -6.8639921     157.5977  0.030756772  0.031572794            4 
  428000    1.1893858   -6.9156259    157.51128  0.030668083   0.03156656            2 
  429000    1.2072407   -6.8453966    158.52783  0.030794061  0.031560468            1 
  430000    1.1885841   -6.9424367    157.95921   0.03061225  0.031553194            3 
  431000    1.1908356   -6.9396569    158.98753  0.030740049  0.031546448            2 
  432000    1.1803355    -6.940289    158.77496  0.030627885  0.031539906            4 
  433000    1.1798169   -6.9640525    159.26555  0.030651569  0.031533349            4 
  434000    1.1641368   -6.9468163    159.63943  0.030652733  0.031526988            2 
  435000    1.1853151   -6.9501109    159.90618  0.030633368  0.031520733            2 
  436000    1.1612306   -6.9276653     160.3448  0.030646943   0.03151405            4 
  437000    1.1822061    -6.922567    160.66714   0.03063828  0.031507352            3 
  438000    1.1865737    -6.944525    160.71051  0.030576581  0.031500463            4 
  439000    1.1824795   -6.9508891    160.32774  0.030434272  0.031492811            1 
  440000    1.1843889   -6.9547063    160.99701  0.030491858  0.031484907            2 
  441000    1.1678475   -6.9012605    161.79599  0.030573694  0.031476423            1 
  442000    1.1988681   -6.9483069    162.09637  0.030561156  0.031468553            4 
  443000    1.1851034   -6.9970646    161.96542  0.030467535  0.031460909            2 
  444000    1.1880996   -6.9395814    162.66158  0.030529575  0.031452933            3 
  445000    1.2025724   -6.8974521    163.35448  0.030590727  0.031444727            2 
  446000    1.1718233   -6.9097121    163.45178  0.030540318  0.031436163            1 
  447000    1.2091738    -6.948453    163.17339  0.030420094  0.031427805            2 
  448000    1.1522704   -6.9437551    163.93873  0.030494556  0.031419257            4 
  449000    1.2060978   -6.9166371    163.73121  0.030388123  0.031410513            3 
  450000    1.1696832   -6.9591229     163.3671  0.030253167  0.031401139            4 
  451000    1.1639177   -6.9491945    164.26049  0.030351162  0.031391212            3 
  452000    1.1803243   -6.9286799    164.71121  0.030367111  0.031381281            1 
  453000      1.18565   -6.9262832    164.89974  0.030334757  0.031370928            2 
  454000    1.1688812   -6.9665025    164.94054   0.03027543  0.031360733            2 
  455000     1.185113   -6.9456136    165.25416   0.03026633  0.031351208            2 
  456000     1.180147   -6.9266919    165.46569  0.030238613  0.031340431            4 
  457000    1.1663802   -6.9446897    165.36595  0.030154257  0.031329302            2 
  458000    1.1697084   -6.9532244    166.00066  0.030203905  0.031317911            2 
  459000    1.1574088   -6.9847229    166.18783  0.030172082  0.031306871            2 
  460000    1.1661834   -6.8982838    167.06315  0.030265063   0.03129567            3 
  461000    1.1811464   -6.9417027    167.30679  0.030243454   0.03128505            2 
  462000    1.1743816   -6.9457784     167.5522  0.030222259  0.031274515            2 
  463000    1.1789993   -6.9944199    167.80613  0.030202686  0.031263878            1 
  464000    1.1707909   -6.9888894    167.83041  0.030141955  0.031253589            2 
  465000    1.1321535   -6.9499832    168.47749  0.030193098  0.031243437            5 
  466000    1.2017201   -6.9656615    168.69545  0.030167284  0.031232682            2 
  467000    1.1835176   -6.9531871    169.53915  0.030253238  0.031222521            2 
  468000     1.172977   -6.9727352    169.66304  0.030210655  0.031212155            3 
  469000    1.1578557   -6.9771407    169.87423  0.030183765  0.031202404            3 
  470000    1.1773044   -6.9331877    170.92267  0.030305438  0.031192725            2 
  471000     1.187633   -6.9413068    171.49294  0.030341992   0.03118385            1 
  472000    1.1678104   -6.9813377    171.92377  0.030353773  0.031175183            4 
  473000    1.1812977   -6.9840115    171.55443  0.030224529  0.031166469            4 
  474000    1.1946858   -6.9241859    172.74265  0.030369664  0.031158764            4 
  475000    1.1490197   -6.9706939    172.83876  0.030322589  0.031150949            3 
  476000    1.1945399   -6.9370391    173.23857  0.030328882  0.031143725            2 
  477000    1.1739478   -6.9875228     173.2122  0.030260692  0.031135517            2 
  478000    1.1872023   -6.9949203    173.72956   0.03028758  0.031127799            2 
  479000    1.1597104   -6.9537155    174.13946  0.030295662  0.031120651            2 
  480000    1.1944522   -6.9879122     174.0415  0.030215539  0.031113337            3 
  481000    1.1373412   -6.8891469     175.5649   0.03041665  0.031106184            4 
  482000    1.1773165   -6.9272695     175.2409  0.030297528  0.031099008            1 
  483000    1.1512775   -6.9987047    175.46396  0.030273285  0.031092072            5 
  484000    1.1725875   -6.9976794    175.69099  0.030249826   0.03108453            4 
  485000    1.2073945   -6.9729504    176.30039  0.030292163  0.031077156            3 
  486000    1.1799636   -6.9313742    177.68321  0.030466942  0.031070295            3 
  487000    1.2061488   -6.9025296    177.65379  0.030399348  0.031064198            2 
  488000    1.1552731   -6.9572479    177.43519  0.030299725  0.031057862            2 
  489000    1.1813502   -6.9736138     177.6444  0.030273415  0.031050538            4 
  490000     1.172401   -6.9547145    178.00149  0.030272363  0.031043546            3 
  491000     1.194391   -6.8954653    179.29736  0.030430645  0.031036998            1 
  492000    1.1447862   -6.9700725    178.74529  0.030275287  0.031030281            5 
  493000    1.1862098   -6.9344137    179.50436  0.030342184  0.031023471            3 
  494000      1.16781   -6.9424451    179.43323  0.030268764  0.031016086            2 
  495000    1.1953916   -6.9513965    179.87695  0.030282314  0.031009239            3 
  496000     1.175297   -6.9744153    180.18259  0.030272613  0.031002129            2 
  497000    1.1410147   -6.9436039    180.09747  0.030197429  0.030995411            1 
  498000    1.1766964   -6.9428331    181.01279  0.030289959  0.030988648            3 
  499000    1.1625219    -6.968794    181.00833  0.030228511  0.030981712            2 
  500000    1.1802306    -6.987674    181.43406   0.03023901  0.030974649            5 
  501000    1.1940688   -6.9340278    182.14848  0.030297485  0.030967733            2 
  502000    1.1507306    -6.952229    181.53012  0.030134483  0.030960062            2 
  503000    1.1779688   -6.9593127    181.89631   0.03013524  0.030952562            9 
  504000    1.1689789   -6.9541938    182.24705  0.030133441  0.030944953            9 
  505000    1.1747781   -6.9173319    183.23211  0.030236321  0.030937638            2 
  506000    1.1770613    -6.944158    183.33784   0.03019398  0.030929986            1 
  507000    1.1603922   -6.9625858    184.07613  0.030255775  0.030922334            2 
  508000    1.1578818   -6.9477265    184.38768  0.030247323  0.030915623            3 
  509000    1.1487457   -6.9909742    183.86636  0.030102548  0.030908734            2 
  510000    1.1499072   -6.9490102    184.88132  0.030209365  0.030901465            3 
  511000    1.1803782    -6.965429    185.48159   0.03024814  0.030894462            1 
  512000      1.17601   -6.9619059     184.9097   0.03009598  0.030888123            8 
  513000    1.1659544   -6.9929281    185.47082  0.030128464   0.03088171            3 
  514000    1.1612603   -6.9296383    186.94157  0.030308295  0.030875368            3 
  515000    1.1620803   -6.9708753    186.56332   0.03018824  0.030868885            2 
  516000    1.1811005   -6.9704788    187.59134   0.03029576  0.030862579            1 
  517000     1.173095   -6.9521682    187.41216  0.030208279  0.030856139            3 
  518000    1.1792198   -6.9970775    188.36739  0.030303634  0.030850217            8 
  519000    1.1692942   -6.9624315    187.72014   0.03014132  0.030843864            4 
  520000    1.1665712   -6.9325924    189.71133  0.030402457  0.030838057            3 
  521000    1.1546658   -6.9801753    189.29994  0.030278301  0.030832567            6 
  522000    1.1878471   -6.9660579    189.70991  0.030285745  0.030826948            5 
  523000    1.1749118   -6.9287654    190.70968  0.030387139  0.030821055            4 
  524000      1.14505   -6.9891083    190.03107  0.030221225  0.030815535            3 
  525000    1.1803266    -6.904303    191.44207  0.030387631  0.030809869            3 
  526000    1.1921203   -6.9257556    191.28899  0.030305607  0.030805004            1 
  527000    1.1731962   -6.9557485    191.04411  0.030209378  0.030798961            3 
  528000    1.1680741   -6.9287347     190.7742  0.030109564    0.0307921            3 
  529000    1.1679023   -6.9693139    191.36311  0.030145418  0.030785513            4 
  530000    1.1576025   -6.9613976    191.66104  0.030135383  0.030779378            2 
  531000    1.1900342   -6.9699118    192.37523  0.030190714  0.030773182            5 
  532000    1.1600209   -6.9632625    192.32801  0.030126568  0.030767375            2 
  533000    1.1578451   -6.9981987    192.14497  0.030041428  0.030760927            3 
  534000    1.1558372   -7.0122431    192.26198  0.030003431   0.03075402            5 
  535000    1.1553912    -6.975743      193.502  0.030140498  0.030747181            2 
  536000    1.1846178   -6.9829168    193.67286  0.030110831  0.030740243            4 
  537000    1.1808056   -6.9891396    194.32597  0.030156109  0.030733463            3 
  538000    1.1750422   -6.9921861    194.19694  0.030080071  0.030726714            2 
  539000    1.1859016   -7.0064754    193.19869  0.029869927  0.030719682            6 
  540000    1.1878755   -6.9899236    194.52439  0.030019196  0.030713194            2 
  541000    1.1682773   -7.0268548     194.2901  0.029927619  0.030706316            5 
  542000    1.1805578    -6.916434    195.84786  0.030111909  0.030699486            2 
  543000    1.1520745   -6.9922104    195.60664  0.030019435  0.030692536            3 
  544000    1.1541972    -6.989034    195.94091  0.030015458  0.030685441            2 
  545000    1.1571417   -6.9740614    196.06206  0.029978908  0.030678445            2 
  546000    1.1732063   -6.9545889    196.36803  0.029970701   0.03067111            2 
  547000    1.1676919   -6.9699518    196.52782  0.029940253  0.030664197            3 
  548000     1.176035   -6.9996464     196.3599  0.029860083  0.030657344            2 
  549000    1.1647555   -6.9605782    198.15722  0.030078509  0.030650462            3 
  550000    1.1670248   -6.9672471    197.97584  0.029996339  0.030644218            2 
  551000     1.153261   -6.9369798    198.73188  0.030056243  0.030637554            2 
  552000    1.1685308   -6.9268975    198.77353  0.030008081  0.030630933            1 
  553000    1.1684052    -6.978897    198.74568  0.029949621  0.030623934            2 
  554000    1.1771923   -6.9689195    199.41951  0.029996918  0.030616488            2 
  555000    1.1487105   -6.9210001    200.09509  0.030044308  0.030609692            1 
  556000    1.1713909   -6.9728206    199.46926  0.029896472  0.030603096            3 
  557000     1.156198   -6.9388119    201.17626  0.030098184  0.030596387            3 
  558000    1.1633267   -6.9858287    200.32678   0.02991738  0.030589985            3 
  559000    1.1348689    -7.003675    200.44268  0.029881139  0.030582812            3 
  560000    1.1778698   -6.9663272    201.79503  0.030029022   0.03057605            2 
  561000    1.1431971   -7.0161507    201.00374  0.029857953  0.030569409            2 
  562000    1.1755741    -6.967055    201.78759  0.029921054  0.030562399            8 
  563000    1.1621477   -6.9870455    202.26219  0.029938157  0.030555512            3 
  564000    1.1451565   -6.9824079    202.66839  0.029945094  0.030548889            1 
  565000    1.1853524   -7.0009214    203.02995  0.029945421  0.030542502            3 
  566000    1.1572528   -7.0027496    203.39191  0.029945806  0.030536255            2 
  567000    1.1785791   -6.9689693    204.48231  0.030053249  0.030530431            2 
  568000    1.1742376   -7.0227717    203.45321  0.029849355  0.030523924            8 
  569000    1.1756419   -7.0018313    204.52039  0.029953192  0.030517013            3 
  570000    1.1573256   -6.9745212    204.33117  0.029872977  0.030510036            5 
  571000     1.152522   -6.9762843    205.15361   0.02994069  0.030503281            1 
  572000    1.1519832   -6.9889535    204.71222  0.029824041  0.030496568            3 
  573000    1.1636389   -6.9993568    205.07573  0.029824859  0.030489886            5 
  574000    1.1504839   -6.9971666    205.61346  0.029850967   0.03048341            4 
  575000    1.1357966   -6.9780018    205.46064  0.029776905  0.030476739            2 
  576000    1.1772344   -7.0151623    206.17967  0.029829235   0.03046976            4 
  577000    1.1615185    -7.001311    206.40425  0.029809972  0.030462697            3 
  578000    1.1609311   -6.9587211    207.27946  0.029884582  0.030455454            2 
  579000    1.1646473   -7.0095233    206.62119  0.029738225  0.030447932            6 
  580000    1.1684086   -7.0428061    206.38302  0.029652733  0.030439844            5 
  581000    1.1615658   -6.9867251     207.1138  0.029706511  0.030431833            2 
  582000      1.15999    -6.993773     207.4223  0.029699642  0.030423801           15 
  583000     1.144569   -6.9888091     208.0669  0.029740837  0.030415624            1 
  584000     1.150052   -7.0436824    207.77162  0.029647777  0.030407609            1 
  585000    1.1595865   -6.9897125    208.28553  0.029670304  0.030399669            3 
  586000    1.1584387   -7.0416558    208.22531  0.029611108  0.030391589            3 
  587000    1.1447374   -6.9977645    209.59556  0.029755191  0.030383722            3 
  588000    1.1725644   -7.0326594    209.39044  0.029675516  0.030376269            2 
  589000    1.1597855   -7.0468404    209.27293  0.029608507  0.030368663            5 
  590000    1.1559424   -7.0192037    210.08881  0.029673561  0.030360917            2 
  591000    1.1570106   -6.9776508    210.83582  0.029728684  0.030353638            2 
  592000    1.1507124   -7.0385938    210.64584  0.029651722  0.030346345            3 
  593000    1.1360857   -6.9722636    211.59881   0.02973564  0.030339033            4 
  594000    1.1533249   -7.0280865    211.46309  0.029666539  0.030331889            7 
  595000    1.1877879    -6.985638     212.0904  0.029704537   0.03032452            3 
  596000    1.1603256   -6.9999683    211.70904  0.029601375  0.030317249            6 
  597000    1.1667007   -7.0058721    213.30826  0.029775023  0.030310095            2 
  598000    1.1543452   -7.0252676    213.41767  0.029740478  0.030303156            3 
  599000    1.1433348   -7.0486041    213.29821  0.029674208  0.030296054            4 
  600000     1.170108   -6.9501748    214.88191  0.029844709  0.030289567            2 
  601000    1.1476758   -6.9902982    213.84162  0.029650806  0.030283103            2 
  602000    1.1213255   -7.0055785    214.79482  0.029733502  0.030276672            2 
  603000    1.1469164   -7.0252286    215.47378  0.029778024  0.030270132            6 
  604000    1.1418051   -6.9982649    215.59713   0.02974574  0.030263228            4 
  605000    1.1462936   -7.0206039    215.51953  0.029685885  0.030256718            3 
  606000    1.1457292   -7.0301798    216.40522  0.029758694  0.030250189            6 
  607000    1.1480176   -7.0873135    215.63435  0.029603838  0.030243697            2 
  608000    1.1534223   -7.0374855    216.87221  0.029724809  0.030237474            3 
  609000    1.1315108    -7.053916    216.19955  0.029583956  0.030231278            1 
  610000    1.1604293   -7.0318067    217.39304  0.029698503  0.030225009            6 
  611000    1.1848998   -7.0177117    217.76957  0.029701251  0.030218903            2 
  612000    1.1503935   -6.9994976    218.19311   0.02971039   0.03021263            2 
  613000    1.1372084   -7.0064753    218.54941  0.029710361  0.030206677            3 
  614000    1.1606351   -7.0435692    218.14911  0.029607643  0.030200605            2 
  615000    1.1468917   -7.0439701    217.75538  0.029506149  0.030193476            4 
  616000    1.1802081   -7.0020725    218.19703  0.029517997   0.03018615            3 
  617000    1.1596466   -7.0063935    219.46643  0.029641604  0.030178792            2 
  618000    1.1641502   -7.0114876    219.99216  0.029664531    0.0301719            4 
  619000    1.1398875   -7.0017016    219.98502  0.029615647  0.030164696            5 
  620000    1.1625081   -7.0029975    220.66449  0.029659206  0.030158069            2 
  621000    1.1501819    -7.025661    219.63656  0.029473505  0.030150679            2 
  622000    1.1476782   -6.9995283    221.10282  0.029622564  0.030143673            3 
  623000     1.161579   -6.9997058    221.69566  0.029654315  0.030136486            1 
  624000     1.158943   -7.0019483      220.952  0.029507479  0.030128628            3 
  625000    1.1423827   -7.0277554    220.55648   0.02940753  0.030120984            2 
  626000    1.1400966    -7.038011    221.49788  0.029485873  0.030113384            3 
  627000     1.134795   -7.0108858    222.62208  0.029588261  0.030105952            1 
  628000     1.175981   -6.9894237     222.4293  0.029515565  0.030099136            2 
  629000    1.1338486   -6.9788672    224.28084  0.029713943  0.030092641            1 
  630000     1.152873   -7.0054968    223.78967  0.029601808  0.030086637            4 
  631000    1.1302358   -6.9857986    224.03581  0.029587402  0.030080688            2 
  632000    1.1541122   -7.0205599    223.77807  0.029506602   0.03007436            2 
  633000    1.1452818   -7.0155874    224.15797  0.029510002  0.030067415            2 
  634000    1.1592096   -7.0340171    224.59583  0.029521008  0.030060854            3 
  635000    1.1547981   -7.0012849    225.71426  0.029621294  0.030054722            4 
  636000    1.1721218   -7.0470221    225.01826  0.029483525  0.030048532            3 
  637000    1.1445342   -7.0487997    225.60316  0.029513757  0.030041852            4 
  638000    1.1273155   -7.0154747    226.85365  0.029630832  0.030035084            6 
  639000    1.1479933   -7.0516613    226.19405  0.029498441     0.030029            3 
  640000     1.167074   -7.0006736    226.76288  0.029526417  0.030022828            5 
  641000    1.1706632   -7.0916848    226.59199  0.029458137  0.030016771            4 
  642000    1.1569693   -7.0812458    226.69931  0.029426183  0.030010279            3 
  643000    1.1350969    -7.017286    227.80735  0.029524022  0.030004115            3 
  644000    1.1181639   -7.0038446    229.03222  0.029636674  0.029998504            2 
  645000    1.1620237   -7.0668089    228.94861  0.029579923  0.029992816            4 
  646000    1.1472458   -7.0144284     228.7083  0.029503134  0.029986491            2 
  647000    1.1359762   -7.0361336    228.83939  0.029474419   0.02998013            3 
  648000    1.1422255   -7.0247512    229.63614  0.029531397   0.02997365            3 
  649000    1.1500499   -7.0041328    230.17614  0.029555232  0.029967341            3 
  650000    1.1599516   -6.9714374    231.25321  0.029647847  0.029961365            2 
  651000    1.1725703   -7.0216372    230.15179  0.029461315  0.029955558            4 
  652000    1.1610961   -7.0670287    230.44389  0.029453462  0.029949857            3 
  653000    1.1610615   -7.0079875    230.50817  0.029416561  0.029943299            3 
  654000     1.151127   -7.0122919    231.29333  0.029471627  0.029937031            3 
  655000    1.1537612    -7.042343     230.4719  0.029322125  0.029930599            2 
  656000    1.1598949    -7.029719    231.64666   0.02942666   0.02992391            1 
  657000    1.1369513   -7.0393161     231.6791  0.029385984   0.02991734            1 
  658000    1.1683277   -7.0329135     232.0419  0.029387272  0.029910026            2 
  659000    1.1255687   -7.0029894    233.26782  0.029497701  0.029903186            4 
  660000    1.1511887   -7.0260168    232.79785  0.029393668  0.029896613            2 
  661000    1.1638247   -7.0491503     232.5804  0.029321785  0.029889127            4 
  662000    1.1494289   -7.0919073    232.81365  0.029306854  0.029881732            2 
  663000    1.1223021   -7.0651322     232.4069  0.029211526  0.029874272            1 
  664000    1.1541524   -7.0331653     233.7036  0.029330272  0.029866988            6 
  665000    1.1464599   -6.9998183    234.86593   0.02943182  0.029859942            5 
  666000    1.1427025   -7.0092663    235.12915  0.029420565  0.029852863            4 
  667000    1.1539944   -7.0300867    234.41594  0.029287349  0.029846431            3 
  668000    1.1303701   -7.0222504    235.35136    0.0293602  0.029839634            3 
  669000    1.1100429   -7.0255688    235.83618  0.029376704  0.029833169            6 
  670000    1.1179467   -7.0825561    235.29649  0.029265732  0.029826379            4 
  671000    1.1333245   -7.0151416    236.03964  0.029314411  0.029819292            2 
  672000    1.1475418   -7.0193717    236.59189  0.029339272  0.029812523            3 
  673000    1.1356966   -7.0493813    236.10618  0.029235535  0.029805827            5 
  674000    1.1619304    -7.051127    236.77612   0.02927499  0.029798444            2 
  675000    1.1418106   -7.0757171    237.18139  0.029281652    0.0297908            3 
  676000    1.1428512   -7.0230308    237.79228  0.029313644  0.029783483            2 
  677000    1.1368171   -7.0238411    236.95375  0.029167128  0.029776274            4 
  678000    1.1601701   -7.0001164    238.48538  0.029312363  0.029768837            7 
  679000    1.1569583   -7.0300614    237.78609  0.029183369   0.02976126            8 
  680000    1.1567745   -7.0824134    237.74797  0.029135781  0.029753651            4 
  681000    1.1477897    -7.004998    238.45557  0.029179586  0.029745946            2 
  682000    1.1237694   -7.0084793     237.9321  0.029072837  0.029738453            2 
  683000    1.1660928   -7.0553595    237.97409  0.029035394  0.029730493            3 
  684000    1.1201336   -6.9819644    239.80716  0.029216271  0.029723092            4 
  685000    1.1463963   -7.0196975    239.61581  0.029150342  0.029715251            2 
  686000    1.1478114   -7.0698815    238.71839  0.028998833  0.029707172            4 
  687000    1.1280499   -6.9838586    239.65969  0.029070801  0.029699205            2 
  688000    1.1357593   -7.0859395    238.86131  0.028931845  0.029690846            2 
  689000     1.147951   -7.0300461    239.71793   0.02899346  0.029682374            2 
  690000    1.1302898   -7.0093443     240.9746  0.029103212  0.029674271            2 
  691000    1.1483412   -7.0306793    241.00432  0.029064679  0.029666546            4 
  692000    1.1506653   -7.0566767    241.12446  0.029037145  0.029658346            2 
  693000    1.1274716   -7.0486151    240.63629  0.028936542  0.029649935            3 
  694000    1.1468393    -7.074515    240.92182  0.028929133  0.029641462            3 
  695000    1.1651003   -7.1021222    241.19717  0.028920524   0.02963308            1 
  696000    1.1632911   -7.0398062    243.07961  0.029104359  0.029625509            3 
  697000    1.1446918   -7.0184946    242.79464  0.029028531   0.02961777            2 
  698000      1.12757   -7.0171122    243.06577  0.029019313  0.029610384            3 
  699000    1.1297189   -7.0441246    243.48675  0.029027987  0.029602576            4 
  700000    1.1350533   -7.0729549    243.52452  0.028991014  0.029594774            2 
  701000    1.1436202   -7.0633201    243.70655  0.028971297  0.029586745            2 
  702000    1.1366898   -7.0570861     244.4374  0.029016786  0.029578737            2 
  703000    1.1292792   -7.0292198    244.93319   0.02903428  0.029570641            2 
  704000    1.1482255   -7.0236062     245.0591  0.029007943  0.029562417            4 
  705000     1.109715   -7.0540043    244.56934  0.028908905  0.029554016            2 
  706000     1.154923   -7.0266986    244.50846  0.028860772  0.029545551            2 
  707000     1.116419   -7.0751191    244.45042  0.028813109  0.029537112            2 
  708000    1.1146829    -7.038659    245.78745  0.028929785  0.029528613            2 
  709000    1.1303486   -7.0433677    245.65021   0.02887285  0.029520264            2 
  710000    1.1293934   -7.0414131    246.33063  0.028912046  0.029512025            4 
  711000    1.1550525   -7.0345185    247.72966  0.029035357  0.029503981            4 
  712000    1.1307715    -7.070797    246.38886  0.028837648  0.029495557            3 
  713000    1.1330988   -7.0686202    246.83845  0.028849749  0.029486824            9 
  714000     1.131955   -7.0989101    246.44474  0.028763392  0.029478218            6 
  715000    1.1294887   -7.0821617    247.47368  0.028843087  0.029469752            6 
  716000    1.1708682    -7.051339    249.21862  0.029005891  0.029461642            3 
  717000    1.1335792   -7.0372635      249.013  0.028941539  0.029453774            2 
  718000    1.1255688    -7.059427    249.05911  0.028906581  0.029445835            4 
  719000    1.1187488   -7.0506832    249.25052  0.028888563  0.029438163           10 
  720000    1.1084695   -7.0944788    248.84943  0.028802017   0.02943018            3 
  721000    1.1542191   -7.1002731    249.32723  0.028817295  0.029422355            4 
  722000    1.1432076   -7.0717748    250.53117  0.028916341  0.029414648            6 
  723000    1.1377777   -7.0700801    249.04051  0.028704531  0.029406673            3 
  724000    1.1290278   -7.0454099    250.31299  0.028811348  0.029398676            3 
  725000    1.1526865   -7.0911656    250.01922  0.028737842  0.029390194            5 
  726000    1.1284939   -7.0574812    251.32737  0.028848413  0.029381994            2 
  727000    1.1582832   -7.0456861    251.43001  0.028820497  0.029374046            5 
  728000    1.1418257   -7.0735719    251.59051   0.02879928  0.029366333            2 
  729000    1.1304287   -7.0998528    251.67446  0.028769371   0.02935852            4 
  730000    1.1405018   -7.1042452    252.34787  0.028806835  0.029350793            4 
  731000    1.1653745   -7.0968931    253.27385  0.028872988  0.029343016            2 
  732000     1.144229   -7.0736645    252.90203  0.028791215  0.029335169            3 
  733000    1.1219054   -7.0928949    252.76706  0.028736591  0.029327455            2 
  734000    1.1494215   -7.0453656    253.64999  0.028797683  0.029319831            2 
  735000    1.1349883   -7.0479389    253.29458  0.028718207  0.029312012            1 
  736000    1.1113582   -7.0687066    253.06759  0.028653487  0.029303793            2 
  737000     1.130817   -7.0692315    253.80351  0.028697818  0.029295567            4 
  738000    1.1520429    -7.073263    253.42764   0.02861649  0.029287334            2 
  739000    1.1359744   -7.0438009     253.7136  0.028610014  0.029278562            4 
  740000    1.1294204   -7.0721937    253.51153  0.028548596  0.029270082            4 
  741000    1.1515009   -7.0456775    254.69518  0.028643183  0.029261524            3 
  742000    1.1220199   -7.0092614     254.9005   0.02862764  0.029252875            3 
  743000    1.1631859   -7.0601031    254.88741  0.028587641  0.029244501            2 
  744000    1.1078218   -7.0607841    256.17975  0.028693969  0.029236267            2 
  745000    1.1223288    -7.101585    255.57574   0.02858789  0.029227833            6 
  746000     1.104811   -7.0975529    255.02925  0.028488522  0.029219498            5 
  747000     1.120089   -7.0951469    255.86823   0.02854398  0.029211194            3 
  748000    1.1363164   -7.0799774     256.7566  0.028604791  0.029203006            4 
  749000    1.1355097   -7.0766831    257.30249  0.028627336  0.029194814            3 
  750000    1.1141815    -7.091235    257.88728  0.028654142  0.029186638            3 
  751000    1.1387728   -7.0909396    257.50136  0.028573165  0.029178684            5 
  752000     1.144779   -7.0654905      258.864  0.028686171  0.029170715            3 
  753000    1.1083565   -7.0645381    258.22526  0.028577386  0.029162554            2 
  754000     1.131481   -7.0809881    258.80114  0.028603132  0.029154225            3 
  755000     1.131333   -7.0992319    258.27211  0.028506856  0.029145679            2 
  756000     1.136819   -7.0785277    258.47705  0.028491739  0.029136949            1 
  757000    1.1311086    -7.077369    258.58188  0.028465641  0.029128391            4 
  758000    1.1192097   -7.1047647    258.36949  0.028404738  0.029119825            3 
  759000    1.0856572   -7.0213072     259.5049  0.028491974  0.029111236            4 
  760000    1.1385377   -7.0735511    259.73083  0.028479258  0.029102759            2 
  761000    1.1230034    -7.089065    259.63925  0.028431805  0.029093883            2 
  762000    1.1117922   -7.0868526    259.65942    0.0283967  0.029084886            2 
  763000    1.1195605   -7.1299717    259.97952  0.028394443  0.029075787            2 
  764000    1.1384192   -7.0661656    260.42774  0.028406167  0.029066501            3 
  765000    1.0908878   -7.0672381    261.42741  0.028477931  0.029057632            3 
  766000    1.1294421   -7.1280724    259.96657  0.028281828  0.029048634            7 
  767000    1.1028176     -7.11607    260.22082  0.028272579  0.029039553            3 
  768000    1.1369021   -7.0723705    261.52594   0.02837738   0.02903038            2 
  769000     1.105582   -7.0737503    261.87524  0.028378331  0.029021439            2 
  770000    1.1300706   -7.0577091    262.08932  0.028364645  0.029013146            2 
  771000    1.1351538   -7.0241712    262.68357  0.028392085  0.029004722            5 
  772000    1.1301544   -7.0515726    263.20131  0.028411195  0.028996525            1 
  773000    1.1182218   -7.0781307    263.83471  0.028442724  0.028988436            2 
  774000    1.1122331    -7.103236     263.2788  0.028346124  0.028980301            2 
  775000    1.1256407   -7.0520968    264.63666  0.028455555  0.028972037            5 
  776000    1.1060909    -7.131228    263.67969  0.028316118  0.028963708            3 
  777000    1.1015871   -7.0577438    264.89152  0.028409644  0.028955475            3 
  778000    1.1218102   -7.0656394    265.45079  0.028433033  0.028947228            2 
  779000     1.100394    -7.069666    265.00568  0.028348918  0.028939101            4 
  780000    1.1400364   -7.0904695    264.73789  0.028283962  0.028930815            3 
  781000    1.1212278   -7.0943566     265.3488  0.028312932  0.028922186            7 
  782000    1.1512461   -7.1034157    264.85098  0.028223677  0.028913459            3 
  783000    1.1351792   -7.0771981    266.02562  0.028312646  0.028904881            1 
  784000    1.1077413   -7.0700011    267.05043  0.028385462  0.028896263            5 
  785000    1.1261522   -7.0847665    266.73451  0.028315765  0.028887742            5 
  786000    1.1006885   -7.1133314    267.54315  0.028365474  0.028879288            4 
  787000     1.115728   -7.0875012    267.84497   0.02836139  0.028871075            2 
  788000    1.1444559   -7.0759437    267.14323  0.028251187   0.02886287            4 
  789000    1.1440407   -7.1059718    268.32363  0.028340054  0.028854824            2 
  790000    1.1277304   -7.0988765    268.99161  0.028374643    0.0288469            1 
  791000    1.1266283   -7.1128538    268.68221  0.028306175  0.028838981            1 
  792000    1.1349818   -7.1045354    268.54643  0.028256148  0.028831019            6 
  793000    1.1238238   -7.0923078    269.59374  0.028330574  0.028822841            5 
  794000    1.1416906   -7.0785453    269.17377  0.028250815  0.028814763            3 
  795000    1.1390422   -7.0313817    270.79134  0.028384837  0.028807051            3 
  796000    1.1347869   -7.0925539    269.75303  0.028240476  0.028799155            7 
  797000    1.1253863   -7.0937392    270.93871  0.028329016  0.028791044            3 
  798000    1.1104401   -7.0747361    271.06191  0.028306381   0.02878293            4 
  799000    1.1391438   -7.0953886    271.07749  0.028272579  0.028774963            4 
  800000    1.1277265   -7.1080222     270.8348  0.028211958  0.028766671            2 
  801000    1.1356252   -7.0678227    271.69409  0.028266135  0.028758834            3 
  802000    1.1324723   -7.1142215    271.53308   0.02821416  0.028750985            3 
  803000    1.1212772   -7.0916812    271.32391  0.028157318  0.028742604            2 
  804000    1.1201106   -7.1071378    271.33385  0.028123326  0.028734053            3 
  805000    1.1177107   -7.0850029    272.41948  0.028200774  0.028725778            6 
  806000    1.0935681   -7.1224608    272.95245   0.02822089  0.028717202            2 
  807000    1.1062895   -7.1427785    272.02246  0.028089887  0.028708521            3 
  808000    1.0981727   -7.1131892    272.94691  0.028150466  0.028699621            4 
[...]
 4800000   0.48604432   -9.2720974    478.42327 0.0083059595 0.0062844343         3887 
 4801000   0.49434707   -9.2674137    478.26709 0.0083015186 0.0062820702         3893 
 4802000    0.4801045   -9.2560272    478.78717 0.0083088153 0.0062797047         3885 
 4803000    0.4727982   -9.2555221    478.68363 0.0083052889 0.0062773424         3898 
 4804000   0.47882318   -9.2863712    479.20936 0.0083126797 0.0062749817         3884 
 4805000    0.4874165    -9.248294     478.9419 0.0083063112 0.0062726222         3895 
 4806000   0.48748997   -9.2557284     479.0017 0.0083056197 0.0062702634         3886 
 4807000   0.49642674   -9.2481838    478.98715 0.0083036397 0.0062679076         3917 
 4808000   0.48399434   -9.2580256    479.23453 0.0083062002 0.0062655539         3899 
 4809000   0.48099948   -9.2658735    478.95847 0.0082996893 0.0062631998         3897 
 4810000   0.48487233   -9.2654326    478.86381 0.0082963238 0.0062608441         3898 
 4811000   0.47980638   -9.2878301    478.64052 0.0082907316 0.0062584911         3911 
 4812000   0.47790153   -9.2719042    478.91585 0.0082937768 0.0062561407         3914 
 4813000   0.47995922   -9.2694987    478.60133  0.008286608 0.0062537914         3889 
 4814000   0.47767167   -9.2707293    478.03927 0.0082751569 0.0062514432         3910 
 4815000   0.49008781   -9.2730476    479.18812 0.0082933216  0.006249095         3889 
 4816000   0.48973352    -9.269253    479.36122 0.0082945948 0.0062467475         3922 
 4817000   0.48056404   -9.2807929    478.98875 0.0082864292 0.0062444018         3901 
 4818000   0.48907654   -9.2723276    478.57006 0.0082774675  0.006242056         3891 
 4819000   0.48490428   -9.2701025    478.82173 0.0082801018 0.0062397147         3905 
 4820000   0.47814248   -9.2626118    478.81425 0.0082782546 0.0062373724         3897 
 4821000   0.47207077   -9.2633266    479.55929 0.0082894159 0.0062350334         3893 
 4822000   0.47377863   -9.2722455    478.70432 0.0082729214 0.0062326937         3906 
 4823000   0.47938986   -9.2744363     478.5396   0.00826836 0.0062303567         3913 
 4824000   0.47997424   -9.2777061    478.82342 0.0082715489 0.0062280197         3881 
 4825000   0.48032348    -9.268009    478.49863 0.0082642251 0.0062256835         3882 
 4826000   0.48195076   -9.2660969    478.95586 0.0082704079 0.0062233495         3912 
 4827000   0.47731163   -9.2646921    479.15953 0.0082722106 0.0062210174         3910 
 4828000   0.47261722   -9.2755234      478.322 0.0082560412 0.0062186848         3878 
 4829000   0.48475906   -9.2767871    478.59877 0.0082591076 0.0062163524         3907 
 4830000    0.4796306   -9.2671182    478.86822 0.0082620466 0.0062140217         3913 
 4831000   0.46892281   -9.2670029    478.35254 0.0082514411 0.0062116935         3911 
 4832000   0.47623161   -9.2746246    478.27803 0.0082484483 0.0062093665         3913 
 4833000   0.48697079   -9.2800123    479.04927 0.0082600399 0.0062070388         3895 
 4834000   0.49761036   -9.2579949     478.4563 0.0082481089 0.0062047135         3914 
 4835000   0.47265284    -9.265082    478.33384 0.0082442924 0.0062023891         3902 
 4836000   0.48341131   -9.2787495    478.33136 0.0082425448 0.0062000675         3907 
 4837000   0.48057523   -9.2741852    479.38739 0.0082590344 0.0061977453         3883 
 4838000   0.47444898     -9.25976    478.60236 0.0082438053 0.0061954248         3898 
 4839000   0.47475487   -9.2797328    478.42411 0.0082390319  0.006193106         3898 
 4840000    0.4700245   -9.2864372    477.81888 0.0082269091 0.0061907864         3899 
 4841000    0.4727026   -9.2751122    478.31503 0.0082337505 0.0061884686         3889 
 4842000   0.48013351   -9.2751274    478.53173 0.0082357794 0.0061861531         3889 
 4843000   0.48265454   -9.2773447    479.18999 0.0082454056 0.0061838396         3895 
 4844000    0.4755731   -9.2750559    477.77902 0.0082194298 0.0061815258         3916 
 4845000   0.47346015   -9.2712977    477.94409 0.0082205726 0.0061792152         3891 
 4846000   0.46566938   -9.2681208    478.90728 0.0082354396 0.0061769046         3871 
 4847000    0.4798935   -9.2642925    478.75988 0.0082312063 0.0061745954         3891 
 4848000   0.47045693   -9.2808951    478.78122 0.0082298752 0.0061722865         3899 
 4849000   0.47784134   -9.2828165    478.23732 0.0082188307 0.0061699798         3902 
 4850000   0.48320909   -9.2926437    478.60763 0.0082234987 0.0061676731         3897 
 4851000   0.47843162   -9.2916966    478.36103 0.0082175674 0.0061653667         3912 
 4852000   0.46936924   -9.2686176    478.26735 0.0082142647 0.0061630619         3893 
 4853000   0.47294157   -9.2759975    478.73931 0.0082206763 0.0061607587         3903 
 4854000   0.47392352   -9.2938559    478.33798 0.0082120928 0.0061584562         3910 
 4855000   0.47238701   -9.2852302    478.16748 0.0082074748  0.006156154         3910 
 4856000   0.48188528   -9.2568289    479.28172  0.008224906 0.0061538551         3916 
 4857000   0.46671477   -9.2726184     478.4835 0.0082095173  0.006151557         3914 
 4858000    0.4763201   -9.2710299    477.49802 0.0081909225 0.0061492588         3895 
 4859000   0.48702971   -9.2702686    479.07487 0.0082162803  0.006146963         3907 
 4860000   0.47287519   -9.2911625    478.32634 0.0082017549 0.0061446678         3897 
 4861000   0.47387098   -9.2861031    478.75881 0.0082074814 0.0061423743         3904 
 4862000   0.46920118   -9.2872831    478.60322 0.0082031266 0.0061400814         3904 
 4863000   0.47193819   -9.2813896    478.64387 0.0082021364  0.006137789         3914 
 4864000   0.46890066   -9.2732013    478.11693 0.0081914222 0.0061354975         3908 
 4865000   0.47291512   -9.2917697    478.20396 0.0081912291 0.0061332077         3900 
 4866000   0.47378535   -9.2725052    478.45794 0.0081938955 0.0061309192         3882 
 4867000   0.46678187   -9.2771488    477.76387 0.0081803279 0.0061286307         3898 
 4868000   0.47576178   -9.2695245    479.42405 0.0082070675 0.0061263449         3901 
 4869000   0.46866559   -9.2889186     478.2756 0.0081857259 0.0061240595         3892 
 4870000   0.46646573   -9.2792857    478.83534 0.0081936232 0.0061217747         3890 
 4871000   0.46228741   -9.2809113    478.34683 0.0081835837 0.0061194926         3909 
 4872000   0.48069859   -9.2722627    478.37122 0.0081823211 0.0061172112         3893 
 4873000   0.46696098   -9.2640151    478.53823  0.008183498 0.0061149302         3902 
 4874000   0.48065468   -9.2810628    478.31447 0.0081779932 0.0061126515         3924 
 4875000   0.47651426   -9.2755422    478.40318 0.0081778321  0.006110373         3922 
 4876000   0.47290343   -9.2888138    478.16475   0.00817208 0.0061080948         3917 
 4877000   0.46941489   -9.2904421    478.48095 0.0081758073 0.0061058186         3894 
 4878000   0.46116511    -9.271035    478.45756 0.0081737317 0.0061035431         3901 
 4879000   0.45838744   -9.2747381    478.57385 0.0081740426 0.0061012686         3904 
 4880000    0.4558257   -9.2848811    478.94183 0.0081786515 0.0060989968         3907 
 4881000    0.4641555   -9.2824784    478.31834  0.008166331 0.0060967259         3899 
 4882000   0.47150348   -9.2933898    478.49206 0.0081676235 0.0060944555         3914 
 4883000   0.46782924   -9.2928394    478.42898 0.0081648744 0.0060921864         3913 
 4884000   0.46752843   -9.2921344    478.31142 0.0081611968 0.0060899182         3909 
 4885000   0.47343255   -9.2840697    478.44029 0.0081617246 0.0060876509         3905 
 4886000   0.49025416   -9.2836298    478.63151 0.0081633154 0.0060853848         3890 
 4887000   0.47415776   -9.2846971    478.37673 0.0081573004 0.0060831189         3915 
 4888000   0.46317818   -9.2853371    477.82498 0.0081462251 0.0060808551         3908 
 4889000   0.47092331   -9.2812581    478.40166 0.0081543884 0.0060785938         3910 
 4890000   0.47142828   -9.2963601    478.09565  0.008147506 0.0060763315         3910 
 4891000   0.47393866   -9.2815637    479.02216 0.0081616262 0.0060740741         3912 
 4892000   0.46152573   -9.2809745    478.54314 0.0081517979  0.006071815         3894 
 4893000   0.47153532    -9.288483    478.49256 0.0081492704 0.0060695583         3912 
 4894000   0.46648959   -9.2818477    478.93341 0.0081551118 0.0060673024         3905 
 4895000   0.47034005   -9.2807906    478.42015 0.0081447081 0.0060650465         3924 
 4896000   0.47034992   -9.2977979    479.02062 0.0081532648 0.0060627926         3899 
 4897000   0.47622298   -9.2950783    478.47893  0.008142382   0.00606054         3911 
 4898000   0.48408678   -9.2960571    478.71572 0.0081447481 0.0060582886         3919 
 4899000   0.46384628    -9.290329    478.93739 0.0081468564 0.0060560379         3907 
 4900000   0.46378401   -9.2829722    478.26748 0.0081338006 0.0060537871         3887 
 4901000   0.45803673   -9.2824105    478.71897 0.0081398179 0.0060515377         3907 
 4902000   0.46876268   -9.2810205    477.94492 0.0081249986 0.0060492891         3901 
 4903000   0.46470793   -9.2859925    478.58949 0.0081342969 0.0060470421         3924 
 4904000   0.46451438   -9.2929397    478.45108 0.0081302861 0.0060447966         3913 
 4905000   0.47111089   -9.2854434    479.27417 0.0081426124 0.0060425541         3898 
 4906000   0.45921414    -9.293125    477.96455 0.0081187075 0.0060403099         3918 
 4907000   0.47159383   -9.2960277    478.55948 0.0081271565 0.0060380679         3910 
 4908000   0.46746744   -9.2927979    477.93898  0.008114965 0.0060358269         3911 
 4909000   0.47572374    -9.277766    479.03951 0.0081319941 0.0060335871         3901 
 4910000   0.47084613   -9.2887233    478.64612 0.0081236613 0.0060313487         3918 
 4911000   0.47020366   -9.2891085    477.79272  0.008107526 0.0060291104         3896 
 4912000   0.46471337   -9.2716846    478.15582 0.0081120356 0.0060268731         3906 
 4913000   0.46900946   -9.2886282     478.5335 0.0081167905 0.0060246376         3911 
 4914000   0.45922622   -9.3044352    478.37003 0.0081123665 0.0060224035         3901 
 4915000    0.4586281   -9.2964916    478.60505 0.0081147008 0.0060201696         3892 
 4916000   0.46441203   -9.2853845    478.51072  0.008111451 0.0060179375         3915 
 4917000    0.4704307   -9.2882555    477.36013 0.0080903011  0.006015706         3914 
 4918000   0.45917733   -9.2848473     478.1203 0.0081015369 0.0060134764         3907 
 4919000   0.47159545   -9.2954593    478.36369 0.0081040132 0.0060112478         3903 
 4920000   0.47094896   -9.2829493    478.42451 0.0081033962  0.006009019         3918 
 4921000   0.46377746   -9.2915466    479.15368 0.0081140973 0.0060067927         3902 
 4922000   0.46852327   -9.2995353    478.15747 0.0080955823 0.0060045665         3912 
 4923000   0.46564147   -9.2885445    478.44982 0.0080988865 0.0060023419         3922 
 4924000   0.46104309   -9.2922835    477.65532 0.0080837957 0.0060001187         3902 
 4925000   0.46227155   -9.2989153    477.87864  0.008085933 0.0059978978         3920 
 4926000   0.45592741   -9.3002648    478.49539 0.0080947251 0.0059956763         3897 
 4927000   0.46316611   -9.2838435     477.7169 0.0080799151  0.005993457         3911 
 4928000   0.46583757   -9.2816945    477.44979 0.0080737586 0.0059912369         3907 
 4929000   0.46333485   -9.2857318    477.71558 0.0080766143 0.0059890196         3918 
 4930000   0.45952666   -9.2862697    478.05181 0.0080806594 0.0059868043         3911 
 4931000   0.45061676    -9.296026    478.34457 0.0080839682 0.0059845889         3908 
 4932000   0.46443208   -9.3022423    478.14341 0.0080789303  0.005982375         3933 
 4933000   0.46239469   -9.2963216    478.61364 0.0080852362 0.0059801602         3904 
 4934000   0.45792088   -9.2933407    478.15028 0.0080757716 0.0059779479         3917 
 4935000    0.4582455   -9.2935123    478.41805 0.0080786568 0.0059757377         3908 
 4936000    0.4661247   -9.2942604    478.61642  0.008080369 0.0059735285         3901 
 4937000   0.46005032   -9.3030414     478.4423 0.0080757934  0.005971319         3923 
 4938000   0.44938195   -9.2969004    477.87391 0.0080645658 0.0059691111         3914 
 4939000   0.46732183   -9.3002429    477.41661 0.0080552172 0.0059669054         3904 
 4940000   0.45513834   -9.3026254    478.06271 0.0080644857 0.0059647016         3912 
 4941000    0.4601689   -9.2993495    477.85491 0.0080593489 0.0059624958         3894 
 4942000   0.45656222   -9.2741962    478.43798 0.0080675498 0.0059602927         3887 
 4943000   0.45689729   -9.2946813    478.07434 0.0080597872 0.0059580897         3915 
 4944000   0.45897137    -9.296506    477.04583  0.008040821 0.0059558887         3897 
 4945000   0.45905496   -9.3071298    478.00809  0.008055411 0.0059536888         3916 
 4946000   0.45694718   -9.3025685    478.25869 0.0080580046 0.0059514906         3900 
 4947000   0.46352266   -9.3037125     478.7841 0.0080652264 0.0059492932         3907 
 4948000   0.46160853   -9.3048186    478.33929 0.0080561051 0.0059470959         3907 
 4949000    0.4632829   -9.3109996    477.96941  0.008048249 0.0059448999         3901 
 4950000   0.45688344   -9.2907336    477.63793 0.0080410426  0.005942706         3908 
 4951000   0.45356344   -9.2942908    477.74954 0.0080412971 0.0059405129         3901 
 4952000   0.45869177   -9.2977752    478.43615 0.0080512277 0.0059383212         3919 
 4953000   0.46089882   -9.2931427    477.94749 0.0080413805 0.0059361285         3904 
 4954000   0.45519627   -9.2980696    477.90548 0.0080390506 0.0059339401         3903 
 4955000   0.45571989   -9.3063785    477.37468 0.0080285011  0.005931751         3899 
 4956000   0.46347965   -9.2911631    478.07811 0.0080387092 0.0059295641         3903 
 4957000   0.46542472    -9.294055    477.96981 0.0080352668 0.0059273765         3905 
 4958000   0.46607682   -9.3052167     478.2215 0.0080378765 0.0059251905         3911 
 4959000    0.4486731   -9.3088015    477.59262 0.0080256876 0.0059230054         3913 
 4960000   0.47609168   -9.3097871     477.9617 0.0080302704  0.005920821         3923 
 4961000   0.47047996   -9.3029964     477.3495 0.0080183682 0.0059186386         3916 
 4962000    0.4639628   -9.2939051    478.16496 0.0080304475 0.0059164582         3897 
 4963000   0.46076214   -9.3053524    478.06421 0.0080271376 0.0059142778         3905 
 4964000   0.46108719   -9.2928835    478.78843 0.0080376784 0.0059120981         3925 
 4965000   0.46302391   -9.3068863    478.14561 0.0080252703 0.0059099197         3892 
 4966000   0.46884014   -9.3069364    477.83113 0.0080183772  0.005907742         3912 
 4967000   0.46140261    -9.302083    477.70597 0.0080146629 0.0059055654         3923 
 4968000    0.4568253    -9.307023    478.38745 0.0080244809  0.005903388         3916 
 4969000   0.45679273   -9.3113338    478.09212 0.0080179131 0.0059012129         3911 
 4970000   0.45713639    -9.298017    477.71324  0.008009947 0.0058990398         3915 
 4971000   0.46897549    -9.308813    477.96849 0.0080126146 0.0058968681         3900 
 4972000   0.45288988    -9.313579    478.10047 0.0080132151 0.0058946975         3906 
 4973000   0.44132073   -9.3133605    477.41028 0.0080000381 0.0058925268         3902 
 4974000   0.45767397   -9.2982041    477.65105 0.0080024637 0.0058903571         3906 
 4975000   0.45027873   -9.3195444    477.48549 0.0079980819  0.005888188         3917 
 4976000   0.46961384   -9.2930667     478.3944 0.0080116962 0.0058860224         3899 
 4977000   0.45350352   -9.3000834    478.30109 0.0080085241 0.0058838583         3909 
 4978000   0.45081542   -9.3038499    477.87013 0.0079997008 0.0058816935         3913 
 4979000   0.45481715   -9.3007744    478.03243 0.0080008106 0.0058795316         3909 
 4980000   0.46367349   -9.3050557    477.65167 0.0079928325 0.0058773699         3919 
 4981000    0.4484941   -9.2977016    477.62921 0.0079908521 0.0058752102         3902 
 4982000   0.45422821   -9.3128123    477.90624  0.007993882 0.0058730504         3916 
 4983000   0.45731404   -9.2964441    477.43208 0.0079843481 0.0058708924         3904 
 4984000   0.45591093   -9.3136117    477.95981 0.0079915699 0.0058687351         3905 
 4985000   0.45233349   -9.3010907    477.67001 0.0079851222 0.0058665776         3882 
 4986000   0.45109041   -9.3051491    477.49913 0.0079806648  0.005864421         3915 
 4987000    0.4506118   -9.2925856    477.63927 0.0079814061 0.0058622663         3892 
 4988000   0.44840447   -9.3181967    477.85865 0.0079834712  0.005860112         3911 
 4989000   0.45100457   -9.3143841    477.86478 0.0079819734 0.0058579597         3911 
 4990000   0.46002268   -9.2952039    477.39039 0.0079724514 0.0058558071         3913 
 4991000   0.46338309   -9.3044578     477.4821 0.0079723853 0.0058536574         3919 
 4992000   0.44989401   -9.3033836    477.99714  0.007979386 0.0058515094         3903 
 4993000   0.45321084   -9.3100925    477.17004 0.0079639836 0.0058493608         3901 
 4994000    0.4485591   -9.3183012    478.04714 0.0079770247 0.0058472118         3892 
 4995000   0.45889248    -9.309572    477.60148 0.0079679926 0.0058450658         3919 
 4996000   0.46582841   -9.3167885    477.59361 0.0079662665 0.0058429199         3913 
 4997000   0.45685109   -9.3037111    477.68953 0.0079662719 0.0058407765         3908 
 4998000   0.45275954   -9.3050564    477.89554 0.0079681129 0.0058386354         3909 
 4999000   0.44550686    -9.306248    477.67356 0.0079628186 0.0058364937         3908 
 5000000   0.45330914   -9.3028831    478.30565 0.0079717608 0.0058343546         3923 
 5001000   0.44704653   -9.3142768    476.97184 0.0079479411 0.0058322156         3888 
 5002000   0.46155368   -9.3040828    478.08493 0.0079648962 0.0058300767         3902 
 5003000   0.44603333   -9.3101932    477.12651 0.0079473401 0.0058279406         3895 
 5004000   0.44587105   -9.3038157    478.46586 0.0079680565 0.0058258041         3901 
 5005000   0.45003579   -9.2907402    477.61395 0.0079522802 0.0058236682         3914 
 5006000   0.44735196   -9.3073706    477.77058 0.0079532991 0.0058215335         3908 
 5007000   0.44798027   -9.3178462    477.24966 0.0079430407 0.0058193992         3926 
 5008000   0.45739898   -9.3069865    477.68746 0.0079487397 0.0058172673         3923 
 5009000   0.43589563   -9.3172966    477.71253 0.0079475698 0.0058151352         3895 
 5010000   0.45258568    -9.315392    477.54223 0.0079431509 0.0058130045         3914 
 5011000   0.44299284   -9.3164497    476.93743 0.0079315079 0.0058108773         3910 
 5012000   0.44617835   -9.3165751    477.66162 0.0079419663 0.0058087497         3901 
Loop time of 13236.5 on 48 procs for 5000000 steps with 4000 atoms

Performance: 65274.196 tau/day, 377.744 timesteps/s
99.4% CPU use with 48 MPI tasks x no OpenMP threads

MPI task timing breakdown:
Section |  min time  |  avg time  |  max time  |%varavg| %total
---------------------------------------------------------------
Pair    | 974.6      | 1065.7     | 1173       | 171.9 |  8.05
Neigh   | 94.156     | 97.915     | 100.87     |  19.4 |  0.74
Comm    | 848.94     | 954.23     | 1047.7     | 183.4 |  7.21
Output  | 18.506     | 18.511     | 18.603     |   0.3 |  0.14
Modify  | 10918      | 10972      | 11009      |  22.1 | 82.89
Other   |            | 127.7      |            |       |  0.97

Nlocal:        83.3333 ave          91 max          77 min
Histogram: 2 0 8 11 7 12 2 3 2 1
Nghost:        2455.40 ave        2469 max        2437 min
Histogram: 1 2 2 7 3 11 9 5 3 5
Neighs:        17112.7 ave       19394 max       15085 min
Histogram: 4 6 9 1 7 4 5 4 5 3
FullNghs:      34224.4 ave       37677 max       31505 min
Histogram: 2 4 5 9 11 8 4 2 2 1

Total # of neighbors = 1642773
Ave neighs/atom = 410.69325
Neighbor list builds = 265983
Dangerous builds = 0

#clear
#
#next RN
#
#jump SELF
Total wall time: 3:40:40
