
units lj                  # Use reduced LJ style units
atom_style atomic         # Uncharged point particles
atom_modify map hash      # Needed for indexing of clusters etc
                          # Used to be able to find where atoms are in relation to each other.

lattice fcc 1.0 spacing 1 1 1
Lattice spacing in x,y,z = 1.5874011 1.5874011 1.5874011
region box block 0 10 0 10 0 10 units lattice
create_box 2 box
Created orthogonal box = (0.0000000 0.0000000 0.0000000) to (15.874011 15.874011 15.874011)
  3 by 4 by 4 MPI processor grid
create_atoms 1 box
Created 4000 atoms
  using lattice units in orthogonal box = (0.0000000 0.0000000 0.0000000) to (15.874011 15.874011 15.874011)
  create_atoms CPU = 0.004 seconds
set type 1 type/fraction 2 0.39 78393
Setting atom values ...
  1580 settings made for type/fraction
mass 1 1.0
mass 2 1.0
pair_style lj/cut  3.5
pair_modify tail  yes
pair_coeff 1  1  1.0  1.0   # Intearaction between 1 and 1 set with epsilon = 1 and sigma = 1
pair_coeff 1  2  1.5  0.8
pair_coeff 2  2  0.5  0.88

write_data data.0
System init for write_data ...
Neighbor list info ...
  update every 1 steps, delay 10 steps, check yes
  max neighbors/atom: 2000, page size: 100000
  master list distance cutoff = 3.8
  ghost atom cutoff = 3.8
  binsize = 1.9, bins = 9 9 9
  1 neighbor lists, perpetual/occasional/extra = 1 0 0
  (1) pair lj/cut, perpetual
      attributes: half, newton on
      pair build: half/bin/atomonly/newton
      stencil: half/bin/3d
      bin: standard
WARNING: Not all mixed pair coeffs generated from mixing. Use write_data with 'pair ij' option to store all pair coeffs. (../write_data.cpp:312)


#############################
#   M E L T   S Y S T E M   #
#############################

velocity all create 2.4 1741580 mom yes dist gaussian # Assign velocities
                                                    # Temperature 2.4, random number seed, zero linear momentum
                                                                                # Gaussian distribution

timestep 0.002   # simulation timestep
thermo 1000       # output thermodynamic data every 1000 steps bf 100

# Define a fix  in this case with index 1 applied to all
# particles in the simulation. This fix is for simulations
# in the anisotropic NPT ensemble. Note that we use the MTK
# correction.
fix 1 all npt temp 2.4 2.4 0.1 iso 5.68 5.68 0.5 mtk yes tchain 5 pchain 5 # Use NPT ensemble
                                                                         # Set temperature and pressure and damping
                                                                         # Numbers of thermostats in chain and in barostat
run 10000          # run for 10000 steps
Per MPI rank memory allocation (min/avg/max) = 3.642 | 3.644 | 3.648 Mbytes
Step Temp E_pair E_mol TotEng Press Volume 
       0          2.4   -5.9084669            0   -2.3093669   -4.1681406         4000 
    1000    2.4095049   -5.0293002            0   -1.4159464    5.7365542     3904.286 
    2000    2.4116742   -5.0768447            0   -1.4602379    5.6707058    3888.6089 
    3000    2.3679554   -5.0312817            0   -1.4802366    5.7063816    3908.2287 
    4000    2.4157263   -5.0779656            0   -1.4552821    5.9836429    3861.8443 
    5000    2.3517422   -5.0023522            0   -1.4756208    5.7220232    3910.1448 
    6000    2.4050154   -5.0202332            0    -1.413612    5.9406312    3890.4396 
    7000    2.4107445   -5.0293585            0   -1.4141458    5.4640962    3936.7289 
    8000    2.3960562   -5.0215924            0   -1.4284066    5.6400001    3922.0913 
    9000    2.3923541   -5.0684337            0   -1.4807996     5.780958     3882.168 
   10000    2.4829458   -5.0704425            0   -1.3469549    5.8228085    3883.8043 
Loop time of 2.49308 on 48 procs for 10000 steps with 4000 atoms

Performance: 693119.129 tau/day, 4011.106 timesteps/s
99.7% CPU use with 48 MPI tasks x no OpenMP threads

MPI task timing breakdown:
Section |  min time  |  avg time  |  max time  |%varavg| %total
---------------------------------------------------------------
Pair    | 1.0944     | 1.1724     | 1.285      |   3.7 | 47.02
Neigh   | 0.20707    | 0.2148     | 0.23255    |   1.1 |  8.62
Comm    | 0.73012    | 0.85275    | 0.9267     |   5.1 | 34.20
Output  | 0.0002376  | 0.00024361 | 0.00030794 |   0.0 |  0.01
Modify  | 0.21232    | 0.2376     | 0.26387    |   3.3 |  9.53
Other   |            | 0.01533    |            |       |  0.61

Nlocal:        83.3333 ave          90 max          76 min
Histogram: 2 3 7 4 4 9 2 13 2 2
Nghost:        1675.25 ave        1703 max        1655 min
Histogram: 3 6 7 7 9 5 5 3 2 1
Neighs:        9820.90 ave       10891 max        8710 min
Histogram: 2 4 5 4 11 5 6 4 4 3

Total # of neighbors = 471403
Ave neighs/atom = 117.85075
Neighbor list builds = 901
Dangerous builds = 165

# Equilibrate just above the melting temperature to avoid step fn in T

fix 1 all npt temp 1.25 1.25 0.1 iso 5.68 5.68 0.5 mtk yes tchain 5 pchain 5
run 2000
Per MPI rank memory allocation (min/avg/max) = 3.643 | 3.645 | 3.649 Mbytes
Step Temp E_pair E_mol TotEng Press Volume 
   10000    2.4829458   -5.0704425            0   -1.3469549    5.8228085    3883.8043 
   11000     1.246071   -6.9945491            0   -5.1259099    5.4807302    3122.1994 
   12000     1.228657   -7.1065182            0   -5.2639934    5.8015838    3077.5146 
Loop time of 0.607659 on 48 procs for 2000 steps with 4000 atoms

Performance: 568739.711 tau/day, 3291.318 timesteps/s
99.7% CPU use with 48 MPI tasks x no OpenMP threads

MPI task timing breakdown:
Section |  min time  |  avg time  |  max time  |%varavg| %total
---------------------------------------------------------------
Pair    | 0.25726    | 0.28838    | 0.33166    |   2.6 | 47.46
Neigh   | 0.038704   | 0.041034   | 0.044606   |   0.6 |  6.75
Comm    | 0.18687    | 0.22892    | 0.2601     |   3.2 | 37.67
Output  | 5.1903e-05 | 5.3604e-05 | 6.8338e-05 |   0.0 |  0.01
Modify  | 0.039745   | 0.044526   | 0.04841    |   1.1 |  7.33
Other   |            | 0.004754   |            |       |  0.78

Nlocal:        83.3333 ave          90 max          73 min
Histogram: 1 1 1 1 10 8 8 10 7 1
Nghost:        1954.31 ave        1983 max        1936 min
Histogram: 9 2 6 11 3 9 1 4 2 1
Neighs:        12423.9 ave       13793 max       10952 min
Histogram: 3 2 2 7 7 10 7 3 5 2

Total # of neighbors = 596345
Ave neighs/atom = 149.08625
Neighbor list builds = 143
Dangerous builds = 15

#############################
# L I N E A R  Q U E N C H  #
#############################

# Define solid atoms. This closely follows ten Wolde  Ruiz-Montero and Frenkel  Faraday Discuss  1996  104  93-110
# Compute components of the per-atom q6 vector
compute q6 all orientorder/atom degrees 1 6 components 6 nnn NULL cutoff 1.3 # compute the Q6 parameter.
                                                                             # Use all neighbours within 1.3 unit cell.

# get number of connections
compute coord_number all coord/atom orientorder q6 0.5

# An atom is solid if it has 8 or more connections (of a possible 14)
variable is_solid atom c_coord_number>=8
group solid dynamic all var is_solid    # Must be dynamic to update
dynamic group solid defined

# do clustering
compute cluster solid cluster/atom 1.3 # Create a cluster where all atoms within are solid and max 1.3 units from another member

# define chunks one chunk per cluster
compute clus_chunks solid chunk/atom c_cluster nchunk every compress yes  # Says which atoms are in which chunk

# count the size of each chunk
compute size_chunks solid property/chunk clus_chunks count


# Find the maximum entry in the vector of chunk sizes
variable max_n equal max(c_size_chunks)


# Thermo style which includes this variable
# thermo_style custom step temp pe vol v_max_n

thermo ${N}  # Print the thermo information every 100 steps
thermo 1000  

# Reset the npt fix at a lower temperature (below freezing)
fix 1  all npt temp  ${temp} ${temp}  0.1  iso  5.68  5.68  0.5  mtk yes tchain  5  pchain  5
fix 1  all npt temp  0.45 ${temp}  0.1  iso  5.68  5.68  0.5  mtk yes tchain  5  pchain  5
fix 1  all npt temp  0.45 0.45  0.1  iso  5.68  5.68  0.5  mtk yes tchain  5  pchain  5

dump dmp2 all dcd ${N} traj.dcd
dump dmp2 all dcd 1000 traj.dcd


compute msd all msd com yes
variable twopoint equal c_msd[4]/6/(step*dt+1.0e-6)
fix 9 all vector 10 c_msd[4]
variable fit equal slope(f_9)/6/(10*dt)
thermo_style custom step temp pe c_msd[4] v_twopoint v_fit v_max_n

fix 1 all npt temp 1.25 ${temp} 0.1 iso 5.68 5.68 0.5 mtk yes tchain 5 pchain 5
fix 1 all npt temp 1.25 0.45 0.1 iso 5.68 5.68 0.5 mtk yes tchain 5 pchain 5
run 5000000 # 5000000  # Run for this many steps
Neighbor list info ...
  update every 1 steps, delay 10 steps, check yes
  max neighbors/atom: 2000, page size: 100000
  master list distance cutoff = 3.8
  ghost atom cutoff = 3.8
  binsize = 1.9, bins = 8 8 8
  4 neighbor lists, perpetual/occasional/extra = 1 3 0
  (1) pair lj/cut, perpetual
      attributes: half, newton on
      pair build: half/bin/atomonly/newton
      stencil: half/bin/3d
      bin: standard
  (2) compute orientorder/atom, occasional
      attributes: full, newton on
      pair build: full/bin/atomonly
      stencil: full/bin/3d
      bin: standard
  (3) compute coord/atom, occasional
      attributes: full, newton on
      pair build: full/bin/atomonly
      stencil: full/bin/3d
      bin: standard
  (4) compute cluster/atom, occasional
      attributes: full, newton on
      pair build: full/bin/atomonly
      stencil: full/bin/3d
      bin: standard
Per MPI rank memory allocation (min/avg/max) = 9.823 | 9.830 | 9.835 Mbytes
Step Temp PotEng c_msd[4] v_twopoint v_fit v_max_n 
   12000     1.228657   -7.1065182            0            0 8.3333333e+20            1 
   13000    1.2344031   -7.0831077   0.48024983 0.0030785244   0.03938549            2 
   14000    1.2236826   -7.1468379   0.93630777 0.0055732603   0.03893986            1 
   15000    1.2303253   -7.0620891    1.4196456 0.0078869197  0.038940834       -1e+20 
   16000    1.2374341   -7.1227792    1.8249649  0.009505025  0.038185277            1 
   17000     1.267443   -7.0810279     2.307279  0.011310191  0.038018923            1 
   18000    1.2691714   -7.1026124    2.7263321  0.012621908  0.037676522            2 
   19000    1.2677551   -7.1345511     3.190891  0.013995136  0.037438955            3 
   20000    1.2447448   -7.0732701    3.6082553  0.015034397  0.037446979            3 
   21000    1.2490361   -7.0889493    3.9931679  0.015845904  0.037198181            2 
   22000    1.2697359   -7.0581008     4.431956  0.016787712  0.036830606            2 
   23000    1.2697971   -7.1172307    4.8634416  0.017621165  0.036617224            3 
   24000    1.2127502    -7.054145    5.2785301  0.018328229  0.036453949            1 
   25000    1.2829675   -7.1310871     5.734427  0.019114756  0.036388769            1 
   26000    1.2472811   -7.1011047    6.2005147  0.019873444  0.036393412            1 
   27000    1.2890705   -7.0526262    6.5378749  0.020178626  0.036339469            1 
   28000    1.2522719   -7.1198312    6.9019513  0.020541521  0.036164753            2 
   29000     1.241362   -7.0888888    7.2933642  0.020957943  0.035897913            2 
   30000    1.2350796   -7.1186406    7.7279319  0.021466477  0.035703271            1 
   31000    1.2398461   -7.0781437    8.2033089  0.022051905   0.03555073            3 
   32000    1.2589515   -7.1004937    8.5717504  0.022322266  0.035437537            1 
   33000    1.2415515   -7.1147851    9.1711534  0.023159478  0.035446414            1 
   34000    1.2136578   -7.0614273    9.5648126  0.023443168    0.0354844            1 
   35000    1.2349186   -7.0715739    9.8993791   0.02356995  0.035470894            3 
   36000    1.2823613   -7.1043096    10.149819  0.023494952  0.035373655            2 
   37000    1.2382348   -7.1125149    10.667516  0.024025937  0.035242592            1 
   38000    1.2389804   -7.0622946    11.181407  0.024520628  0.035187225            2 
   39000    1.2542576   -7.0521609    11.626423  0.024842783  0.035206705            2 
   40000     1.248828   -7.1229982    12.124889  0.025260186   0.03527131            1 
   41000    1.2320714    -7.116611    12.530765  0.025469034  0.035326751            2 
   42000    1.2466933   -7.0917691    12.979126  0.025752233  0.035378963            2 
   43000     1.241177   -7.1281043    13.326153  0.025825877  0.035414369            1 
   44000    1.2566297    -7.117161    13.783704  0.026105499  0.035420525            2 
   45000    1.2648198   -7.0935289     14.14536   0.02619511   0.03541886            1 
   46000    1.2439751   -7.1059708    14.573961  0.026402103  0.035406125            1 
   47000    1.2729169   -7.0837063    15.009525  0.026612632   0.03540721            3 
   48000    1.2462409   -7.0803942    15.457372  0.026835715   0.03540227            1 
   49000    1.2250297   -7.1401074    15.751247  0.026787834  0.035389009            1 
   50000    1.2444318   -7.0830207    16.227397  0.027045661  0.035378308            1 
   51000    1.2522738   -7.1073024    16.667635  0.027234698  0.035359407            2 
   52000    1.2488075   -7.1007029    17.043724   0.02731366  0.035335447            1 
   53000    1.2333237    -7.085487    17.547302  0.027590097  0.035321336            3 
   54000    1.2202234   -7.1387683     17.96299  0.027720664  0.035325182            1 
   55000    1.2427727   -7.0529173    18.311915  0.027745325  0.035310908            2 
   56000     1.244206   -7.1041894    18.670536  0.027783535  0.035277894            1 
   57000    1.2432565   -7.1541564    19.128758  0.027966021  0.035256944            1 
   58000    1.2525707    -7.100272     19.60782  0.028172156  0.035245061            1 
   59000    1.2591057   -7.1005753    19.970987  0.028207609  0.035232709            1 
   60000    1.2484862   -7.1052385    20.364793  0.028284434  0.035214056            3 
   61000    1.2324904   -7.1054885    20.978855  0.028659637  0.035227043            3 
   62000    1.2488111    -7.075254    21.480429  0.028871544  0.035242661            2 
   63000    1.2221656   -7.1161765    21.733357  0.028747826  0.035247097            1 
   64000    1.2247334   -7.0769116    22.115116  0.028795724  0.035246565            2 
   65000    1.2282155   -7.1078568    22.462009  0.028797447  0.035234769            1 
   66000    1.2373003   -7.0787756    22.971202  0.029004043  0.035224841            1 
   67000    1.2457795   -7.1499239    23.335643  0.029024432  0.035205925            4 
   68000    1.2400929   -7.1253565    23.804163  0.029171768   0.03519872            1 
   69000    1.2236658   -7.1093093    24.160014  0.029178761  0.035184858            1 
   70000    1.2605627   -7.1319847    24.487964  0.029152338  0.035163327            3 
   71000    1.2489707   -7.1052269    24.848728  0.029165173  0.035135821            1 
   72000    1.2440966   -7.1038703    25.276781  0.029255534  0.035102167       -1e+20 
   73000    1.2607503   -7.0616066      25.6582  0.029290183  0.035069078            2 
   74000    1.2509813   -7.0759106    26.143219  0.029440561  0.035041407            1 
   75000    1.2400969   -7.1024973    26.789329  0.029765921  0.035035705            1 
   76000    1.2472473   -7.0526561    27.392681  0.030035834  0.035049574            1 
   77000    1.2309699   -7.1352791    27.751765  0.030034377  0.035071007            1 
   78000    1.2600434   -7.1088409    28.092825  0.030013702    0.0350906            2 
   79000    1.2345265   -7.0869167    28.580689  0.030148406  0.035106836            2 
   80000    1.2325715   -7.0727277    28.956429  0.030162947  0.035119962            1 
   81000    1.2518938   -7.1443006    29.388683  0.030235271  0.035134466            2 
   82000    1.2512527   -7.0536331    30.063768   0.03055261  0.035156751            1 
   83000    1.2429108   -7.0850492    30.359485   0.03048141  0.035182684            2 
   84000     1.232511   -7.0760593    30.931433  0.030685945  0.035209533            2 
   85000    1.2223359   -7.1307518     31.37983  0.030764539  0.035232575            2 
   86000    1.2314476   -7.1305824    31.628436  0.030647709  0.035249915            1 
   87000    1.2327632   -7.0945422    32.235042  0.030876477  0.035265411            2 
   88000     1.235767   -7.1401971    32.628027  0.030897753  0.035290816            1 
   89000    1.2358805   -7.0582234    33.236034  0.031119882  0.035318034            1 
   90000    1.2368866   -7.1120987    33.355737  0.030884942  0.035343814            2 
   91000    1.2173458   -7.1129636    33.716765  0.030876159  0.035349331            1 
   92000     1.247067   -7.0877005    34.227023  0.031002738  0.035362123            1 
   93000    1.2197005   -7.1411324    34.648584  0.031047118   0.03537713            1 
   94000    1.2540079   -7.1364889    35.176563  0.031184896  0.035392242            3 
   95000    1.2470101   -7.1261055    35.560956  0.031193821   0.03540183            5 
   96000    1.2312786   -7.1613754    36.018504  0.031266062  0.035417502            2 
   97000    1.2303098   -7.0942284    36.414455  0.031283896  0.035433534            2 
   98000     1.217895   -7.1174035    36.769864  0.031266891  0.035445324            1 
   99000     1.250652   -7.1492249    37.152332  0.031273006  0.035455536            2 
  100000    1.2648132   -7.1043872     37.48543  0.031237858  0.035458272            1 
  101000    1.2414541   -7.1256178    37.824439  0.031208283  0.035448366            2 
  102000    1.2385755   -7.1076603    38.254443   0.03125363  0.035438896            1 
  103000    1.2281749   -7.1341072    38.627791  0.031252258  0.035422896            1 
  104000    1.2248349    -7.099764     38.87115  0.031146754  0.035405947            3 
  105000    1.2373778   -7.1048272    39.404187  0.031273164  0.035387301            2 
  106000    1.2233682      -7.1309    39.738519  0.031240974   0.03537364            1 
  107000    1.2238511   -7.1349306    40.364597  0.031436602  0.035367772            1 
  108000    1.2425265   -7.1303094    41.012145  0.031645174  0.035366687            1 
  109000     1.248838   -7.1145565    41.216836  0.031511343  0.035371138            3 
  110000    1.2481475   -7.1160158    41.734604  0.031617124  0.035368839            2 
  111000     1.218224   -7.1543886    42.090431  0.031599423  0.035366213            3 
  112000    1.2144876    -7.131534    42.531376  0.031645369  0.035365815            1 
  113000    1.2168453   -7.1364858    42.824609   0.03158157  0.035362166            2 
  114000    1.2382462   -7.1573014    43.318074  0.031665258  0.035358315            2 
  115000    1.2446486   -7.1163093    43.738596  0.031694635  0.035358484            2 
  116000    1.2098529   -7.1792233    44.204218  0.031755904  0.035355825            2 
  117000    1.2235246   -7.1412971    44.540414  0.031723942  0.035350119            1 
  118000    1.2109222   -7.1182088    44.886654  0.031699614  0.035346769            2 
  119000    1.2254352   -7.0923697    45.638684  0.031959863  0.035346888            1 
  120000    1.2096858   -7.1565189    45.860933   0.03184787  0.035354532            1 
  121000    1.2256713   -7.1721454    46.286845  0.031877992  0.035359476            2 
  122000    1.2224793   -7.1338071    46.854867  0.032004691  0.035360099            3 
  123000    1.2346259   -7.1081692    47.201034   0.03197902  0.035361595            2 
  124000     1.256063   -7.1685778    47.366257  0.031832162  0.035353704            1 
  125000     1.234514   -7.1012208    48.016893  0.032011262  0.035342538            1 
  126000    1.2221294   -7.1074302    48.142767  0.031840454  0.035333615            2 
  127000    1.2394645   -7.0900847    48.879733  0.032073316  0.035322253            1 
  128000    1.2255785   -7.1357859    49.066891   0.03194459  0.035319647            2 
  129000     1.242413    -7.122366    49.636006  0.032064603  0.035312328            2 
  130000    1.2284587   -7.1131906    50.254026  0.032214119  0.035305314            1 
  131000    1.2157539    -7.116937    50.435038  0.032083358  0.035300451            1 
  132000     1.233476   -7.1501245    50.518414  0.031892938   0.03529324            2 
  133000    1.1960146   -7.1291531    51.027056  0.031971839  0.035282295            3 
  134000    1.2135954   -7.1430767     51.33174  0.031922724  0.035269146            1 
  135000    1.2765518   -7.1085432    51.910099  0.032043271  0.035256013            3 
  136000    1.2261834   -7.1251739    52.247164  0.032014194  0.035245837            1 
  137000     1.243472   -7.1335231    52.732028  0.032075443  0.035235489            1 
  138000    1.2039977   -7.1403744    53.247439   0.03215425  0.035232148            1 
  139000     1.237063   -7.1093026    53.871484  0.032297052  0.035230109            1 
  140000    1.2120788   -7.0921853    54.375068  0.032366112  0.035227984            1 
  141000    1.2069261   -7.1257282    54.630927  0.032287782  0.035224581            2 
  142000    1.2160264    -7.145101    55.043917  0.032302768  0.035219708            2 
  143000    1.2131437   -7.1583024    55.387436   0.03227706  0.035216742            1 
  144000    1.2339901   -7.1601638    55.555455  0.032150148  0.035211704            2 
  145000    1.2211821   -7.1502007    55.772677  0.032053262   0.03519671            1 
  146000    1.2089135   -7.1209793    56.401945  0.032192891  0.035184944            1 
  147000    1.2273147    -7.150886    56.754612  0.032173816  0.035172399            1 
  148000    1.2445609   -7.1396668    57.136708   0.03217157   0.03516233            2 
  149000    1.2456081    -7.126661    57.422046  0.032115238   0.03514999            1 
  150000    1.2184002   -7.1312694    57.891836  0.032162131  0.035136781            2 
  151000    1.1956698   -7.1515318    58.421297  0.032241334  0.035124832            3 
  152000    1.2259757   -7.1103026    58.917972   0.03230152  0.035113385            3 
  153000    1.2326225   -7.1375397    59.180412   0.03223334  0.035104032            2 
  154000    1.2179764   -7.1566299    59.806488  0.032362818   0.03509199            1 
  155000    1.2161608   -7.0863841    60.357469  0.032450252  0.035083583            2 
  156000    1.2292799   -7.1294947    60.518674  0.032328352   0.03507567            2 
  157000    1.2483851   -7.1304986    60.946808  0.032349686  0.035068373       -1e+20 
  158000    1.2285125   -7.1470117    61.650949  0.032516323  0.035066445            1 
  159000    1.2350814   -7.1413799     61.88619   0.03243511  0.035060329            1 
  160000    1.2383889   -7.1539074    62.151032  0.032370329  0.035050776            2 
  161000    1.2085846   -7.1332145     62.36772  0.032281428  0.035042326            2 
  162000    1.2224218   -7.1074694    62.773815  0.032291057   0.03502825            2 
  163000    1.2357802   -7.1486315    63.296092  0.032359965  0.035017366            1 
  164000     1.231052   -7.1181417    63.719654  0.032377873  0.035008475            2 
  165000     1.203744   -7.1457992    64.128478   0.03238812  0.034999106            2 
  166000    1.2349732   -7.1555796    64.632346  0.032445957  0.034989806            1 
  167000    1.2152542    -7.125715    65.095767  0.032482917  0.034981001            1 
  168000    1.2197181   -7.1233742    65.314334  0.032397983  0.034971471            2 
  169000    1.2314791   -7.1069774    65.837612  0.032464306  0.034961562            1 
  170000    1.2114656   -7.1658879    66.158024  0.032430404  0.034950758            2 
  171000    1.2090194    -7.122025    66.769248   0.03253862  0.034941705            1 
  172000    1.2092623   -7.1617902    66.961564  0.032442618   0.03493259            2 
  173000    1.2025402   -7.1217784    67.508188  0.032518395  0.034921971            1 
  174000    1.2384605   -7.1133584    67.942507  0.032539515  0.034916074            1 
  175000    1.2319117   -7.1222509    68.536714   0.03263653  0.034908926            1 
  176000    1.2306135   -7.1416823    68.799348  0.032575449  0.034902618            1 
  177000    1.1720579    -7.141139    69.515504   0.03272858  0.034897427            1 
  178000    1.2220364   -7.1920333    69.917858   0.03273308  0.034896346            2 
  179000    1.2045982   -7.1276923    70.252447  0.032705981  0.034897419            1 
  180000    1.1928098   -7.1512844    70.751737  0.032755434  0.034898045            2 
  181000    1.2156445   -7.1402013    71.250737  0.032804207  0.034897336            1 
  182000    1.2142917   -7.1788384    71.478276  0.032728148  0.034896046            2 
  183000    1.2134194   -7.1680624    72.022293  0.032797037  0.034896271            1 
  184000    1.2308264   -7.2001385    72.180531  0.032690458  0.034898291            7 
  185000    1.2076815    -7.146982    73.189766  0.032968363  0.034897675            1 
  186000    1.2290333   -7.1260293     73.40766  0.032888736  0.034898928            1 
  187000    1.2516099   -7.1586632    73.481335  0.032745693  0.034900916            2 
  188000    1.2284756   -7.1886523     74.19635  0.032888453  0.034904728       -1e+20 
  189000     1.203069   -7.1565011    74.999428  0.033068531  0.034909507            2 
  190000    1.1997743    -7.109541    75.565771  0.033142882  0.034916212            2 
  191000    1.2285845   -7.1741452    75.347993  0.032874342  0.034921362            1 
  192000    1.2408045   -7.1761771    75.735064  0.032871122   0.03492391            1 
  193000    1.2097373   -7.1543254    76.123915  0.032868702  0.034925015            1 
  194000    1.2071334   -7.1810466    76.743657  0.032965488  0.034924875            2 
  195000    1.1957979   -7.1158289    77.189554  0.032986989  0.034926369            2 
  196000    1.2095686   -7.1688741    77.284755  0.032859164  0.034925574            3 
  197000    1.1908696   -7.1255197    77.974574  0.032984168  0.034925252            2 
  198000     1.229794   -7.1224975    78.676504  0.033113007  0.034926211            2 
  199000    1.2333394   -7.1778659    78.656747  0.032938336  0.034927661            2 
  200000    1.2278444    -7.159482    79.094828  0.032956178  0.034927741            1 
  201000    1.2357964   -7.1072896    79.769542  0.033071949    0.0349271            1 
  202000     1.233511   -7.1870836    80.005695  0.033005649  0.034927413            2 
  203000    1.2014768   -7.2000126    80.539961  0.033062381  0.034929534            1 
  204000    1.2159518   -7.1298658    81.195924  0.033168269  0.034934534            2 
  205000    1.1789607   -7.1568543    81.118307  0.032974921  0.034936522            1 
  206000    1.2130749   -7.1197168    81.709042   0.03305382  0.034934447            3 
  207000    1.2413858   -7.1395191    81.744405  0.032908376  0.034930891            1 
  208000    1.2452073   -7.1623291    82.228839  0.032944246  0.034927296            2 
  209000    1.2249209   -7.1501166    82.673841  0.032964051  0.034924032            1 
  210000    1.2101872   -7.1563883    83.024509  0.032946234  0.034919706            1 
  211000    1.2388407   -7.1437512    83.239702   0.03287508  0.034915527            2 
  212000    1.1932861   -7.1978491    83.545971  0.032840397   0.03491078            2 
  213000    1.2174242   -7.2117816    84.080877  0.032895492  0.034903288            2 
  214000     1.222614   -7.1514809    84.485687  0.032899411  0.034897105            2 
  215000    1.2188163   -7.1898465    84.829047  0.032879475  0.034891617            1 
  216000    1.2103766   -7.1828796    85.461527  0.032971268  0.034886929            2 
  217000    1.2039966   -7.2056044    85.389496  0.032791665  0.034880976            1 
  218000    1.2005413   -7.1565458    85.578929  0.032713658  0.034873861            1 
  219000    1.2373245   -7.1430003    86.435012  0.032890035  0.034866066            1 
  220000    1.2116259   -7.1200339    87.266638  0.033055545  0.034859612            1 
  221000    1.2148702   -7.1679942    86.769844  0.032718644  0.034849527            2 
  222000    1.2111356   -7.1460332    87.670249  0.032909253  0.034839446            1 
  223000    1.1932794     -7.12859    88.146918  0.032939805  0.034829555            1 
  224000    1.2292965   -7.1989027    88.075609  0.032766224  0.034819516            1 
  225000    1.2261055   -7.1495741     88.69171  0.032848781  0.034809647            1 
  226000    1.2321038   -7.1544385    89.306991  0.032930306  0.034800343            2 
  227000    1.2269987     -7.12485    89.416279  0.032825359  0.034792584            1 
  228000    1.2289913   -7.1564299    89.571655  0.032738178  0.034783491            1 
  229000    1.1888701   -7.1899222    89.784753  0.032672763  0.034772202            1 
  230000    1.2493557   -7.1390852    90.365365  0.032741074   0.03476018            2 
  231000    1.2207122   -7.1823557    90.815381  0.032761681  0.034750346            5 
  232000    1.2222366   -7.1640556     91.66472  0.032925546  0.034742256            1 
  233000    1.1959834   -7.1600221    92.139955  0.032954204  0.034734326            2 
  234000    1.2045507   -7.1575258    92.357853  0.032890973  0.034727896            1 
  235000    1.2004055    -7.133228    92.548576  0.032818644  0.034721732            1 
  236000    1.2163289   -7.1686684    93.103339  0.032875473   0.03471508            1 
  237000    1.2405862   -7.1750742    93.510051  0.032879765  0.034705579       -1e+20 
  238000    1.2268132   -7.2157202    93.594411  0.032771152  0.034698075            2 
  239000     1.220159   -7.1849783    94.169878  0.032834686  0.034691668            5 
  240000    1.2335853   -7.1704142    94.666902  0.032870452   0.03468455            2 
  241000    1.2061502   -7.2136449    95.128301  0.032893603   0.03467707            2 
  242000      1.22606   -7.1780758    95.847559  0.033005358  0.034672138            2 
  243000    1.2212757   -7.1484329    96.633152  0.033138941  0.034668459            1 
  244000    1.2357927   -7.1690978    96.410416  0.032927054  0.034664894            2 
  245000    1.2118815   -7.1482759    97.329628  0.033105316  0.034661409            1 
  246000    1.2211378   -7.1901452    97.239591  0.032940241   0.03465772            1 
  247000    1.1741795   -7.1839086    97.704795  0.032963831  0.034653709            1 
  248000    1.2410501   -7.1742035    98.548668  0.033114472  0.034648619            1 
  249000    1.1997038   -7.1427949    98.916867  0.033104708  0.034645776            1 
  250000      1.20383    -7.162829    99.192472  0.033064157  0.034642922            1 
  251000    1.2354381   -7.1391185    99.747099  0.033116567  0.034638913            1 
  252000    1.2272261   -7.1914651    99.670491  0.032959818  0.034632544            2 
  253000    1.2079217   -7.1918127    99.818256  0.032878213  0.034627232            2 
  254000    1.2174114   -7.1330275    100.58225  0.032999426  0.034620547            2 
  255000    1.2048808   -7.1765232    100.36835  0.032800114  0.034613801            1 
  256000    1.2265781   -7.1393867    101.05604  0.032895846  0.034606649            1 
  257000    1.2037149   -7.1693345    101.63857  0.032956734  0.034598093            1 
  258000    1.2187779   -7.1543678    101.58439  0.032811496  0.034588038            1 
  259000    1.1915964   -7.1577788    102.39277  0.032944906  0.034578814            1 
  260000    1.2042402   -7.1469427    102.75324  0.032933731  0.034571151            2 
  261000    1.1976063   -7.1436515    103.20379  0.032951402  0.034564982            2 
  262000    1.1814471   -7.1558516    103.29602  0.032854967  0.034557408            1 
  263000    1.2042326    -7.177015     103.9767  0.032945722  0.034548595            3 
  264000     1.215668   -7.1896793    103.65755  0.032720186  0.034539056            1 
  265000     1.201668   -7.1773494    103.98435  0.032699481   0.03452812            1 
  266000     1.208679   -7.1576373    104.33428  0.032686179  0.034517494            2 
  267000    1.1910608    -7.207903     104.5151  0.032620194  0.034504982            1 
  268000    1.2078112   -7.1858465    105.19269  0.032709168  0.034492819            2 
  269000    1.1832568   -7.1475249    105.49539  0.032681347  0.034480005            1 
  270000    1.2030193   -7.1983685    105.93744  0.032696741   0.03446706            1 
  271000    1.2066946   -7.1882221    106.34825  0.032702414  0.034455226            2 
  272000     1.224047   -7.2002008    106.81607  0.032725511  0.034443894            2 
  273000    1.1826856   -7.1705658    106.94193  0.032644056  0.034433187            2 
  274000    1.2162962    -7.163917    107.65069  0.032740479   0.03442183            1 
  275000    1.1982942   -7.1970284    107.72621  0.032644307  0.034409636            2 
  276000    1.1833945   -7.1958849    108.01445  0.032613059  0.034396727            2 
  277000    1.2403893   -7.2312137    108.42624  0.032619204   0.03438494            3 
  278000    1.2060618    -7.204556    108.97637  0.032666777  0.034372632            2 
  279000    1.1940448   -7.1675911     109.3776  0.032669534  0.034359887            1 
  280000    1.1798946    -7.196136    109.27525  0.032522396  0.034348503            3 
  281000     1.208921   -7.2176845    109.62471  0.032510294  0.034335308            1 
  282000    1.2258309   -7.1412277    110.22499  0.032572396  0.034323534            1 
  283000    1.2027181   -7.1662268    110.67061  0.032588519  0.034310826            2 
  284000    1.2212522   -7.1403825    111.46458  0.032706742  0.034298891            1 
  285000    1.2182075   -7.1592227    111.48015  0.032596535  0.034287576            1 
  286000    1.1978591   -7.1923463     111.8095  0.032578526  0.034274834            2 
  287000    1.1990923   -7.1964772    111.66979  0.032424446  0.034261733            2 
  288000    1.1854916   -7.1795922    112.65855  0.032597959  0.034248833            1 
  289000    1.1920453     -7.19614    113.06597  0.032602643   0.03423703            1 
  290000    1.2035641   -7.1721129    113.29453    0.0325559  0.034224864            3 
  291000    1.2183102    -7.185634     113.2489  0.032430957   0.03421234            2 
  292000    1.1696679   -7.2117998    114.29596  0.032618711   0.03420013            1 
  293000    1.2292444   -7.1795154    114.53535  0.032575468  0.034188401            1 
  294000    1.2148132    -7.187959    115.26716  0.032672097  0.034176911            1 
  295000    1.1954023   -7.1322116    115.87792  0.032733876  0.034167145            3 
  296000    1.2030242   -7.2258409    115.81532  0.032605664  0.034156322            3 
  297000    1.2061594    -7.184792     116.4842  0.032683557  0.034145035            2 
  298000    1.2137973   -7.1828402    116.21579  0.032498823  0.034132654            1 
  299000    1.1794867   -7.1733544      116.895  0.032579433  0.034121387            3 
  300000    1.1899113   -7.1620754    117.21783  0.032560508  0.034109679            1 
  301000    1.2192135   -7.1449758    117.62629  0.032565418  0.034098333            1 
  302000    1.1848683   -7.1657441    117.90438  0.032534321  0.034087317            2 
  303000    1.2102834   -7.1651626    118.02887  0.032461185  0.034075369            1 
  304000    1.1749203   -7.1958709    118.10077  0.032374113  0.034063018            2 
  305000    1.1850065   -7.1578673    119.43346  0.032632092  0.034051079            1 
  306000    1.2061222   -7.2112161    119.17776  0.032455818  0.034039354            2 
  307000     1.188052   -7.1955633    119.42961  0.032418461  0.034027153            1 
  308000    1.2254253   -7.2467381    119.87041  0.032432469  0.034014355            1 
  309000    1.1804695   -7.2041857    120.35577  0.032458406  0.034001981            1 
  310000    1.1963505   -7.2102231    120.99227  0.032524804  0.033990682            2 
  311000    1.2135837   -7.2102611    121.33948  0.032513259  0.033979458            1 
  312000    1.1825013   -7.1979138     122.0125  0.032588809  0.033968285            2 
  313000    1.1882832   -7.1862585    121.87776  0.032448818  0.033957596            1 
  314000    1.2141751   -7.2763806    121.65789  0.032287125  0.033946127            2 
  315000    1.1996871   -7.1762633    122.74707  0.032472769  0.033934374            1 
  316000    1.1941901   -7.1913804    123.74398  0.032632906  0.033924052            1 
  317000    1.2098208   -7.1996904    123.20981   0.03238954  0.033912671            5 
  318000    1.1935189    -7.191757    123.78513  0.032438452  0.033901878            1 
  319000     1.181298   -7.1643996    124.36272  0.032487648  0.033890945            2 
  320000    1.1738496   -7.2437845    124.48772  0.032418677  0.033879819            1 
  321000    1.2219855   -7.2227511     124.5805  0.032341771  0.033868187            2 
  322000    1.2019143   -7.1732941     125.1986  0.032401295  0.033855878            3 
  323000    1.1868229   -7.2359423    125.31649  0.032331396  0.033843542            2 
  324000    1.2140394   -7.2241416    125.47776  0.032273085  0.033830631            3 
  325000    1.1843612   -7.2637687    126.19116  0.032356707  0.033818733            2 
  326000    1.1957338   -7.1919324    126.69556  0.032386392  0.033807633            3 
  327000    1.2168404   -7.1959503    127.25649  0.032430298  0.033795435            3 
  328000    1.1782339    -7.211606    127.57401  0.032412097  0.033784641            2 
  329000    1.2030491   -7.2126642    128.17935  0.032466907  0.033774719            2 
  330000    1.1692139   -7.1954055    128.40137   0.03242459  0.033764519            1 
  331000    1.2020105   -7.2045914    129.08811  0.032499525  0.033755668            3 
  332000    1.2038626   -7.2079603    129.63681  0.032539359  0.033746947            1 
  333000    1.1733918   -7.2271009     129.5617  0.032422848  0.033738631            2 
  334000    1.1890596   -7.1952444    130.45326  0.032548218  0.033729608            1 
  335000    1.2054913   -7.2506598    130.34401  0.032423883  0.033720568            2 
  336000    1.2017098   -7.2538716    130.74667  0.032427251  0.033711145            1 
  337000    1.1985074   -7.1763616    131.37313  0.032485938  0.033701225            2 
  338000    1.1873158   -7.1973242    131.24356  0.032357881  0.033691499            5 
  339000    1.1952923   -7.1807858    132.30221  0.032522667  0.033683148            1 
  340000    1.1915129   -7.1479082    133.05113  0.032610572  0.033674893            1 
  341000    1.2144526   -7.2151065    132.90519  0.032479275  0.033666979            2 
  342000    1.1939796   -7.1897538    132.96436  0.032398724  0.033658222            3 
  343000    1.1979109   -7.1986759     133.6383  0.032468003  0.033649231            4 
  344000    1.2173534   -7.1962335    133.89183  0.032435036  0.033640571            2 
  345000    1.1917014   -7.1833662    134.42904  0.032470782  0.033632249            1 
  346000    1.1806263   -7.2256426    134.66435  0.032433609    0.0336244            1 
  347000    1.2048705   -7.1874824    135.72916  0.032595859  0.033617521            1 
  348000    1.1770951    -7.198118    136.34902  0.032650627  0.033611735            1 
  349000    1.1840215   -7.1695538    136.36857   0.03256174   0.03360657            3 
  350000    1.1725144   -7.2240128    136.62469  0.032529689  0.033600735            1 
  351000    1.2019007    -7.225243    136.91025  0.032504807   0.03359343            2 
  352000    1.1994289   -7.2056782    137.06978  0.032450232   0.03358561            2 
  353000    1.1972698   -7.1920129    137.10753  0.032367217  0.033577166       -1e+20 
  354000    1.1830248   -7.2166344    137.49247    0.0323664  0.033568592            1 
  355000    1.2231016   -7.2370217    137.91178  0.032373658  0.033559798            2 
  356000    1.1814202   -7.2146268    138.37941  0.032392183  0.033550556            2 
  357000    1.1930764   -7.2443523    138.30049  0.032283028  0.033540437            1 
  358000    1.2013675   -7.2093288    138.25157  0.032181464  0.033531697            2 
  359000    1.1763729   -7.2033284    139.34906  0.032346578  0.033522116            1 
  360000    1.1664488   -7.2179075    139.45981  0.032282364  0.033512537            1 
  361000    1.1811793   -7.2232312    139.86311  0.032286037  0.033502799            2 
  362000     1.172602   -7.2413952    139.95222  0.032217361  0.033493223            2 
  363000    1.1838598   -7.2233275    140.07056  0.032155776  0.033483279            1 
  364000    1.1767523   -7.2160254    140.81381  0.032237593  0.033474047            1 
  365000    1.1710852   -7.2409593    141.26529  0.032252349  0.033464081            3 
  366000    1.1753683   -7.1988926    141.74035  0.032272393  0.033453565            2 
  367000    1.2147932   -7.1958085    142.33427  0.032319317  0.033443321            1 
  368000    1.1629157   -7.2760858    141.78436  0.032106965   0.03343359            1 
  369000    1.1937066    -7.243539    142.48011   0.03217708  0.033423257            1 
  370000    1.1857054   -7.2253038    143.08788  0.032227001  0.033413843            2 
  371000    1.1594769   -7.2592322    143.25319  0.032177266  0.033404204            2 
  372000     1.190735   -7.2184037    144.00562  0.032259324  0.033394303            1 
  373000    1.1667253   -7.2152515    144.37036  0.032254326  0.033385651            3 
  374000    1.1776897   -7.2419585    144.53171  0.032204036  0.033376644            2 
  375000    1.1780984   -7.1980954    144.87784  0.032195076  0.033366547       -1e+20 
  376000    1.1986461   -7.2161207    145.25468   0.03219297  0.033356377            1 
  377000    1.2187611   -7.1706536    146.00282  0.032272948  0.033346883            1 
  378000    1.1978216   -7.1959488     146.0041  0.032187853  0.033338213            1 
  379000    1.1790788   -7.2206063    146.52441  0.032217328  0.033328916            1 
  380000    1.1790278   -7.2130776    146.74938  0.032181882  0.033319644            3 
  381000    1.1964012   -7.1844559    147.00279  0.032152842  0.033310261            3 
  382000     1.212732   -7.2126978    147.53381  0.032184513    0.0333004            1 
  383000    1.1640835   -7.2183911    147.78289  0.032154676  0.033290494            2 
  384000    1.1985026   -7.2297138    147.59941  0.032031123  0.033280067            1 
  385000    1.2084386    -7.247264    148.48157  0.032138868   0.03326958            1 
  386000    1.2013096   -7.2759084    148.34034  0.032025117  0.033258442            1 
  387000    1.2116605   -7.2049896     148.4573   0.03196755  0.033247035            2 
  388000    1.1809356   -7.2380758    148.77366  0.031953106  0.033235879            2 
  389000    1.1984769   -7.2244077    150.14729  0.032165229   0.03322611            3 
  390000    1.2159364   -7.1947158    150.53039  0.032164613  0.033216978            2 
  391000    1.1966479   -7.2183842    151.07971  0.032199426  0.033207981            1 
  392000    1.1871627   -7.2315903    150.89853   0.03207877  0.033198464            1 
  393000    1.1944401   -7.2364885    151.36596   0.03209626   0.03318809            1 
  394000      1.18915   -7.2511171    151.35612  0.032012715  0.033177758            1 
  395000    1.1633953   -7.2173229    152.58035  0.032189947  0.033168504            2 
  396000    1.1940618   -7.2297803    152.19823  0.032028248  0.033159057            1 
  397000    1.1660438   -7.2047316    153.14724  0.032146777  0.033149677            2 
  398000    1.1867168   -7.2242973    152.87823  0.032009681  0.033140433            1 
  399000    1.1823417    -7.247927    153.40445  0.032039358  0.033130828            2 
  400000    1.1958628   -7.2310636    153.86072  0.032054317  0.033121668            2 
  401000    1.1805594   -7.2564779    154.14217  0.032032871   0.03311336            1 
  402000    1.2052098   -7.2094578    154.65241  0.032058958  0.033104425            1 
  403000    1.1744672   -7.2223649    155.11551  0.032075166  0.033096028            2 
  404000    1.1935586   -7.1996422    156.06824  0.032192294  0.033088237            1 
  405000    1.1520794   -7.2870074    155.71525  0.032040174  0.033080812            2 
  406000    1.1828085   -7.2214958    156.34164  0.032089827  0.033072848            1 
  407000    1.1868774   -7.2104136    157.32133  0.032211575  0.033064722            2 
  408000    1.1895081   -7.2253062    157.43648  0.032156144  0.033056706            2 
  409000    1.1988825   -7.2167633    157.31494  0.032052759  0.033048126            2 
  410000    1.1772357   -7.2197566    158.09515   0.03213316  0.033040969            1 
  411000    1.1824614   -7.2341053    157.93489  0.032022483  0.033033012            2 
  412000    1.1756877   -7.2371188    158.83724  0.032127274    0.0330252            1 
  413000    1.1526793   -7.2261533    158.84108  0.032050257  0.033017188            1 
  414000    1.1766341   -7.2347099    158.79524  0.031963614  0.033009564            1 
  415000    1.2182929   -7.2095269    160.37665  0.032204146  0.033002392            2 
  416000    1.1770499   -7.2403843    160.16047  0.032083427  0.032995415            1 
  417000    1.1824136   -7.2284937     160.6816  0.032110631  0.032988341            2 
  418000    1.1946505   -7.2718485    161.25904  0.032148932  0.032981321            2 
  419000    1.1648476   -7.2637211     161.6402  0.032148012  0.032974311            3 
  420000    1.2026615    -7.215419     161.9141  0.032125813  0.032967151            1 
  421000    1.1919265   -7.2499452    161.63042  0.031993353  0.032959829            2 
  422000     1.162417   -7.2447855     162.8513  0.032158629  0.032953687            2 
  423000    1.2115319    -7.187822    163.79547  0.032268611  0.032947981            1 
  424000    1.1605633   -7.2124594    163.81615   0.03219657  0.032942163            1 
  425000    1.1852909   -7.1996701    164.13567  0.032183466  0.032936809            2 
  426000    1.1810075   -7.2097016    164.76124  0.032230289  0.032930927            1 
  427000    1.1736886   -7.2088018    164.89393  0.032180704  0.032924846            1 
  428000     1.197602   -7.2370411    164.95343  0.032117101  0.032918485            2 
  429000    1.1856936   -7.2470926    165.50525  0.032149427  0.032912187            4 
  430000    1.1924162   -7.2443023    166.19842  0.032208996  0.032906324            2 
  431000    1.1727314   -7.2850656    166.38755  0.032170833  0.032901088            1 
  432000    1.1964842   -7.2411131    167.20961  0.032254941  0.032895623            1 
  433000    1.1478761   -7.1993547     167.5821  0.032252135  0.032891071            4 
  434000    1.1924465    -7.266642    167.42487  0.032147633  0.032886251            2 
  435000     1.189398   -7.2733508    168.00216  0.032184323  0.032881485            3 
  436000    1.1650533     -7.24114    169.19556  0.032338601  0.032877448            1 
  437000    1.1939392   -7.2619124    169.41684  0.032306795   0.03287363            6 
  438000    1.1906582   -7.2064535    169.76571  0.032299413  0.032869572            1 
  439000    1.1881831    -7.209202    170.47235  0.032359975  0.032866026            1 
  440000    1.1709679   -7.2494045     170.0067  0.032198239  0.032862403            1 
  441000    1.1741992   -7.2499196    171.02588  0.032317816   0.03285881            2 
  442000    1.1781086   -7.2089454    171.87356  0.032404517   0.03285547            4 
  443000    1.1511588   -7.2464378    172.11811  0.032377372  0.032853113            1 
  444000    1.2145987   -7.2400165    172.26418  0.032331865  0.032850747            1 
  445000    1.1808836   -7.2536383    172.58987    0.0323202  0.032847999            1 
  446000    1.1952676   -7.2297585    173.01804  0.032327735  0.032845254            3 
  447000     1.217225   -7.2719743     173.1868  0.032286875  0.032841873            3 
  448000      1.17074   -7.2576314    173.62183  0.032295728  0.032839472            2 
  449000    1.1591656   -7.2486848    173.94192  0.032283207  0.032835854            2 
  450000    1.1813699   -7.2504525    173.64798  0.032157034  0.032831723            1 
  451000    1.1799393   -7.2942663    173.78906    0.0321118  0.032827462            1 
  452000    1.1757607   -7.2738251     174.1059  0.032099171  0.032822773            3 
  453000    1.1914604   -7.2582015    174.92704  0.032179367  0.032818519            2 
  454000    1.1594254   -7.3015397    175.37342  0.032190422  0.032814741            2 
  455000    1.1895169   -7.2859287    175.03459  0.032057617  0.032810743            2 
  456000    1.1790776   -7.2527313    176.29918  0.032218418  0.032806782            3 
  457000    1.1652453   -7.2540184    176.55477  0.032194525  0.032802646            4 
  458000    1.1746956   -7.2184929    177.88642  0.032366525  0.032798915            2 
  459000    1.1734918   -7.2301595    177.90571  0.032299511  0.032795919            3 
  460000    1.1847274   -7.2733761    177.62461  0.032178371  0.032792883            1 
  461000    1.1850618    -7.255517    178.25959  0.032223353  0.032788648            1 
  462000    1.1733703   -7.2601835    177.66084  0.032045607  0.032784403            1 
  463000    1.1870639   -7.1944286    179.97404  0.032392736  0.032779757            2 
  464000    1.2019724   -7.2449317    179.45582  0.032229853  0.032776046            3 
  465000    1.1710927   -7.2428644    179.58463  0.032183625  0.032772336            3 
  466000    1.1800433   -7.2396348    180.43366  0.032266392   0.03276859            1 
  467000    1.1607032   -7.3037837    180.59631  0.032226322  0.032764423            1 
  468000    1.1949814   -7.2876387    179.84874  0.032024349  0.032759697            1 
  469000    1.1885476   -7.2657792    180.65535  0.032099387  0.032755411            1 
  470000    1.2060746   -7.2463159    181.35327  0.032154835  0.032750986            2 
  471000    1.1552893   -7.2438664    181.60767  0.032131576  0.032746436            1 
  472000    1.1733531   -7.2749105    182.49641  0.032220411  0.032742753            2 
  473000    1.1801733    -7.244994    182.96916  0.032235581  0.032738364            5 
  474000     1.187685   -7.2567517    182.61075  0.032104562  0.032733703            1 
  475000    1.1825222   -7.2760496    182.46423  0.032011269  0.032729119            2 
  476000    1.1711375   -7.2932408    182.43165  0.031938315   0.03272395            1 
  477000    1.1905899   -7.2137528    183.87164  0.032122928  0.032719259            2 
  478000    1.1840632   -7.2830225    183.77634  0.032039111  0.032714271            2 
  479000    1.1868083    -7.244822    183.98587  0.032008676  0.032709116            1 
  480000    1.1629543   -7.3074448    184.32753  0.032001308  0.032704222            1 
  481000    1.1948866   -7.2753506    184.55989  0.031975032  0.032699116            1 
  482000    1.1660145   -7.2485322    185.95616  0.032150097  0.032694325            1 
  483000    1.1511345   -7.3016525    185.43681  0.031993928  0.032688755            3 
  484000    1.1730525    -7.289232    185.69823  0.031972836  0.032683383            1 
  485000    1.1727554   -7.2929347    186.93792  0.032119918  0.032678551            1 
  486000    1.1821227   -7.2656005    186.36692  0.031955918  0.032673629            2 
  487000    1.1779306   -7.3129718    186.10207  0.031844981  0.032668203            3 
  488000    1.1597499   -7.2666322    187.25469  0.031976551  0.032662941            2 
  489000    1.2004749   -7.3038268    187.51853  0.031956123  0.032657478            2 
  490000     1.166389   -7.2662923    188.30677  0.032024962  0.032651589            1 
  491000    1.1798529   -7.2407408    188.48004  0.031989145  0.032645915            1 
  492000    1.1635478   -7.2330267    188.63534  0.031950431  0.032639542            1 
  493000    1.1933645   -7.2902526     188.7205  0.031900017   0.03263285            1 
  494000    1.1742487   -7.2860403    189.43594  0.031956129  0.032626257            1 
  495000    1.1757404   -7.2786438     189.1922  0.031850539  0.032619968            2 
  496000    1.1753482    -7.254954    189.43354  0.031826871  0.032613538            2 
  497000    1.1851783   -7.2456431    190.84939  0.032000233  0.032607208            1 
  498000    1.1626965   -7.2848306    191.02362   0.03196513  0.032600848            2 
  499000    1.1508437   -7.2765528    190.82308  0.031867582  0.032595391            4 
  500000    1.1935129   -7.3010555    190.90735  0.031817891  0.032589877            1 
  501000    1.1611434   -7.2917182    191.21032  0.031804778   0.03258365            2 
  502000    1.1689185   -7.2826963    191.13497  0.031728913  0.032577091            3 
  503000    1.1452766    -7.235174    192.15334   0.03183455  0.032569973            1 
  504000    1.1846875   -7.2354437     192.5388  0.031835119  0.032563275            1 
  505000    1.1655086   -7.2796553    192.62343  0.031786045  0.032556244            2 
  506000    1.1737917   -7.2980918    192.65197  0.031727927  0.032548661            1 
  507000    1.1793641   -7.2962317    193.14782  0.031746848  0.032540825            3 
  508000    1.1604992   -7.2431229    193.51975  0.031745366  0.032532979            2 
  509000    1.1641513   -7.2487938    194.20091  0.031794517  0.032525059            1 
  510000    1.1673516   -7.2540149    193.77476  0.031662542  0.032517166            1 
  511000    1.1641295   -7.2229878     195.2908  0.031847815  0.032509239            2 
  512000    1.1648609   -7.2393851    194.85563  0.031714783  0.032501538            1 
  513000    1.1657092   -7.2635202    195.12595  0.031696873  0.032493801            1 
  514000    1.1600413   -7.2343567    195.79348   0.03174343  0.032485935            2 
  515000    1.1838894   -7.2286169    195.99578  0.031714528   0.03247842            1 
  516000    1.1874009   -7.2703964    196.17279  0.031681652  0.032470548            1 
  517000     1.143476   -7.2862803    196.69334  0.031704277  0.032462736            1 
  518000    1.1553457   -7.2847865     196.7666  0.031654858  0.032454762            3 
  519000    1.1696124   -7.2590887     197.2436  0.031670456  0.032447288            3 
  520000     1.174029   -7.2747049    197.52447  0.031654563  0.032439433            2 
  521000    1.1825357    -7.276207    197.61235  0.031607862  0.032431757            2 
  522000    1.1753988   -7.2558897    198.50921  0.031690487  0.032424283            2 
  523000    1.1450617   -7.2682375    198.70618  0.031661278  0.032416833            2 
  524000    1.1439463   -7.2873494    198.59046  0.031582452  0.032409198            3 
  525000    1.2020097    -7.274087    198.89615  0.031570817  0.032401437            3 
  526000     1.177773   -7.2847858    198.80434  0.031496252  0.032393104            2 
  527000    1.1599614   -7.2944946    199.73473  0.031583607  0.032384929            2 
  528000    1.1515277   -7.2866474    200.07719  0.031577839  0.032376459            1 
  529000    1.1619325   -7.3274561    199.72648  0.031462899   0.03236759            3 
  530000    1.1796857   -7.2884006     200.7412  0.031563082  0.032358823            3 
  531000    1.1720164   -7.2440861    201.21764  0.031578411  0.032350963            2 
  532000    1.1827541   -7.2853751    201.40761  0.031548811  0.032343175            1 
  533000    1.1693515   -7.2531773    201.51623  0.031506602  0.032334791            2 
  534000    1.1510846   -7.2916602    202.00011  0.031523113  0.032326474            2 
  535000    1.1522154   -7.2710651    203.37123  0.031677762  0.032319193            1 
  536000    1.1510725   -7.2803451    203.40791  0.031624364  0.032311961            1 
  537000    1.1563649   -7.2812301    202.97459   0.03149823   0.03230409            1 
  538000     1.151949   -7.2651106    203.89144  0.031581698  0.032295979            3 
  539000    1.1823937   -7.2724716     203.9639  0.031534307  0.032287578            2 
  540000    1.1657877   -7.2616842    204.11426  0.031499114  0.032278925            8 
  541000    1.1542439   -7.2704051    204.18021   0.03145105  0.032270639            1 
  542000    1.1770481   -7.2394209    205.26153  0.031559276  0.032262928            1 
  543000    1.1862651   -7.2942724    205.19611  0.031491115  0.032255313            1 
  544000    1.1896623   -7.2916321    205.23602  0.031439342  0.032247421            2 
  545000    1.1877751   -7.2607893    205.95907  0.031492212  0.032240108            2 
  546000    1.1837848   -7.2783907     206.6083  0.031533623  0.032232707            2 
  547000    1.1562871   -7.2490549    206.60092   0.03147485  0.032224916            2 
  548000    1.1421215   -7.2676977    207.49432  0.031553272  0.032217497            2 
  549000    1.1812036   -7.2508455    207.74162  0.031533336  0.032210377            2 
  550000    1.1434808   -7.3063948    207.72869  0.031474044   0.03220267            1 
  551000    1.1481369   -7.2743514    208.03034  0.031462543  0.032195126            1 
  552000    1.1450277   -7.2713656    208.76977  0.031517176   0.03218812            2 
  553000    1.1866525   -7.2839605    208.74693  0.031456741  0.032181278            2 
  554000     1.158456   -7.3087186    209.46863  0.031508518  0.032174314            2 
  555000    1.1574638   -7.2907378    209.88435  0.031514166   0.03216788            1 
  556000    1.1838277   -7.2957803     210.7845  0.031592401  0.032161137            2 
  557000    1.1629977   -7.3355819    210.04884  0.031425619  0.032154214            5 
  558000    1.1873434   -7.2826063    210.44337  0.031428221   0.03214723            1 
  559000     1.164893    -7.285773    211.36985  0.031510114  0.032139878            2 
  560000    1.1654241   -7.2714718    211.09683  0.031413218  0.032132847            1 
  561000    1.1632765   -7.2812951    212.35648  0.031544338  0.032125835            3 
  562000    1.1744626   -7.3061045    212.17307  0.031461012  0.032118572            2 
  563000    1.1413765   -7.2627474    212.17649  0.031405638  0.032111117            2 
  564000    1.1301095   -7.3029769    212.80141  0.031442288  0.032103241            4 
  565000    1.1784452   -7.3152363    212.35329  0.031320544  0.032095762            1 
  566000     1.149974   -7.2841555    213.80144  0.031478421   0.03208804            1 
  567000    1.1722867   -7.2773103    213.70729  0.031409067  0.032081306            1 
  568000    1.1560581   -7.3349812    214.09416  0.031410528  0.032074482            2 
  569000      1.15942   -7.2668415    215.22662   0.03152118  0.032066995            2 
  570000    1.1576875   -7.2627238    215.76212   0.03154417  0.032060467            1 
  571000    1.1677799   -7.3253034    215.35215  0.031429094  0.032053865            2 
  572000    1.1583403   -7.2741509    216.00846  0.031469764  0.032047667            3 
  573000    1.1549904    -7.303278    216.40766  0.031472901  0.032041363       -1e+20 
  574000    1.1656325   -7.2942133    216.58654  0.031444039  0.032034879            1 
  575000     1.164804   -7.3239347    216.78633  0.031418309  0.032028047            2 
  576000    1.1456126   -7.3446436    216.57804  0.031333629  0.032020726            1 
  577000    1.1810759   -7.3375576    217.35356  0.031391328  0.032013902            3 
  578000    1.1535108   -7.2599241    218.00283  0.031430627  0.032007424            1 
  579000    1.1873555   -7.3263591    217.57117  0.031314216  0.032000575            2 
  580000    1.1708023    -7.327956    218.10353  0.031336714   0.03199334            1 
  581000    1.1850278    -7.284489    218.62461  0.031357517  0.031985968            1 
  582000    1.1456034   -7.2728362     219.3523  0.031407832  0.031979142            1 
  583000    1.1385534   -7.3292513    218.75194  0.031268144  0.031971891            2 
  584000    1.1725747   -7.3091916    218.99967  0.031249953  0.031964211            1 
  585000    1.1709985   -7.2478689    220.76212  0.031447595   0.03195688            1 
  586000    1.1889912   -7.2875367    220.13694  0.031305025  0.031949893            1 
  587000    1.1514832   -7.3039293    220.60205  0.031317724  0.031942677            3 
  588000     1.165284   -7.3194353    220.74869  0.031285246  0.031935678            3 
  589000    1.1688657   -7.2924135    220.64722  0.031217773  0.031928721            1 
  590000     1.170846   -7.2743895    221.93884  0.031347294  0.031921422            1 
  591000     1.171081   -7.2639073    221.27972  0.031201314  0.031914759            1 
  592000     1.168944   -7.3495973    221.78101  0.031219174  0.031907862       -1e+20 
  593000    1.1431042   -7.2972526    222.74901  0.031302558  0.031900802            2 
  594000     1.174439   -7.3206876    221.83308  0.031121364  0.031893523            4 
  595000    1.1322479   -7.2926253    224.05815  0.031380693  0.031886482            1 
  596000    1.1472283   -7.3314989    223.40448  0.031236644  0.031879331            2 
  597000    1.1500148   -7.3273977     223.3623  0.031178434  0.031871942            1 
  598000    1.1313815     -7.25707    224.73821  0.031318034  0.031864706            2 
  599000    1.1781345   -7.2494876    224.32053  0.031207642  0.031856912            1 
  600000    1.1892698   -7.3310023     223.5952  0.031054888  0.031849035            3 
  601000    1.1542052   -7.3064669    224.62879  0.031146532  0.031841282            1 
  602000    1.1214204   -7.2868474    224.82179   0.03112151  0.031833745            3 
  603000    1.1596101   -7.3048437    225.31381  0.031137895   0.03182617            2 
  604000    1.1772058    -7.311476    226.44541  0.031242468  0.031818601            1 
  605000    1.1588023   -7.2678397    226.20858  0.031158207  0.031811034            5 
  606000    1.1483258   -7.3526636      226.266  0.031114686  0.031803083            1 
  607000    1.1666552   -7.3181228    226.36083  0.031076446  0.031794829            1 
  608000    1.1542061   -7.3599846    225.86028  0.030956727  0.031786451            3 
  609000    1.1767601   -7.3135456    226.95521  0.031055722   0.03177791            1 
  610000    1.1645664   -7.3344039    226.15281  0.030895193  0.031769239            1 
  611000    1.1556529   -7.2799417    228.29952  0.031137414  0.031760847            2 
  612000    1.1411994   -7.2724348    228.35893  0.031094626  0.031752921            2 
  613000    1.1531512   -7.3480823    227.30714  0.030900916  0.031744409            3 
  614000     1.177081   -7.3485394    228.14344  0.030964094  0.031735475            1 
  615000    1.1353983   -7.3073104    228.64178  0.030981271  0.031726854            2 
  616000    1.1522465   -7.3369561    228.32197  0.030887713  0.031717885            2 
  617000    1.1455455   -7.3288734    228.65168  0.030882183  0.031708596            1 
  618000    1.1555484   -7.3173698    229.43072  0.030937259  0.031699662            2 
  619000    1.1595359   -7.2938767     229.8619  0.030945328  0.031690865            5 
  620000    1.1597286   -7.3196569    230.39987  0.030967724  0.031682305            3 
  621000    1.1754528   -7.3070677    230.71321  0.030959905  0.031673368            3 
  622000    1.1568047   -7.2572714    230.94699  0.030941451  0.031664849            2 
  623000    1.1487033   -7.3224083    231.14165  0.030917823  0.031656376            1 
  624000    1.1678303   -7.3073352    231.55599  0.030923609  0.031647664            1 
  625000    1.1689689   -7.2843294    231.86521  0.030915361  0.031638792            1 
  626000    1.1550656   -7.3465539    232.08558  0.030895311  0.031630364            1 
  627000    1.1665062   -7.2696693    232.60352  0.030914874  0.031621672            1 
  628000    1.1416522   -7.2731965    232.63138  0.030869344  0.031613121            2 
  629000     1.162956   -7.3098758    233.38427  0.030920015  0.031604496            1 
  630000    1.1853888   -7.3049778    233.63975  0.030904729  0.031596046            4 
  631000    1.1632762   -7.3214588    234.64713  0.030988791   0.03158794            1 
  632000    1.1541047   -7.3407715    233.85022   0.03083468   0.03157996            2 
  633000    1.1449994   -7.2906591    235.48349  0.031000987  0.031572232            1 
  634000    1.1633863   -7.3103499    235.79462  0.030992984  0.031564869            2 
  635000    1.1225897   -7.2806379    234.95331  0.030833767  0.031557051            3 
  636000    1.1386617   -7.3051393    236.02602  0.030925841   0.03154934            2 
  637000    1.1694212   -7.3008585    236.47331  0.030935807  0.031541878            2 
  638000     1.141065   -7.3542999    236.86213  0.030938105  0.031534171            3 
  639000    1.1535615   -7.3317571    237.37698  0.030956831  0.031527278            4 
  640000    1.1530493    -7.318555    237.76915  0.030959525   0.03152009            3 
  641000    1.1540802   -7.3201796    238.18266  0.030964984  0.031513416            1 
  642000     1.128005   -7.3402836    238.93934  0.031014972  0.031506787            1 
  643000    1.1626318   -7.3490084    238.58059  0.030920242  0.031500181            1 
  644000    1.1534708   -7.3089468    239.89282  0.031042032   0.03149334            1 
  645000    1.1153852   -7.3239539    239.42151  0.030933012  0.031486872            1 
  646000    1.1148901   -7.3161555    240.61812  0.031039489  0.031480246            2 
  647000    1.1287153   -7.2709594    240.79305  0.031014045   0.03147409            2 
  648000    1.1500653   -7.2919796    240.73029  0.030958113  0.031468243            3 
  649000    1.1593263    -7.307305    242.15772  0.031093698  0.031461858            3 
  650000    1.1399194   -7.3292363    241.72022  0.030989772  0.031456003            1 
  651000    1.1439893   -7.2960694    241.95103  0.030971714  0.031450063            1 
  652000    1.1447605   -7.3037257     242.6859  0.031018136  0.031444316            2 
  653000    1.1419147   -7.3041802     243.5021  0.031074795  0.031438272            3 
  654000    1.1495462   -7.2965012    242.38731  0.030885233  0.031432011            1 
  655000    1.1437529   -7.3264964    243.17724  0.030938581  0.031425722            3 
  656000    1.1501508   -7.3397543      244.169  0.031017404   0.03141937            1 
  657000    1.1501935   -7.3038974    245.25744   0.03110825   0.03141316            2 
  658000     1.154427   -7.3241719    244.59348  0.030976885  0.031407206            1 
  659000    1.1563323   -7.3265406    245.42999  0.031035659   0.03140188            2 
  660000    1.1178457   -7.3512978      245.335  0.030976642  0.031396041            2 
  661000    1.1390657   -7.3516053    245.38191  0.030935692  0.031390171            1 
  662000    1.1726327   -7.3134872    246.38119  0.031014752  0.031384314            1 
  663000    1.1351747   -7.3245623    245.52419  0.030860255  0.031378093            4 
  664000    1.1416423   -7.3676581    245.60697  0.030824167  0.031371538            2 
  665000    1.1267339   -7.3514412    245.75241  0.030796041  0.031364663            2 
  666000    1.1613008   -7.3467539    247.24856  0.030937007  0.031357659            1 
  667000    1.1335056   -7.3244164    246.26455  0.030767684  0.031350866            2 
  668000    1.1604907   -7.2929265    248.05174  0.030944578  0.031343886            1 
  669000    1.1393313   -7.2914379    249.03085  0.031020286  0.031337553            4 
  670000    1.1318545   -7.3442597    248.71506  0.030934709  0.031331545            1 
  671000    1.1414312   -7.3535028    248.57873  0.030871675  0.031325158            1 
  672000    1.1490715   -7.3396769    248.75833  0.030848007  0.031319168            1 
  673000    1.1370728   -7.3688945    249.00077  0.030832191  0.031312983            1 
  674000    1.1549925   -7.3667474    250.05175  0.030916388  0.031306841            1 
  675000    1.1447836   -7.3218589    250.07277  0.030873181  0.031300308            1 
  676000    1.1587231   -7.3180386    250.82612  0.030920379  0.031293944            3 
  677000    1.1500379    -7.326141    251.09651   0.03090799  0.031288287            2 
  678000    1.1538682   -7.3467482    250.97463  0.030847423  0.031282111            4 
  679000    1.1765749   -7.3364736    251.28257  0.030839785  0.031276108            1 
  680000    1.1581365   -7.3532146    251.67505   0.03084253  0.031269674            2 
  681000    1.1626567   -7.3464188    252.46713  0.030894167  0.031263495            2 
  682000    1.1305542   -7.3465993    252.81561  0.030891448  0.031257489            2 
  683000    1.1390906   -7.3784448     252.6461  0.030825537  0.031251931            1 
  684000    1.1299937   -7.3361987    253.92062  0.030935747  0.031246647            3 
  685000    1.1434406   -7.3450272    254.68537  0.030983621  0.031241521            1 
  686000    1.1332595   -7.3435699     253.9598  0.030850316  0.031235884            1 
  687000    1.1469418    -7.308246    255.15596  0.030950504  0.031230428            2 
  688000    1.1267455   -7.3691853    254.23424  0.030793876  0.031224575            4 
  689000    1.1371592   -7.3481808     254.9968  0.030841412  0.031218712            3 
  690000    1.1582895   -7.3190831    255.96118  0.030913186  0.031213096            1 
  691000     1.146383   -7.3525555    255.98318  0.030871102  0.031207813            4 
  692000    1.1418916   -7.2990649    255.86486  0.030812242  0.031202073            1 
  693000    1.1400756    -7.304673    256.32983  0.030823693  0.031196213            4 
  694000    1.1653588   -7.3072868    256.26953  0.030772038  0.031190499            1 
  695000    1.1480193   -7.3256895    256.30789  0.030732361  0.031184108            1 
  696000    1.1345811   -7.3240951    257.09692  0.030782677  0.031177619            1 
  697000    1.1119315   -7.3804352    256.36522  0.030651031  0.031171382            1 
  698000    1.1826002   -7.3954239    256.96098  0.030678245  0.031165075            1 
  699000    1.1304795   -7.3041314    258.11004  0.030771344  0.031158847            3 
  700000     1.140699   -7.4099922    257.31053  0.030632206  0.031152826            3 
  701000    1.1257282   -7.3557615    258.60659  0.030742581  0.031146596            1 
  702000    1.1309045   -7.3341762    259.52362  0.030807647  0.031140732            1 
  703000    1.1443968   -7.3876442    258.28481  0.030616976   0.03113485            1 
  704000    1.1393877   -7.3392556    259.58071  0.030726883   0.03112851            3 
  705000    1.1368408   -7.3273566    260.16296  0.030752123  0.031122304            1 
  706000    1.1355923   -7.3062948    261.24342  0.030836098  0.031116422            1 
  707000    1.1620477   -7.3341124    261.05599   0.03077039  0.031110766            1 
  708000    1.1485636   -7.3729356    260.64892  0.030679016   0.03110496            1 
  709000     1.129588   -7.2984697    261.41074  0.030725287  0.031099321            3 
  710000    1.1306596   -7.3301913    261.80184  0.030727915  0.031093475            1 
  711000    1.1214359   -7.3586045    263.14972  0.030842678  0.031087672            1 
  712000    1.1431023   -7.3554042    262.57363  0.030731933  0.031081841            1 
  713000    1.1477856   -7.3669501    262.60697  0.030692727  0.031075629            1 
  714000    1.1160563   -7.3516268    263.22072  0.030721373  0.031069195            2 
  715000    1.1405026   -7.3456288    263.14638  0.030669741  0.031063204            3 
  716000    1.1277893   -7.3447392    264.02602  0.030729286  0.031057141            2 
  717000    1.1597142   -7.3438201    264.95171  0.030794016  0.031050964            2 
  718000    1.1211607   -7.3804337    263.42035  0.030573392  0.031044637            1 
  719000    1.1416605   -7.3504366    263.49458  0.030539473  0.031038263            3 
  720000    1.1462062   -7.3365665    264.28988  0.030589106  0.031032116            2 
  721000    1.1200635   -7.2763239    264.68256  0.030592067  0.031025447            3 
  722000    1.1453189   -7.3453171    263.91793  0.030461442  0.031018524            2 
  723000    1.1236228   -7.3348747    265.05041   0.03054984  0.031011911            3 
  724000    1.1598961   -7.3603081    265.42747  0.030551044  0.031005035            1 
  725000    1.1507109   -7.2971749    266.15784  0.030592855  0.030998323            1 
  726000    1.1225366   -7.3560027    265.32948  0.030455633  0.030991506            2 
  727000    1.1489325   -7.3983726    265.30171  0.030410559  0.030984183            2 
  728000    1.1250914   -7.3760986    266.01556  0.030450499  0.030976926            2 
  729000    1.1012661   -7.3146252    267.42705  0.030570079  0.030969854            1 
  730000    1.1357672   -7.3822925    267.17286  0.030499185  0.030962857            2 
  731000    1.1424865   -7.3724941    267.71341  0.030519084  0.030955894            1 
  732000    1.1333703   -7.3764789    267.46857  0.030449518  0.030948925            1 
  733000    1.1289129   -7.3459604     267.5251  0.030414404  0.030941773            2 
  734000    1.1439873    -7.343865    267.88525  0.030413857  0.030934505            2 
  735000    1.1383675   -7.3370434    269.92466  0.030603703  0.030927702            1 
  736000     1.136142   -7.3897972     268.6676  0.030419792   0.03092071            1 
  737000    1.1310103   -7.3380051    268.72435  0.030384934  0.030913765            1 
  738000    1.1602105   -7.3254566    269.13192  0.030389783   0.03090676            2 
  739000    1.1449199   -7.3781262    269.80577  0.030424647  0.030899362            4 
  740000    1.1060403   -7.3753136    269.85407  0.030388971  0.030892066            1 
  741000    1.1322464   -7.4111636    269.55787   0.03031465  0.030884659            1 
  742000    1.1173648   -7.3774252    270.35763  0.030363615  0.030877442            3 
  743000    1.1285912   -7.3446287    270.90718  0.030384385  0.030870096            2 
  744000    1.1421782   -7.3052028    271.72987  0.030435693   0.03086276            2 
  745000    1.1123543   -7.3663316     271.0172  0.030315123  0.030855763            4 
  746000      1.15261   -7.3648891    271.15695  0.030290098  0.030848621            1 
  747000    1.1224169   -7.3330295    272.47169  0.030396217  0.030841379            3 
  748000    1.1185473    -7.376191    271.86979  0.030288524  0.030834351            2 
  749000     1.120201   -7.3416757    272.26618  0.030292187  0.030827258            3 
  750000    1.1310793   -7.3274273    273.37984  0.030375538  0.030820479            6 
  751000    1.1234369    -7.346068    273.90209  0.030393041  0.030813835            2 
  752000    1.1420757   -7.3756522    274.01231   0.03036484   0.03080728            1 
  753000    1.1167198   -7.3468567     274.3632  0.030363347  0.030800759            2 
  754000    1.1338782    -7.358288      275.067  0.030400862  0.030794242            2 
  755000    1.1176046   -7.3354079    275.12717  0.030367237  0.030787179            2 
  756000    1.1213163   -7.3679788    275.47649  0.030365574  0.030780351            2 
  757000    1.1464817   -7.3384317    275.34347  0.030310818  0.030773914            2 
  758000    1.1216409   -7.3779139    276.04832   0.03034832  0.030767077            3 
  759000    1.1423857   -7.3451515    275.63989  0.030263492  0.030760384            1 
  760000    1.1338224   -7.3376244    277.31367    0.0304072  0.030753491            2 
  761000    1.1410607   -7.3180118    277.20035  0.030354835  0.030746845            2 
  762000    1.1270797   -7.3755688    276.62783  0.030252387  0.030739814            1 
  763000     1.144913   -7.3563464    277.99269  0.030361805  0.030732785            2 
  764000    1.1394053   -7.3869517    276.08108  0.030113556  0.030725349            1 
  765000    1.1286644    -7.333271    277.51442  0.030230329  0.030718142            1 
  766000    1.1295159   -7.3710856    277.93923  0.030237079  0.030711114            2 
  767000    1.1385996   -7.3690609     278.7722  0.030288157  0.030704347            1 
  768000    1.1305538    -7.348326     279.0349  0.030277224  0.030697373            2 
  769000    1.1363377   -7.3699498    279.65775  0.030305348  0.030690662            2 
  770000    1.1362886   -7.3501928    279.63333  0.030263347  0.030684212            2 
  771000    1.1119981   -7.3792437    280.24625  0.030290343  0.030677378            1 
  772000    1.1259601   -7.3418034    281.23314  0.030357636  0.030670843            4 
  773000    1.1446544   -7.3601005    279.84169  0.030168358  0.030664467            1 
  774000    1.1294832   -7.3549575    280.93635  0.030247238  0.030657854            2 
  775000    1.1537891   -7.3535781     280.5265   0.03016414   0.03065087            1 
  776000      1.14301   -7.3715169    280.19594   0.03008977  0.030643771            2 
  777000    1.1494826    -7.338789    281.29946  0.030169397  0.030636582            3 
  778000    1.1230516    -7.378127     280.8856   0.03008629  0.030629423            1 
  779000    1.1304412   -7.3785318    281.67145  0.030131734  0.030622115            1 
  780000    1.1324345   -7.4008541    281.46504  0.030071051  0.030614618            2 
  781000    1.1331598   -7.3685172     281.6266  0.030049787  0.030606748            1 
  782000    1.1320815   -7.3285288    282.04476   0.03005592   0.03059914            1 
  783000    1.1305051   -7.3725156    282.03181  0.030016157  0.030591377            3 
  784000    1.1064905   -7.4298166    281.41494  0.029912302  0.030583201            2 
  785000    1.1442756   -7.3951293    283.04289  0.030047016  0.030575155            1 
  786000    1.1329516   -7.3686808    283.41131  0.030047849  0.030567422            3 
  787000    1.1320952   -7.3768237    283.14993  0.029981992  0.030559678            3 
  788000    1.1357314   -7.3994511      283.616  0.029993232  0.030551843            1 
  789000    1.1011129   -7.3812134    283.75505  0.029969904  0.030544023            2 
  790000    1.1288872   -7.3938914    284.31467  0.029990999  0.030536416            2 
  791000    1.1225354   -7.3962123    284.05413  0.029925635  0.030528667            2 
  792000     1.137321   -7.3644078    285.14068  0.030002176  0.030521091            1 
  793000     1.151033   -7.3402258    286.52373  0.030109682  0.030513613            2 
  794000    1.1397743   -7.3748152    285.01505  0.029913419  0.030506158            1 
  795000     1.119387   -7.3978284     286.6312    0.0300452  0.030498712            2 
  796000    1.1163673   -7.3834682    286.57527  0.030001599  0.030491064            2 
  797000     1.138619    -7.380814    286.94074  0.030002169  0.030483268            2 
  798000     1.135129   -7.4090686    287.37854   0.03001029   0.03047599            3 
  799000     1.122158   -7.3603515    288.52454  0.030092255  0.030468985            1 
  800000    1.0973226   -7.3831361    288.38306  0.030039902  0.030462088            3 
  801000    1.1171128    -7.388675    288.18697  0.029981998  0.030455242            3 
  802000    1.1561225   -7.4096053    287.80175  0.029904587  0.030448172            2 
  803000    1.1059078   -7.3599029    289.96125  0.030091454  0.030441207            2 
  804000    1.1248989   -7.3816741    288.95411  0.029949638   0.03043423            1 
  805000    1.1209413   -7.3807683    289.99697   0.03002039  0.030427124            6 
  806000    1.1115949   -7.3841692    289.43284  0.029924818   0.03042014            2 
  807000    1.0985502   -7.3962557    288.95547  0.029838442  0.030413171            3 
  808000     1.117247   -7.3786505    291.08727  0.030021377  0.030406077            2 
[...]
 4800000   0.48889614   -8.9512509    581.25055  0.010091155  0.008416486           15 
 4801000    0.4925782   -8.9673369    581.53706  0.010094027 0.0084136101           19 
 4802000   0.47666005   -8.9378868    581.77206  0.010096003 0.0084107339           17 
 4803000   0.47978142   -8.9530873    580.76694  0.010076462 0.0084078586           18 
 4804000   0.47696701   -8.9569792    582.10692  0.010097608 0.0084049863           22 
 4805000   0.48177491   -8.9694539    581.11674  0.010078334 0.0084021162           17 
 4806000   0.47937907   -8.9585957     582.3024  0.010096796  0.008399245           13 
 4807000   0.48449588   -8.9626015    581.30293  0.010077369 0.0083963762           15 
 4808000   0.48287477   -8.9457587    582.22799  0.010091306 0.0083935097           16 
 4809000   0.48474895    -8.949056    581.62329  0.010078729 0.0083906429           12 
 4810000   0.47365947   -8.9754804    581.47326  0.010074034  0.008387781           17 
 4811000   0.47814395   -8.9429463    581.06525  0.010064873 0.0083849191           15 
 4812000   0.47486175   -8.9575598    581.95158  0.010078131  0.008382056           25 
 4813000   0.47654815   -8.9679065    581.18172  0.010062707 0.0083791962           25 
 4814000   0.47458429    -8.942418    581.25761  0.010061931 0.0083763366           13 
 4815000   0.48153403   -8.9454206    581.61805  0.010066079 0.0083734762           13 
 4816000   0.48067484   -8.9654799    581.30849  0.010058632 0.0083706189           16 
 4817000   0.47306435   -8.9594918    581.07479  0.010052501 0.0083677596           13 
 4818000   0.49104625   -8.9560521    581.56017   0.01005881 0.0083649041           21 
 4819000   0.47937921   -8.9612501    581.55616  0.010056653 0.0083620508           13 
 4820000   0.47775385   -8.9543452    581.02118  0.010045318 0.0083591982           16 
 4821000   0.48822174   -8.9466309    581.49553  0.010051433 0.0083563464           12 
 4822000   0.46863059    -8.955487    582.33119  0.010063791 0.0083534962           23 
 4823000   0.47695047   -8.9604517    581.02946  0.010039213 0.0083506477           11 
 4824000   0.48377818   -8.9458066    581.02068   0.01003698  0.008347801           23 
 4825000   0.48098606    -8.954182    581.80317  0.010048414 0.0083449544           18 
 4826000   0.47938732   -8.9718682    580.92843  0.010031227 0.0083421121           17 
 4827000   0.47634664   -8.9834046    581.18333   0.01003355 0.0083392682           14 
 4828000   0.49073412   -8.9673581     581.0533  0.010029227 0.0083364261           19 
 4829000   0.48615592   -8.9571634    581.18607  0.010029441 0.0083335864           16 
 4830000   0.48962893   -8.9632555    581.39813  0.010031024 0.0083307459           16 
 4831000   0.47435482   -8.9736915    581.97074  0.010038825 0.0083279078           12 
 4832000   0.46258022   -8.9543693    581.64872  0.010031193 0.0083250688            9 
 4833000   0.47574805   -8.9601154    580.83589  0.010015103 0.0083222328           24 
 4834000    0.4906386   -8.9567056    581.23933  0.010019986  0.008319399           11 
 4835000   0.47292208   -8.9546064    581.28776  0.010018748 0.0083165658           18 
 4836000   0.47863821   -8.9662745    581.91616  0.010027505  0.008313734           10 
 4837000   0.47371322   -8.9790546    581.41743   0.01001684 0.0083109006           15 
 4838000   0.46883651   -8.9647639    581.68347  0.010019351 0.0083080699           14 
 4839000    0.4692965   -8.9710837    580.57877 0.0099982567 0.0083052381           11 
 4840000   0.47758734    -8.963467    581.01981  0.010003785  0.008302409           12 
 4841000   0.48120564   -8.9686912    581.29659  0.010006483 0.0082995789           22 
 4842000   0.47513555    -8.969704    581.26201  0.010003821  0.008296753           23 
 4843000   0.48387618   -8.9644506    580.91253 0.0099957418 0.0082939294           17 
 4844000   0.47011841   -8.9648221    581.40389  0.010002131 0.0082911059           17 
 4845000   0.47543694   -8.9508795    581.09254 0.0099947117 0.0082882838           16 
 4846000    0.4778752   -8.9492879    582.68241  0.010019989  0.008285465           15 
 4847000   0.48682314    -8.963219    581.34758 0.0099949726 0.0082826465           13 
 4848000   0.47415079   -8.9662082    582.31567  0.010009552 0.0082798294           20 
 4849000   0.47905821   -8.9764421    580.92344 0.0099835609 0.0082770107           17 
 4850000   0.47836766   -8.9586514    581.54803 0.0099922343 0.0082741958           17 
 4851000   0.48849321    -8.954036    581.12456 0.0099828998 0.0082713829           20 
 4852000   0.47590685   -8.9727872    582.15738 0.0099985809 0.0082685708           14 
 4853000   0.47084419    -8.973531    580.99757 0.0099766051 0.0082657609           24 
 4854000   0.47103689   -8.9735283     581.1256 0.0099767478 0.0082629536           18 
 4855000   0.46754358   -8.9879195    581.03314 0.0099731057 0.0082601446           17 
 4856000   0.47879805   -8.9523623    581.03497 0.0099710833 0.0082573348           17 
 4857000   0.46921053   -8.9586507     581.6465 0.0099795226 0.0082545273           20 
 4858000   0.47431276   -8.9563296    580.93697 0.0099652972 0.0082517223           20 
 4859000   0.47646421   -8.9842675    581.08641 0.0099658093 0.0082489181           17 
 4860000   0.47951013   -8.9682398    581.28922 0.0099672363 0.0082461139           17 
 4861000   0.47395642   -8.9717397    581.22699  0.009964119 0.0082433112           20 
 4862000    0.4645593   -8.9698007    581.41889 0.0099653588  0.008240508           11 
 4863000   0.47551503   -8.9593565    581.36248 0.0099623429 0.0082377078           22 
 4864000   0.47600547   -8.9807597    580.84923 0.0099515013  0.008234908           19 
 4865000   0.48323111   -8.9756701    581.82452 0.0099661617 0.0082321138           14 
 4866000   0.47155901   -8.9740833    580.78549 0.0099463195 0.0082293186           13 
 4867000   0.47728815    -8.971989    581.07388 0.0099492138 0.0082265249           17 
 4868000   0.47324831   -8.9652953     580.4702 0.0099368357 0.0082237316           19 
 4869000   0.47435077    -8.965254    581.36247 0.0099500662 0.0082209401           12 
 4870000   0.47541179    -8.973863     581.0416 0.0099425325 0.0082181492           16 
 4871000   0.47441345   -8.9560305    579.92282 0.0099213512 0.0082153581           16 
 4872000   0.47539874   -8.9864854     581.0775  0.009939065  0.008212569           12 
 4873000   0.46637457   -8.9697021    580.69896  0.009930552 0.0082097804           16 
 4874000   0.46443688   -8.9526816    582.06008 0.0099517863  0.008206995           19 
 4875000   0.46718564   -8.9646304    581.21196 0.0099352471 0.0082042129           16 
 4876000   0.46604656   -8.9772751    581.41075 0.0099366071  0.008201429           16 
 4877000   0.47268707   -8.9702632     580.6129 0.0099209366  0.008198645           16 
 4878000   0.48088452   -8.9626861    581.43955  0.009933025 0.0081958638           11 
 4879000   0.47735192   -8.9587181    581.74556 0.0099362158 0.0081930842           28 
 4880000   0.47271872   -8.9682227    580.88027 0.0099194035 0.0081903062           13 
 4881000    0.4713841    -8.970403    581.15468 0.0099220562 0.0081875267           14 
 4882000   0.47189502   -8.9660759    581.50438 0.0099259931 0.0081847478           16 
 4883000   0.46763073   -8.9810868     581.3459 0.0099212557 0.0081819724           10 
 4884000   0.47256571   -8.9741737    581.10286 0.0099150775  0.008179198           18 
 4885000   0.47547843   -8.9786407    580.90746 0.0099097144 0.0081764266           21 
 4886000   0.46735099   -8.9714445    580.92779 0.0099080329 0.0081736569           20 
 4887000   0.47038655    -8.972862    581.31878 0.0099126728 0.0081708859           11 
 4888000   0.47291631   -8.9797161    580.78322 0.0099015143 0.0081681153           18 
 4889000   0.46398764   -8.9840066    580.88612 0.0099012429  0.008165347           19 
 4890000   0.46943229   -8.9742101    581.44705 0.0099087773 0.0081625773           27 
 4891000   0.47664072   -8.9774473    581.22039 0.0099028895 0.0081598107           21 
 4892000   0.47886933   -8.9705672    581.24495 0.0099012836 0.0081570435           19 
 4893000   0.47282389   -8.9845411    580.47275 0.0098861086 0.0081542788           15 
 4894000   0.47247157   -8.9629935    581.25538 0.0098974149 0.0081515146           15 
 4895000   0.45841094   -8.9909623     581.0717  0.009892266  0.008148753           12 
 4896000   0.47884801   -8.9877535    581.54079 0.0098982297 0.0081459916           15 
 4897000   0.46567128   -8.9635237     580.3642  0.009876186 0.0081432307           14 
 4898000   0.46673934   -8.9760065    580.93469 0.0098838758 0.0081404722           15 
 4899000   0.45782994    -8.981285    581.01875 0.0098832882  0.008137715           16 
 4900000   0.46055338   -8.9814594    581.14667 0.0098834468 0.0081349573           21 
 4901000   0.46479772   -8.9898957    581.38693 0.0098855154 0.0081322017           17 
 4902000   0.46374723    -8.970843    580.59604 0.0098700538 0.0081294475           13 
 4903000   0.46442386   -8.9726947    580.66472 0.0098692079 0.0081266959           16 
 4904000   0.48564491   -8.9935405    580.78545  0.009869247 0.0081239448           20 
 4905000   0.47342478   -8.9654194    581.68691 0.0098825503 0.0081211925           17 
 4906000   0.47167591   -8.9740464    581.23363 0.0098728365 0.0081184451           14 
 4907000   0.46316371   -8.9751434    580.95903 0.0098661611 0.0081156971           16 
 4908000   0.46415231    -8.980625    580.54812  0.009857174 0.0081129511           16 
 4909000   0.46574069    -8.969381    581.57561 0.0098726082 0.0081102058           19 
 4910000   0.46064761   -8.9733477    581.14692 0.0098633217 0.0081074628           19 
 4911000   0.46507043   -8.9870076    581.51228 0.0098675131 0.0081047211           16 
 4912000   0.47015978   -8.9902264    580.59467 0.0098499368  0.008101981           19 
 4913000   0.46284769   -8.9717311     580.7886 0.0098512212  0.008099244           20 
 4914000   0.47232959   -8.9863566    580.25799 0.0098402182 0.0080965065           17 
 4915000   0.46976855   -8.9837451    580.67175 0.0098452315 0.0080937681           20 
 4916000     0.466156   -8.9810969    581.12875 0.0098509756 0.0080910311           21 
 4917000    0.4676837   -8.9775586    580.69553 0.0098416298  0.008088297           13 
 4918000   0.46330242   -8.9702381    580.22016 0.0098315738 0.0080855621           17 
 4919000   0.46973435   -8.9886218    581.27762 0.0098474897 0.0080828306           14 
 4920000   0.45937277   -8.9753363    580.96984  0.009840275 0.0080800984           13 
 4921000   0.45701339   -8.9877986    580.45592 0.0098295727 0.0080773664           11 
 4922000   0.45301783   -8.9655944    581.46336 0.0098446323 0.0080746359           21 
 4923000   0.47509577   -8.9850264     580.8166 0.0098316846 0.0080719092           23 
 4924000   0.46583075   -8.9925135    581.03178 0.0098333296 0.0080691828           16 
 4925000   0.45860681   -8.9827496    581.37746 0.0098371821 0.0080664568           16 
 4926000   0.47011678   -8.9799267    581.89602 0.0098439576 0.0080637327           22 
 4927000   0.46549077   -8.9840196      580.143 0.0098123097 0.0080610087           23 
 4928000   0.46440042   -8.9864745     580.8421 0.0098221404 0.0080582869           19 
 4929000   0.45340331   -8.9875147    581.10987 0.0098246748 0.0080555657           21 
 4930000   0.45823445   -8.9781703    580.75441 0.0098166735 0.0080528471           21 
 4931000   0.46832692   -8.9861946    580.70281 0.0098138108 0.0080501273           21 
 4932000   0.46551364   -8.9877872    581.24735 0.0098210217 0.0080474093           14 
 4933000   0.46532863   -8.9988764    580.55885 0.0098073999 0.0080446918           22 
 4934000   0.46588881    -9.000079    580.87343 0.0098107255 0.0080419762           13 
 4935000   0.46246605   -8.9873474    580.65154 0.0098049905 0.0080392624           17 
 4936000    0.4571854   -8.9884306    580.21198 0.0097955832 0.0080365481           14 
 4937000   0.46256956    -8.989111    581.13691 0.0098092112 0.0080338357           13 
 4938000   0.46133736   -8.9875608    580.88568  0.009802985 0.0080311259           15 
 4939000   0.46086767   -8.9737388    581.80988 0.0098165938 0.0080284164           16 
 4940000   0.46019533   -8.9814875    580.48957 0.0097923342 0.0080257083           17 
 4941000   0.45843106   -9.0009458    579.33504 0.0097708804 0.0080230011           15 
 4942000    0.4611553   -8.9938941    579.97442 0.0097796847 0.0080202915           22 
 4943000   0.46467724   -8.9975823    580.67107 0.0097894509 0.0080175862           17 
 4944000   0.46166276   -8.9747888    580.38186 0.0097825961 0.0080148836           23 
 4945000   0.45490787   -8.9869543     580.4485 0.0097817408 0.0080121826           14 
 4946000   0.46791622   -8.9985632    580.36488 0.0097783542 0.0080094808           13 
 4947000   0.46929854   -8.9813982    580.77272 0.0097832478  0.008006782           13 
 4948000   0.46132698    -8.981931     580.8004 0.0097817368 0.0080040831           21 
 4949000   0.46520612   -8.9865229    581.00531 0.0097832106  0.008001386           18 
 4950000   0.45611974   -9.0019887    580.89285 0.0097793409 0.0079986898           14 
 4951000   0.46018803   -8.9946222    580.95743 0.0097784527 0.0079959937           14 
 4952000   0.46091701    -8.976606    580.98319 0.0097769115 0.0079933019           20 
 4953000   0.46527477   -9.0005561    581.70063 0.0097870083 0.0079906087           13 
 4954000   0.45722124   -8.9933223    580.45593 0.0097640951 0.0079879161           12 
 4955000   0.45136491   -8.9915264    579.69549 0.0097493354 0.0079852248           13 
 4956000   0.46613069   -8.9756331    581.11101 0.0097711698 0.0079825361           20 
 4957000   0.44907049   -8.9976516    579.95079 0.0097496939 0.0079798458           18 
 4958000   0.45688185   -8.9889438    581.25875 0.0097697113 0.0079771598           16 
 4959000   0.47461301   -8.9854183    580.04479 0.0097473414  0.007974472           15 
 4960000   0.46147378   -9.0078974    580.56546  0.009754124 0.0079717874           18 
 4961000   0.45755115   -8.9985653    579.85697 0.0097402568 0.0079691025           24 
 4962000   0.45481414   -8.9931274    581.40918 0.0097643621 0.0079664194           11 
 4963000   0.45582202   -8.9840345    579.44245 0.0097293715 0.0079637385           12 
 4964000   0.46377648   -8.9954319    580.56084 0.0097461865 0.0079610596           10 
 4965000   0.46121024   -8.9864749    579.84835 0.0097322651 0.0079583819           11 
 4966000   0.45336298   -8.9778392    580.98775 0.0097494252 0.0079557052           16 
 4967000   0.45249937   -9.0057722    581.15291 0.0097502333 0.0079530287           11 
 4968000   0.46138937   -8.9996105    580.07434 0.0097301789 0.0079503548           18 
 4969000   0.45794598   -8.9939251    580.99565 0.0097436716 0.0079476808           11 
 4970000   0.45332771   -9.0106113     581.0868 0.0097432395  0.007945007           18 
 4971000   0.45362099   -8.9917561    580.61293 0.0097333355 0.0079423344           16 
 4972000    0.4607415   -8.9934466    580.68634 0.0097326083 0.0079396639           19 
 4973000    0.4544223   -8.9876061    580.81106 0.0097327412 0.0079369941           13 
 4974000   0.45669695   -9.0003726    580.58023 0.0097269171 0.0079343257           23 
 4975000   0.45873569   -8.9995012    580.86708 0.0097297669 0.0079316579           16 
 4976000   0.45654197   -9.0049556    580.69702 0.0097249635 0.0079289892           17 
 4977000   0.45548771   -8.9908159    580.43828 0.0097186773 0.0079263214           12 
 4978000   0.44850596   -8.9867453    579.56148 0.0097020471 0.0079236582           19 
 4979000   0.45251382   -8.9845992    580.96699 0.0097236223 0.0079209948           16 
 4980000   0.45698542   -9.0091633     581.1145 0.0097241383 0.0079183317           16 
 4981000   0.45323137   -9.0093541    580.47503 0.0097114876 0.0079156718           17 
 4982000   0.45668986   -8.9905986    579.29914 0.0096898692 0.0079130123           19 
 4983000   0.45036281   -9.0027406    580.08243  0.009701024 0.0079103535           12 
 4984000   0.44677838   -8.9939424    579.86059 0.0096953684 0.0079076978           15 
 4985000   0.45407967     -8.99294    581.33692  0.009718103  0.007905042           11 
 4986000    0.4547362    -8.988349    580.46521 0.0097015846 0.0079023881           14 
 4987000   0.45500653   -9.0056312    580.82959  0.009705728 0.0078997342           21 
 4988000   0.45566992   -9.0130356    579.70372 0.0096849725 0.0078970801           10 
 4989000    0.4497906   -8.9902187    580.31816 0.0096932946 0.0078944287           23 
 4990000    0.4525739   -8.9994003    580.77701 0.0096990148 0.0078917807           21 
 4991000   0.46331694   -9.0166367    580.08819 0.0096855706 0.0078891325           16 
 4992000   0.44477267   -9.0133766    580.03883 0.0096828063 0.0078864846           21 
 4993000   0.45224847   -9.0116068    580.15635 0.0096828285 0.0078838391           19 
 4994000    0.4569718   -9.0013439    580.09721 0.0096799028  0.007881193           20 
 4995000   0.45149259    -9.001107    579.44394 0.0096670661 0.0078785489           19 
 4996000   0.46590854    -9.000431    580.42096 0.0096814278 0.0078759057           16 
 4997000   0.44505281   -9.0096968    580.34174 0.0096781692 0.0078732642           20 
 4998000    0.4595951   -8.9977976    580.19466 0.0096737805  0.007870622           19 
 4999000   0.44411828   -9.0112439    580.25844 0.0096729086 0.0078679824           13 
 5000000   0.45772063   -9.0105653    580.57733 0.0096762888 0.0078653445           16 
 5001000   0.44985359   -9.0106609    579.94609 0.0096638354 0.0078627073           16 
 5002000   0.45242943   -8.9973403    580.26669 0.0096672446 0.0078600711           18 
 5003000   0.45124848    -8.994752    580.68682 0.0096723103 0.0078574346           21 
 5004000   0.45011984   -9.0054175    580.04287 0.0096596534 0.0078547999           15 
 5005000   0.45150833   -8.9854006    581.19901 0.0096769733 0.0078521681           12 
 5006000   0.43776747   -9.0097787    580.69406 0.0096666343 0.0078495363           19 
 5007000   0.45563208   -9.0024607    580.43909 0.0096604601 0.0078469052           14 
 5008000   0.46014742   -9.0002697    580.35665 0.0096571594 0.0078442751           14 
 5009000   0.44982337   -8.9884849     579.7193 0.0096446279 0.0078416439           19 
 5010000    0.4459468   -8.9987648     579.5428  0.009639767  0.007839015           21 
 5011000   0.44738174   -9.0052498     579.6248 0.0096392071  0.007836388           16 
 5012000   0.45392713   -8.9913797    580.55542 0.0096527571 0.0078337633           14 
Loop time of 12369.8 on 48 procs for 5000000 steps with 4000 atoms

Performance: 69847.503 tau/day, 404.210 timesteps/s
99.4% CPU use with 48 MPI tasks x no OpenMP threads

MPI task timing breakdown:
Section |  min time  |  avg time  |  max time  |%varavg| %total
---------------------------------------------------------------
Pair    | 848.92     | 899.53     | 967.57     |  97.0 |  7.27
Neigh   | 81.812     | 84.722     | 87.601     |  16.9 |  0.68
Comm    | 779.1      | 851.5      | 907.92     | 106.7 |  6.88
Output  | 13.802     | 13.807     | 13.9       |   0.4 |  0.11
Modify  | 10391      | 10408      | 10424      |   8.6 | 84.14
Other   |            | 111.8      |            |       |  0.90

Nlocal:        83.3333 ave          88 max          78 min
Histogram: 3 1 6 3 8 2 4 7 9 5
Nghost:        2183.67 ave        2204 max        2161 min
Histogram: 2 0 6 7 5 8 12 6 0 2
Neighs:        14493.0 ave       15930 max       13290 min
Histogram: 3 3 6 10 7 6 7 2 1 3
FullNghs:      28984.3 ave       30866 max       26772 min
Histogram: 3 3 4 4 6 7 5 7 5 4

Total # of neighbors = 1391246
Ave neighs/atom = 347.81150
Neighbor list builds = 267005
Dangerous builds = 0

#clear
#
#next RN
#
#jump SELF
Total wall time: 3:26:13
