
units lj                  # Use reduced LJ style units
atom_style atomic         # Uncharged point particles
atom_modify map hash      # Needed for indexing of clusters etc
                          # Used to be able to find where atoms are in relation to each other.

lattice fcc 1.0 spacing 1 1 1
Lattice spacing in x,y,z = 1.5874011 1.5874011 1.5874011
region box block 0 10 0 10 0 10 units lattice
create_box 2 box
Created orthogonal box = (0.0000000 0.0000000 0.0000000) to (15.874011 15.874011 15.874011)
  3 by 4 by 4 MPI processor grid
create_atoms 1 box
Created 4000 atoms
  using lattice units in orthogonal box = (0.0000000 0.0000000 0.0000000) to (15.874011 15.874011 15.874011)
  create_atoms CPU = 0.003 seconds
set type 1 type/fraction 2 0.65 78393
Setting atom values ...
  2613 settings made for type/fraction
mass 1 1.0
mass 2 1.0
pair_style lj/cut  3.5
pair_modify tail  yes
pair_coeff 1  1  1.0  1.0   # Intearaction between 1 and 1 set with epsilon = 1 and sigma = 1
pair_coeff 1  2  1.5  0.8
pair_coeff 2  2  0.5  0.88

write_data data.0
System init for write_data ...
Neighbor list info ...
  update every 1 steps, delay 10 steps, check yes
  max neighbors/atom: 2000, page size: 100000
  master list distance cutoff = 3.8
  ghost atom cutoff = 3.8
  binsize = 1.9, bins = 9 9 9
  1 neighbor lists, perpetual/occasional/extra = 1 0 0
  (1) pair lj/cut, perpetual
      attributes: half, newton on
      pair build: half/bin/atomonly/newton
      stencil: half/bin/3d
      bin: standard
WARNING: Not all mixed pair coeffs generated from mixing. Use write_data with 'pair ij' option to store all pair coeffs. (../write_data.cpp:312)


#############################
#   M E L T   S Y S T E M   #
#############################

velocity all create 2.4 9580093 mom yes dist gaussian # Assign velocities
                                                    # Temperature 2.4, random number seed, zero linear momentum
                                                                                # Gaussian distribution

timestep 0.002   # simulation timestep
thermo 1000       # output thermodynamic data every 1000 steps bf 100

# Define a fix  in this case with index 1 applied to all
# particles in the simulation. This fix is for simulations
# in the anisotropic NPT ensemble. Note that we use the MTK
# correction.
fix 1 all npt temp 2.4 2.4 0.1 iso 5.68 5.68 0.5 mtk yes tchain 5 pchain 5 # Use NPT ensemble
                                                                         # Set temperature and pressure and damping
                                                                         # Numbers of thermostats in chain and in barostat
run 10000          # run for 10000 steps
Per MPI rank memory allocation (min/avg/max) = 3.642 | 3.644 | 3.648 Mbytes
Step Temp E_pair E_mol TotEng Press Volume 
       0          2.4   -4.4517567            0  -0.85265669   -3.9326408         4000 
    1000    2.4148062    -4.135924            0  -0.51462034     5.519609    3646.7781 
    2000    2.4108413   -4.2148878            0  -0.59952988    5.3760607    3621.4121 
    3000    2.4584848   -4.1469101            0  -0.46010474    5.9813003    3607.8642 
    4000    2.4191498   -4.1904333            0  -0.56261574    5.3819048    3632.6865 
    5000    2.3864609   -4.0940787            0  -0.51528227    5.6921296    3644.3162 
    6000    2.3841015   -4.1217348            0  -0.54647666    6.0405853    3613.0996 
    7000    2.4324168   -4.2177855            0  -0.57007244    5.5528451    3603.4175 
    8000    2.3900916   -4.2135288            0  -0.62928774    5.4724494    3605.2185 
    9000    2.3411973   -4.1644917            0  -0.65357365    5.5585026    3627.0624 
   10000    2.4247277   -4.1637476            0  -0.52756535    5.8469845    3606.7201 
Loop time of 2.64695 on 48 procs for 10000 steps with 4000 atoms

Performance: 652826.822 tau/day, 3777.933 timesteps/s
99.7% CPU use with 48 MPI tasks x no OpenMP threads

MPI task timing breakdown:
Section |  min time  |  avg time  |  max time  |%varavg| %total
---------------------------------------------------------------
Pair    | 1.2022     | 1.2699     | 1.3403     |   2.8 | 47.98
Neigh   | 0.21627    | 0.22292    | 0.23988    |   0.9 |  8.42
Comm    | 0.81811    | 0.89202    | 0.98636    |   3.9 | 33.70
Output  | 0.00024851 | 0.00025225 | 0.00031442 |   0.0 |  0.01
Modify  | 0.20782    | 0.24612    | 0.28184    |   4.3 |  9.30
Other   |            | 0.01572    |            |       |  0.59

Nlocal:        83.3333 ave          93 max          69 min
Histogram: 1 0 4 0 7 10 7 14 2 3
Nghost:        1755.35 ave        1782 max        1732 min
Histogram: 2 4 5 10 3 7 11 3 2 1
Neighs:        10587.4 ave       12009 max        8455 min
Histogram: 1 2 0 5 6 8 10 9 4 3

Total # of neighbors = 508194
Ave neighs/atom = 127.04850
Neighbor list builds = 902
Dangerous builds = 184

# Equilibrate just above the melting temperature to avoid step fn in T

fix 1 all npt temp 1.25 1.25 0.1 iso 5.68 5.68 0.5 mtk yes tchain 5 pchain 5
run 2000
Per MPI rank memory allocation (min/avg/max) = 3.644 | 3.646 | 3.650 Mbytes
Step Temp E_pair E_mol TotEng Press Volume 
   10000    2.4247277   -4.1637476            0  -0.52756535    5.8469845    3606.7201 
   11000    1.2536341   -6.1270589            0    -4.247078    5.6125597    2764.7324 
   12000    1.2523957   -6.1551098            0   -4.2769859    5.6116453    2758.9972 
Loop time of 0.706993 on 48 procs for 2000 steps with 4000 atoms

Performance: 488830.578 tau/day, 2828.881 timesteps/s
99.5% CPU use with 48 MPI tasks x no OpenMP threads

MPI task timing breakdown:
Section |  min time  |  avg time  |  max time  |%varavg| %total
---------------------------------------------------------------
Pair    | 0.29956    | 0.32362    | 0.3497     |   2.3 | 45.77
Neigh   | 0.040693   | 0.043012   | 0.045989   |   0.5 |  6.08
Comm    | 0.21232    | 0.24516    | 0.31216    |   3.3 | 34.68
Output  | 5.2813e-05 | 5.4157e-05 | 6.7955e-05 |   0.0 |  0.01
Modify  | 0.046191   | 0.090124   | 0.096636   |   3.2 | 12.75
Other   |            | 0.005024   |            |       |  0.71

Nlocal:        83.3333 ave          90 max          75 min
Histogram: 1 1 3 4 6 7 15 6 3 2
Nghost:        2110.52 ave        2130 max        2090 min
Histogram: 2 1 8 7 5 8 3 6 4 4
Neighs:        13835.4 ave       15390 max       12114 min
Histogram: 1 2 2 7 11 8 9 4 2 2

Total # of neighbors = 664100
Ave neighs/atom = 166.02500
Neighbor list builds = 141
Dangerous builds = 10

#############################
# L I N E A R  Q U E N C H  #
#############################

# Define solid atoms. This closely follows ten Wolde  Ruiz-Montero and Frenkel  Faraday Discuss  1996  104  93-110
# Compute components of the per-atom q6 vector
compute q6 all orientorder/atom degrees 1 6 components 6 nnn NULL cutoff 1.3 # compute the Q6 parameter.
                                                                             # Use all neighbours within 1.3 unit cell.

# get number of connections
compute coord_number all coord/atom orientorder q6 0.5

# An atom is solid if it has 8 or more connections (of a possible 14)
variable is_solid atom c_coord_number>=8
group solid dynamic all var is_solid    # Must be dynamic to update
dynamic group solid defined

# do clustering
compute cluster solid cluster/atom 1.3 # Create a cluster where all atoms within are solid and max 1.3 units from another member

# define chunks one chunk per cluster
compute clus_chunks solid chunk/atom c_cluster nchunk every compress yes  # Says which atoms are in which chunk

# count the size of each chunk
compute size_chunks solid property/chunk clus_chunks count


# Find the maximum entry in the vector of chunk sizes
variable max_n equal max(c_size_chunks)


# Thermo style which includes this variable
# thermo_style custom step temp pe vol v_max_n

thermo ${N}  # Print the thermo information every 100 steps
thermo 1000  

# Reset the npt fix at a lower temperature (below freezing)
fix 1  all npt temp  ${temp} ${temp}  0.1  iso  5.68  5.68  0.5  mtk yes tchain  5  pchain  5
fix 1  all npt temp  0.45 ${temp}  0.1  iso  5.68  5.68  0.5  mtk yes tchain  5  pchain  5
fix 1  all npt temp  0.45 0.45  0.1  iso  5.68  5.68  0.5  mtk yes tchain  5  pchain  5

dump dmp2 all dcd ${N} traj.dcd
dump dmp2 all dcd 1000 traj.dcd


compute msd all msd com yes
variable twopoint equal c_msd[4]/6/(step*dt+1.0e-6)
fix 9 all vector 10 c_msd[4]
variable fit equal slope(f_9)/6/(10*dt)
thermo_style custom step temp pe c_msd[4] v_twopoint v_fit v_max_n

fix 1 all npt temp 1.25 ${temp} 0.1 iso 5.68 5.68 0.5 mtk yes tchain 5 pchain 5
fix 1 all npt temp 1.25 0.45 0.1 iso 5.68 5.68 0.5 mtk yes tchain 5 pchain 5
run 2000000 # 5000000  # Run for this many steps
Neighbor list info ...
  update every 1 steps, delay 10 steps, check yes
  max neighbors/atom: 2000, page size: 100000
  master list distance cutoff = 3.8
  ghost atom cutoff = 3.8
  binsize = 1.9, bins = 8 8 8
  4 neighbor lists, perpetual/occasional/extra = 1 3 0
  (1) pair lj/cut, perpetual
      attributes: half, newton on
      pair build: half/bin/atomonly/newton
      stencil: half/bin/3d
      bin: standard
  (2) compute orientorder/atom, occasional
      attributes: full, newton on
      pair build: full/bin/atomonly
      stencil: full/bin/3d
      bin: standard
  (3) compute coord/atom, occasional
      attributes: full, newton on
      pair build: full/bin/atomonly
      stencil: full/bin/3d
      bin: standard
  (4) compute cluster/atom, occasional
      attributes: full, newton on
      pair build: full/bin/atomonly
      stencil: full/bin/3d
      bin: standard
Per MPI rank memory allocation (min/avg/max) = 9.845 | 9.851 | 9.855 Mbytes
Step Temp PotEng c_msd[4] v_twopoint v_fit v_max_n 
   12000    1.2523957   -6.1551098 3.9186665e-30 2.7212961e-32 8.3333333e+20            1 
   13000    1.2213221   -6.1705247   0.53899515  0.003455097  0.044176537            2 
   14000    1.2300913   -6.1801977    1.0437182 0.0062126078  0.042867694            1 
   15000    1.2473611    -6.206423    1.5433041 0.0085739114  0.042205827            2 
   16000    1.2392224   -6.1824008    2.0398225  0.010624075  0.042016317            3 
   17000     1.249109   -6.2025637     2.508327   0.01229572  0.041733323            1 
   18000    1.2712355   -6.1319328    3.0464678  0.014104017  0.041360043            4 
   19000    1.2292504   -6.2344846    3.5787243  0.015696159  0.041839698            3 
   20000    1.2326755   -6.1767575    4.1298274  0.017207614  0.042182057            3 
   21000    1.2452527   -6.2172937     4.589774  0.018213388   0.04248176            2 
   22000    1.2247479   -6.1728864    5.0285344  0.019047479  0.042238059            3 
   23000     1.239633    -6.180948     5.467652  0.019810333  0.041790513            4 
   24000    1.2324678   -6.2178562    5.9962548  0.020820329  0.041544748            2 
   25000    1.2430964   -6.2433574    6.5034102  0.021678034  0.041455508            1 
   26000    1.2490919   -6.1802287     7.132268  0.022859833  0.041637043            2 
   27000    1.2529733     -6.20969     7.639702  0.023579327  0.041870422            2 
   28000    1.2368806   -6.2022396    8.0897382  0.024076601  0.041934109            1 
   29000    1.2431535    -6.237617    8.6990817  0.024997361  0.042067864            5 
   30000    1.2340516   -6.2013765    9.2491269  0.025692019  0.042233716            1 
   31000    1.2390152    -6.185044    9.7106536  0.026103907  0.042312603            5 
   32000    1.2480592   -6.2170024    10.201899  0.026567445   0.04236723            2 
   33000    1.2404661   -6.2030786    10.736931  0.027113462  0.042448762            2 
   34000    1.2260823   -6.2223741    11.230412  0.027525519  0.042496692            1 
   35000    1.2277337   -6.2088861    11.720612  0.027906219  0.042521184            1 
   36000    1.2515952   -6.2052795    12.120699  0.028057174  0.042461978            2 
   37000    1.2045938   -6.2141672    12.705043  0.028614961  0.042440051            3 
   38000    1.2188881   -6.2708153    13.069472  0.028661123  0.042405492            2 
   39000    1.2453226   -6.1924576    13.647828  0.029162025  0.042348143            3 
   40000    1.2399134   -6.2338107       14.141  0.029460415  0.042325765            2 
   41000    1.2167183   -6.1631231    14.653403   0.02978334  0.042277587            3 
   42000    1.2337464   -6.2374887    14.917572  0.029598356  0.042166043            4 
   43000    1.2286483   -6.2352863    15.303349  0.029657653  0.041986559            4 
   44000    1.2160082   -6.1787014    15.830503  0.029982013  0.041818527            3 
   45000    1.2085916   -6.1819647    16.439582   0.03044367  0.041698599            3 
   46000    1.2190149   -6.1981744    16.976085  0.030753777  0.041643409            2 
   47000    1.2356775   -6.2253277    17.593838  0.031194748  0.041650759            6 
   48000    1.1748004   -6.2243003    18.105785  0.031433654  0.041672548            3 
   49000    1.2381922   -6.2247465    18.515999  0.031489794  0.041660859            3 
   50000    1.2274058   -6.2351021    19.097214   0.03182869  0.041640683            1 
   51000    1.2473784   -6.2330374    19.739915  0.032254762  0.041652539            2 
   52000    1.2337201   -6.1972833     20.27483  0.032491714  0.041694055            3 
   53000    1.2060164   -6.1888783    20.852038  0.032786222  0.041743063            4 
   54000    1.2302821    -6.293493    21.454616  0.033108975  0.041827528            7 
   55000    1.2280251   -6.1997479    22.059689  0.033423771  0.041918558            1 
   56000    1.2235867   -6.2451207    22.492071  0.033470343  0.042007724            4 
   57000    1.2145425   -6.2665171    22.838604  0.033389772  0.042067703            2 
   58000    1.2226986   -6.2376917    23.219036  0.033360683   0.04208925            5 
   59000    1.2641655   -6.2369543    23.932558  0.033803048  0.042110116            3 
   60000    1.2668421   -6.2262901    24.409975  0.033902743  0.042145488            2 
   61000    1.2263282   -6.2465279    24.843406  0.033939079  0.042153768            2 
   62000    1.2348093   -6.2532596    25.522773  0.034304802  0.042150635            3 
   63000    1.2210503   -6.2520096    25.821768  0.034155778  0.042176157            4 
   64000     1.219452   -6.2231554    26.382634  0.034352387  0.042195936            5 
   65000    1.2411655   -6.2149418    26.911626  0.034502084  0.042208076            5 
   66000    1.2069142   -6.2819614    27.369325  0.034557228  0.042222853            1 
   67000    1.2451001   -6.2196501    28.071522  0.034914828    0.0422527            2 
   68000    1.2177244    -6.233779    28.480113  0.034902099   0.04228274            2 
   69000    1.2304691   -6.2634237    28.937138  0.034948234  0.042301014            5 
   70000    1.2416331   -6.2559868    29.529364  0.035154004  0.042304424            1 
   71000    1.2342974   -6.2251633    30.058432  0.035279849  0.042307783            2 
   72000    1.2036034    -6.262708    30.548246  0.035356766  0.042316678            4 
   73000    1.2205656   -6.2927312    31.006196  0.035395201  0.042333147            4 
   74000    1.2482496   -6.3282386    31.230924  0.035169959  0.042334512            2 
   75000    1.2351073   -6.3075404    31.888156  0.035431284  0.042320701            3 
   76000    1.2188365     -6.22412    32.413697  0.035541334  0.042318388            2 
   77000    1.2306891   -6.2825945    32.894863  0.035600501  0.042308733            2 
   78000    1.2308219    -6.243024    33.444122    0.0357309  0.042291858            3 
   79000     1.210702   -6.2441945    34.063373  0.035931828  0.042287712            5 
   80000     1.220636   -6.2834279    34.271631  0.035699616  0.042291394            2 
   81000    1.2328906   -6.2678842    34.692068  0.035691428  0.042266437            3 
   82000    1.2053816   -6.2855054    35.110263  0.035681162  0.042238135            1 
   83000    1.2164855    -6.260308    35.742749  0.035886294  0.042216186            1 
   84000    1.1988279   -6.2617115    36.048387  0.035762288    0.0421887            2 
   85000     1.209123   -6.2676236    36.469663  0.035754571  0.042145838            2 
   86000    1.2374905   -6.2494199    36.950276  0.035804531  0.042105507            4 
   87000    1.2331397   -6.2260384    37.710439   0.03612111  0.042072086            1 
   88000    1.1849035   -6.2614805    37.810021  0.035804944  0.042036733            4 
   89000    1.2175719   -6.2816864    38.614765  0.036156147  0.042001298            3 
   90000    1.2107948   -6.2666388    38.988321  0.036100297  0.041975731            2 
   91000    1.2556322   -6.2317984    39.709199  0.036363735  0.041948719            2 
   92000    1.1679618   -6.2263477    40.224546  0.036435277  0.041936551            1 
   93000    1.2110833   -6.2756059    40.650787  0.036425436  0.041919915            3 
   94000    1.2310235   -6.2731682    41.060618  0.036401257  0.041901675            2 
   95000    1.1929042   -6.2796702    41.709682   0.03658744  0.041893777            1 
   96000    1.2450627   -6.2756028    42.372629  0.036781796  0.041892598            3 
   97000    1.2498108    -6.216332    42.687554  0.036673156  0.041890718            3 
   98000    1.2146404   -6.3255025    42.928586    0.0365039   0.04188393            5 
   99000    1.2063058   -6.2432959    43.504875  0.036620265  0.041865397            4 
  100000    1.2312384   -6.2585593    44.114405  0.036762004  0.041852931            2 
  101000    1.2343914   -6.3011973    44.327743  0.036574045  0.041836451            3 
  102000    1.2058999   -6.2777107     44.74324  0.036554934  0.041811743            3 
  103000    1.2009547   -6.2512301    45.225105  0.036589891  0.041784772            2 
  104000    1.2282978   -6.3134341    45.822195  0.036716502  0.041755719            2 
  105000    1.2337554   -6.2640598    46.338273  0.036776407  0.041733467            1 
  106000    1.1855898   -6.2671284    46.706516  0.036718959  0.041703357            2 
  107000    1.2282713   -6.3235123    47.067931  0.036657267  0.041671018            3 
  108000    1.1943802   -6.2834573    47.603459  0.036731064   0.04163922            4 
  109000    1.2587073   -6.2501193    48.353429  0.036967453   0.04161677            4 
  110000    1.2056823   -6.2670286    48.809704  0.036977048  0.041597933            4 
  111000    1.1982084   -6.2596546    49.357091  0.037054873  0.041580002            2 
  112000    1.2242252   -6.2776578    49.637798  0.036932885  0.041556044            1 
  113000    1.2196336   -6.2967613    49.856058  0.036767005  0.041526099            3 
  114000    1.2220295   -6.2579506    50.376996  0.036825289  0.041495857            2 
  115000    1.2153983   -6.2444956    50.507677  0.036599766  0.041454543            3 
  116000    1.2019306    -6.305535    50.931204  0.036588508  0.041406189            2 
  117000    1.2106934   -6.2757604    51.222492  0.036483256  0.041356659            2 
  118000    1.2013925   -6.3249727    51.710394   0.03651864  0.041302873            4 
  119000    1.2349071   -6.2807897    52.353384  0.036662033  0.041255125            2 
  120000    1.2218514   -6.2966164    52.981715  0.036792858  0.041214166            3 
  121000    1.2083064   -6.2902349    53.270073  0.036687378  0.041173525            2 
  122000    1.2055321   -6.3068377    53.754127    0.0367173  0.041135888            2 
  123000    1.2091568   -6.2958175    54.332942  0.036810936   0.04109828            5 
  124000    1.2052376   -6.3394259    54.326115  0.036509486   0.04106014            2 
  125000    1.2085111   -6.3001571    54.947675  0.036631783  0.041019031            4 
  126000    1.2108313   -6.2542552    55.694816  0.036835196  0.040980291            2 
  127000    1.1854305   -6.3279849     55.90665  0.036684153   0.04094174            2 
  128000    1.2038087   -6.2902614    56.429848  0.036738182  0.040903339            2 
  129000    1.2004837   -6.3264182    57.054413  0.036856856  0.040867536            2 
  130000    1.2115262   -6.2953647    57.165985  0.036644862  0.040827662            3 
  131000    1.2003147   -6.3351111    57.782961  0.036757609   0.04078819            3 
  132000    1.1840937    -6.296934    58.346843  0.036835128  0.040755659            6 
  133000    1.2121976     -6.29589    58.772216  0.036824696  0.040725021            3 
  134000    1.1763182   -6.2866569    59.168879  0.036796566  0.040692891            4 
  135000    1.1977769   -6.2760696    59.722083  0.036865483  0.040660855            2 
  136000    1.1954778   -6.3251322    60.097117  0.036824214  0.040626515            3 
  137000    1.1959087   -6.3418283     60.53037   0.03681896  0.040593841            2 
  138000    1.2033738   -6.2939664    61.025099  0.036850905  0.040563416            2 
  139000    1.2190821   -6.2909739    61.617515  0.036940956  0.040538997            2 
  140000    1.1973528   -6.3421242    61.903162   0.03684712    0.0405095            6 
  141000    1.1683293   -6.2656476     62.41882  0.036890556  0.040477678            2 
  142000     1.191813   -6.3564736    62.531458  0.036696865  0.040444003            3 
  143000    1.1780286   -6.3297151     63.25888  0.036864149  0.040413403            2 
  144000    1.2061429   -6.3239083    63.381951  0.036679369  0.040377952            4 
  145000    1.1880432    -6.283954    63.987922  0.036774668  0.040340775            3 
  146000    1.2091842   -6.3454975    64.038584  0.036551703  0.040303987            3 
  147000    1.2020625    -6.341874    64.793344   0.03673092  0.040263936            2 
  148000    1.2018264   -6.3383903    65.345101  0.036793413  0.040229176            3 
  149000    1.1734742   -6.3130218    65.624946   0.03670299  0.040194026            2 
  150000    1.2120704   -6.3607283    66.253821  0.036807678  0.040163728            3 
  151000    1.1681703   -6.3564497    66.745386  0.036835202  0.040135274            7 
  152000     1.192888   -6.3345804     66.93408  0.036696316  0.040110046            3 
  153000    1.2030454   -6.3737815    67.674687  0.036859851  0.040082639            2 
  154000    1.1878089   -6.3311293    68.033222  0.036814514  0.040055298            3 
  155000    1.2081747   -6.3702347    68.244603  0.036690647  0.040025762            3 
  156000     1.178844   -6.2916101    68.903883   0.03680763  0.039994913            6 
  157000    1.1965037    -6.320046    69.353348  0.036811756  0.039965563            6 
  158000    1.1885223    -6.305804    69.908624  0.036871637  0.039937248            2 
  159000    1.1754329   -6.2930936     70.66843  0.037037961  0.039911035            1 
  160000    1.2041391   -6.3710364    70.708251  0.036827214  0.039889121            1 
  161000    1.1883881   -6.3557417    71.534913  0.037026352  0.039868075            4 
  162000     1.228982   -6.3378866    71.922155  0.036996993  0.039847742            4 
  163000    1.1806694   -6.3344039    72.251918  0.036938608  0.039828632            3 
  164000    1.1813157   -6.3349918    72.866724  0.037025774  0.039809514            2 
  165000    1.1878511   -6.3379278    73.407344  0.037074416  0.039791783            2 
  166000     1.196587   -6.3618707    73.453421  0.036874207  0.039771177            3 
  167000    1.1856437   -6.3748338    73.831073  0.036841853  0.039749147            8 
  168000    1.1630469   -6.3292578    74.043557  0.036727955  0.039721504            2 
  169000    1.2044338   -6.3583871    74.586271   0.03677824  0.039695127            5 
  170000    1.1865811   -6.3545117    75.235712  0.036880251  0.039668093            3 
  171000    1.1995699   -6.3934328     75.32874  0.036709912  0.039638236            4 
  172000    1.1639563   -6.3357114    76.079989   0.03686046  0.039612713            7 
  173000    1.1926157   -6.3445998     76.60573   0.03690064   0.03958913            5 
  174000     1.215376   -6.3583919    77.132116  0.036940668  0.039568436            6 
  175000    1.1572621   -6.3141334    78.092954  0.037187121  0.039553057            2 
  176000    1.1795091   -6.3835903    78.252613  0.037051426   0.03954045            7 
  177000    1.1940043   -6.3561086    79.080517  0.037231882  0.039532285            3 
  178000     1.201279   -6.3545197    79.411578  0.037177705  0.039521527            4 
  179000    1.1817015   -6.3173988    80.095343  0.037288335  0.039512251            2 
  180000    1.1838151   -6.3505398    80.236315  0.037146442  0.039499433            2 
  181000      1.15617   -6.3507097    80.262701  0.036953361  0.039484459            2 
  182000    1.1791951   -6.3792542    80.708871  0.036954611  0.039466345            2 
  183000    1.1730791   -6.3595455    81.403609  0.037069038  0.039447381            1 
  184000    1.1714822   -6.3861465    81.461549  0.036893818  0.039431141            2 
  185000     1.192616   -6.3702881    81.827398  0.036859188  0.039411654            4 
  186000     1.154828   -6.3775504    82.483937  0.036955169  0.039389071            5 
  187000    1.1696489   -6.3731428     82.45342  0.036743948  0.039366066            5 
  188000    1.1930952   -6.2971994    83.014456  0.036797188  0.039345895            2 
  189000     1.207716   -6.3721959    83.403687  0.036774112  0.039324209            3 
  190000    1.1576879   -6.3886924     83.66738  0.036696219  0.039298516            2 
  191000    1.1790442   -6.3484616      84.1428  0.036711518  0.039271448            2 
  192000    1.1801556   -6.3584849    84.259482  0.036570955  0.039243335            2 
  193000    1.1788352   -6.3164525    84.925366  0.036668983  0.039215386            2 
  194000    1.1641324   -6.3579874    85.487535   0.03672145  0.039189956            2 
  195000     1.173213   -6.3828908    85.884536  0.036702793  0.039166409            3 
  196000    1.1636938   -6.3336677    87.021902  0.036999108  0.039144946            1 
  197000    1.1634981   -6.3543124     87.25776  0.036911066  0.039124911            2 
  198000    1.1861939   -6.3565922     87.68761   0.03690556  0.039105349            3 
  199000    1.1819664   -6.3990536    87.552577  0.036663558  0.039087136            3 
  200000    1.1793001   -6.3880986    88.571431  0.036904763  0.039067719            5 
  201000    1.1567439   -6.3275363    89.266552   0.03700935  0.039051875            3 
  202000     1.157838   -6.3791882    89.461348  0.036906496  0.039037128            5 
  203000    1.1612209   -6.3521231    90.003914  0.036947419    0.0390254            3 
  204000    1.1950584   -6.4211215    90.388477  0.036923397  0.039015515            2 
  205000    1.2090696   -6.3948846    90.867094  0.036937843  0.039001827            2 
  206000    1.1990468    -6.402701    91.224196  0.036902992  0.038988079            3 
  207000    1.1798274    -6.382319    91.858514  0.036980078  0.038973438            2 
  208000    1.1660312   -6.4156149    92.481774  0.037051993  0.038962759            6 
  209000    1.1547858   -6.3739323     93.17723  0.037152005  0.038955148            5 
  210000    1.1655286   -6.3946637    93.750086  0.037202415  0.038947257            2 
  211000    1.1860449   -6.3891143    94.032543  0.037137655  0.038937246            2 
  212000    1.1466408   -6.4029861    94.621768  0.037194091  0.038927868            6 
  213000    1.1788065   -6.3766904     94.70879  0.037053517   0.03891963            3 
  214000    1.1658933   -6.3676604    95.460656  0.037173153  0.038909999            3 
  215000    1.1588305   -6.4177876    95.627513  0.037064927  0.038901146            3 
  216000    1.1563851   -6.3929662    96.353093  0.037173261  0.038891344            2 
  217000    1.1800268   -6.4090046    96.752071  0.037155173  0.038883677            3 
  218000    1.1680342   -6.4106555    96.764509  0.036989491   0.03887586            5 
  219000    1.1369604   -6.4044005    97.275415  0.037014998  0.038868046            3 
  220000    1.1762412   -6.4598941    97.079492  0.036772535  0.038860036            3 
  221000    1.1775228   -6.4198236    98.287482  0.037061645  0.038850355            4 
  222000    1.1677793   -6.4035181    99.156192  0.037220793  0.038842343            5 
  223000    1.1640671   -6.3757109     99.86379  0.037318307  0.038835534            3 
  224000    1.1728932   -6.3880964    99.701837  0.037091457  0.038828064            2 
  225000    1.1773304   -6.4118044    100.50323  0.037223418  0.038819992            6 
  226000    1.1540101   -6.3669707    100.29824  0.036983125  0.038811651            8 
  227000    1.1580595    -6.439523    100.96008  0.037063172   0.03880222            3 
  228000    1.1865521   -6.4129402    101.46936  0.037086755  0.038791834            4 
  229000    1.1391936   -6.3965237    102.07167  0.037143985  0.038783568            2 
  230000    1.1381407   -6.3666538    102.46127  0.037123649  0.038775317            9 
  231000     1.154535    -6.425683    103.11523  0.037198857  0.038767163            1 
  232000    1.1579674   -6.4077562    103.34294  0.037120307  0.038759171            4 
  233000    1.1695229   -6.4443483    103.42174  0.036989178  0.038749244            3 
  234000    1.1482585   -6.4342001    103.38704  0.036818748  0.038736079            5 
  235000    1.1822308    -6.433436    103.65581  0.036757379  0.038721367            2 
  236000    1.1507509   -6.4371478    104.32658   0.03683848  0.038704177            2 
  237000    1.1608371   -6.4057694     104.3947  0.036706997  0.038685549            4 
  238000    1.1628619   -6.4110075    105.02268  0.036772647  0.038667372            2 
  239000    1.1639444   -6.4007366    105.48603  0.036780346  0.038646863            4 
  240000    1.1494131   -6.4138014    105.22654  0.036536994  0.038627637            3 
  241000    1.1727561   -6.3962818    105.71842   0.03655547  0.038606083            1 
  242000    1.1838966    -6.357108    106.17953  0.036563198  0.038582867            3 
  243000    1.1521796   -6.4036637    106.17845  0.036412362  0.038558319            1 
  244000     1.162944   -6.4144335    106.78865  0.036471534  0.038535549            3 
  245000    1.1605878   -6.4616358    106.97974  0.036387667  0.038510437            2 
  246000    1.1673166   -6.4477364    107.66491  0.036471852  0.038486366            3 
  247000    1.1511733   -6.4078189    108.57821  0.036632325  0.038465324            4 
  248000    1.1788703   -6.4443124    108.12894  0.036333648  0.038443618            6 
  249000    1.1744565   -6.4284495    108.93784  0.036458448  0.038419745            3 
  250000    1.1420102   -6.3952186    109.30129  0.036433763  0.038397905            2 
  251000    1.1627316   -6.3677581    109.87795  0.036480063  0.038376209            3 
  252000    1.1603987   -6.4232652    109.92605  0.036351206  0.038352996            3 
  253000    1.1537533   -6.4101834    110.18554  0.036292998   0.03832887            3 
  254000     1.161737   -6.4091892    110.56292  0.036273925  0.038303763            4 
  255000    1.1253269   -6.4549944    110.53255  0.036121747  0.038279381            4 
  256000    1.1582658   -6.4010232    111.40352  0.036264167  0.038255172            3 
  257000     1.161151   -6.4059916      112.151  0.036365434  0.038230387            1 
  258000    1.1374012   -6.4177495    112.30353  0.036273748  0.038207123            2 
  259000    1.1504533   -6.4002765    112.88714  0.036321475  0.038182322            2 
  260000    1.1525853   -6.3998285    113.01501   0.03622276  0.038158478            5 
  261000    1.1576759   -6.4296477    113.38394   0.03620177  0.038135008            1 
  262000    1.1533231    -6.444753      114.124  0.036298983  0.038110414            3 
  263000    1.1402605   -6.3922744    114.19993  0.036185023  0.038087222            3 
  264000    1.1571352   -6.4275091    114.26599   0.03606881  0.038062589            4 
  265000    1.1187886   -6.4015253    115.35876  0.036276339  0.038037881            3 
  266000     1.165774   -6.4017972    115.40489  0.036154413   0.03801429            3 
  267000    1.1644421   -6.4462285    115.67066  0.036101953  0.037989909            4 
  268000    1.1544564   -6.3948224     116.8302  0.036327798  0.037965811            1 
  269000    1.1771156   -6.4676888    116.81306  0.036187441  0.037943474            5 
  270000    1.1595746   -6.4622752     116.8307  0.036058859  0.037921248            5 
  271000    1.1568835   -6.4684486    116.97528  0.035970259  0.037897258            3 
  272000    1.1362969   -6.4311638    117.44045  0.035980528  0.037874404            3 
  273000     1.126155   -6.5067518    117.74463  0.035941583  0.037850727            2 
  274000    1.1373094   -6.4167051    118.53631  0.036051189  0.037828408            2 
  275000     1.149344   -6.4485362    118.60438  0.035940723  0.037804347            4 
  276000    1.1470887   -6.4587556    118.39017  0.035745825  0.037777397            5 
  277000    1.1395166   -6.4259563    119.08905  0.035827031  0.037750525            3 
  278000    1.1552799   -6.4595404    119.01357  0.035675531  0.037723367            3 
  279000    1.1368617   -6.4473703    119.66604  0.035742545  0.037693851            2 
  280000    1.1533205   -6.4702882    119.68749  0.035621276  0.037665402            3 
  281000     1.167454   -6.4342479    120.63444  0.035775338   0.03763601            3 
  282000    1.1432284   -6.4398755    120.76981  0.035688479  0.037608228            3 
  283000     1.154067   -6.4391866    121.08832  0.035656161  0.037579934            2 
  284000    1.1413054   -6.4514179    121.31284  0.035596492  0.037550794            3 
  285000    1.1375883   -6.4651788    121.59204  0.035553227  0.037521822            4 
  286000    1.1304415   -6.4427354    121.95215  0.035533843  0.037494075            2 
  287000    1.1235691   -6.4876453    121.99648  0.035422905   0.03746485            4 
  288000    1.1569415   -6.5099831     122.3279  0.035395805  0.037433647            4 
  289000    1.1487846   -6.4813531    122.76456  0.035399239  0.037401916            7 
  290000    1.1308283   -6.4759106    122.91095  0.035319238  0.037369898            2 
  291000    1.1261632   -6.4415365    123.06734  0.035242653  0.037337115            1 
  292000    1.1572704   -6.4891935    123.55072  0.035259908   0.03730349            3 
  293000    1.1329401   -6.4716931    123.90777  0.035241118  0.037269702            3 
  294000    1.1385052    -6.478699    124.18805  0.035200694  0.037237536            5 
  295000    1.1598893   -6.4627539    124.53559  0.035179546  0.037205186            2 
  296000    1.1350365   -6.4879592    124.71784  0.035112005  0.037172409            5 
  297000    1.1638476   -6.5193005    125.02151  0.035078988    0.0371394            6 
  298000    1.1536424   -6.4646862     125.3902  0.035064375  0.037106399            3 
  299000    1.1665096    -6.517814    125.70395  0.035034544  0.037072061            3 
  300000    1.1404411    -6.468482    126.24221   0.03506728  0.037038711            3 
  301000    1.1301204   -6.4788391    127.01014  0.035163383  0.037006317            5 
  302000    1.1554465   -6.4531163    127.23778  0.035109762  0.036975168            6 
  303000    1.1317658   -6.4438509    127.65359  0.035108247  0.036945664            9 
  304000    1.1333453   -6.4579738    127.87828  0.035054353  0.036915424            3 
  305000    1.1332214   -6.5241021    128.42146  0.035087831  0.036884266            7 
  306000    1.1285193   -6.4453054    129.08706  0.035154427  0.036853658            3 
  307000    1.1161449   -6.4614511    129.51156  0.035155146  0.036824519            4 
  308000    1.1243725   -6.4962135      129.459  0.035026787  0.036793935            4 
  309000    1.1148415   -6.4652437    130.00066  0.035059508  0.036763073            2 
  310000    1.1250191   -6.4678733    130.01927  0.034951417  0.036733051            3 
  311000    1.1215797   -6.5201024    129.44101  0.034684087  0.036701101            2 
  312000    1.1337947   -6.5114131    129.89889  0.034695217  0.036666994            4 
  313000    1.0914045   -6.5211616    130.18034  0.034659301  0.036633919            2 
  314000    1.1174981   -6.5097887    130.70539  0.034688267  0.036599966            3 
  315000    1.1244187   -6.4509155    131.21427  0.034712769  0.036566547            4 
  316000    1.0978403   -6.4990012    131.23876  0.034609377  0.036533174            4 
  317000    1.1347132   -6.4892656    131.48611  0.034565222  0.036498703            3 
  318000    1.1197905   -6.4825747    131.96707  0.034582565  0.036465047            3 
  319000    1.1464377   -6.5040445    132.35887  0.034576506  0.036432986            2 
  320000    1.1273667   -6.5035647    133.02317  0.034641452  0.036401734            3 
  321000    1.0890066   -6.4937721    133.36459  0.034622169  0.036371324            2 
  322000    1.1276526    -6.478787    133.64846  0.034588111  0.036341883            3 
  323000    1.1450053   -6.4855733    133.98948  0.034569009  0.036310835            2 
  324000    1.0891841   -6.4419959    134.47953  0.034588356   0.03628025            2 
  325000    1.1282655   -6.4773908    134.75301  0.034552054  0.036250484            1 
  326000    1.1212456   -6.4756398    135.36382  0.034602203  0.036220211            2 
  327000    1.1518764   -6.4813863    136.08442  0.034680025  0.036191028            4 
  328000    1.1327777   -6.5821764    135.26369  0.034365775  0.036161274            5 
  329000    1.1157974   -6.5282824    136.31773  0.034528301  0.036131962            3 
  330000    1.1209291   -6.5488331    136.70653  0.034521852  0.036102414            4 
  331000    1.1425528   -6.5181622    136.78032  0.034436134  0.036073454            4 
  332000    1.1078962   -6.5061138    137.43952  0.034497871   0.03604517            2 
  333000    1.1211122   -6.4834431     137.8859   0.03450598  0.036016953            2 
  334000    1.1132247   -6.5241706    138.47448  0.034549521  0.035989552            3 
  335000      1.09626   -6.4589391    138.99391  0.034575599  0.035963355            4 
  336000      1.12438   -6.4821418    139.10115  0.034499292  0.035936512            3 
  337000    1.1184557   -6.5291281    139.40912  0.034473076   0.03590907            2 
  338000     1.135813   -6.5399335     139.7534  0.034455967  0.035881516            4 
  339000    1.1377877   -6.5285524    139.34979   0.03425511  0.035852641            4 
  340000    1.1128366   -6.5157766    139.92772   0.03429601  0.035824481            2 
  341000    1.0912981   -6.4799191    140.86872  0.034425396  0.035796683            4 
  342000    1.1331115   -6.4812748    140.98068  0.034352016  0.035769435            1 
  343000    1.1408204    -6.478897    141.46803   0.03437027  0.035743178            3 
  344000    1.1312032   -6.4886268     140.9543  0.034145906  0.035715283            3 
  345000    1.1138564   -6.4833528    141.80591  0.034252636  0.035687394            2 
  346000    1.1256654   -6.4941288    141.70329  0.034128923  0.035659575            2 
  347000    1.1123167    -6.530409    142.07297   0.03411935  0.035631594            4 
  348000     1.087245    -6.517879    142.55648  0.034137089  0.035603025            3 
  349000    1.1076481   -6.5030623    142.86101  0.034111988  0.035574398            2 
  350000    1.0893608   -6.5093347    142.96476  0.034039228  0.035545611            3 
  351000    1.0922364   -6.5500806    142.39297  0.033806497  0.035514546            4 
  352000    1.1069532   -6.5033828    143.62814  0.034002873  0.035483194            2 
  353000    1.1166789    -6.563873    143.26921  0.033821816  0.035452879            4 
  354000    1.0971189   -6.5310664     144.4216  0.033997552  0.035422222            6 
  355000    1.1269762    -6.512141    144.42126  0.033901704  0.035391845            3 
  356000    1.1469244   -6.5478853    144.60476  0.033849428  0.035361894            3 
  357000    1.0983232   -6.5082092    144.88252  0.033819448  0.035331374            2 
  358000    1.1098286   -6.4864862    145.73344  0.033923055  0.035301035            3 
  359000    1.1175525   -6.4693632    145.98032  0.033885868  0.035270759            4 
  360000    1.0980296    -6.552439    145.03568  0.033573074  0.035240626            5 
  361000    1.1177709   -6.5190379    145.81685    0.0336604  0.035209275            4 
  362000    1.1187456   -6.5668516    145.82716  0.033569787  0.035177733            4 
  363000    1.1129687   -6.5647588    146.41078   0.03361129  0.035145898            3 
  364000    1.1212777   -6.5056555    147.27752  0.033717381  0.035114906            2 
  365000    1.1151384   -6.5250542    147.06116  0.033575607  0.035083551            3 
  366000    1.0880671   -6.5727591     146.6715   0.03339515  0.035052202            3 
  367000    1.0939714   -6.4974378    148.10457  0.033629558  0.035021134            1 
  368000    1.0978097   -6.5420719    148.21883  0.033564048  0.034990889            3 
  369000    1.1172388   -6.5450923    148.24457    0.0334789  0.034960953            6 
  370000    1.0956001   -6.5237506    148.71653  0.033494715  0.034930568            2 
  371000    1.1000262   -6.5536735    149.04814  0.033478918  0.034901668            2 
  372000    1.1051319    -6.591086    148.97086  0.033371609  0.034871909            5 
  373000    1.1371133   -6.5628269    149.70942  0.033447145  0.034841267            3 
  374000    1.0915742   -6.5859275    149.84261  0.033387391  0.034811117            4 
  375000     1.094061   -6.5364436     150.7245  0.033494333  0.034781056            3 
  376000    1.1179372   -6.5185279    150.84412  0.033431764  0.034752505            4 
  377000    1.1044101   -6.5029261    151.47301  0.033482098  0.034723328            5 
  378000    1.1261384   -6.5340955    151.10909  0.033313291  0.034693883            3 
  379000    1.1009129   -6.5180426    151.61573  0.033336791  0.034663646            5 
  380000    1.1007361   -6.5800542    150.76763  0.033063077  0.034633525            3 
  381000     1.097517   -6.5700452    151.20107  0.033071101  0.034601994            6 
  382000    1.1067952   -6.5809919    151.69116   0.03309144  0.034570724            4 
  383000    1.0905927   -6.5516947    151.74306  0.033016333  0.034538235            3 
  384000     1.130724   -6.5459685    152.47186  0.033088511  0.034506651            6 
  385000    1.0825654   -6.5769418     152.6394  0.033038832  0.034475809            3 
  386000    1.0867393   -6.5367022    153.26493  0.033088283  0.034445069            4 
  387000    1.0923547   -6.5824874    153.15228  0.032978528  0.034415197            3 
  388000    1.1072994   -6.5666337    154.00711  0.033077129  0.034385579            4 
  389000    1.0870243   -6.6140763    153.30103  0.032840837  0.034353904            5 
  390000    1.1203837   -6.5781511    154.18359  0.032945212  0.034322318            4 
  391000    1.0869718   -6.5532803    154.57628  0.032944645  0.034290836            5 
  392000    1.1027167   -6.5324883    154.60105   0.03286587  0.034260293            7 
  393000    1.0820901   -6.6284486    155.09924   0.03288788  0.034229496            2 
  394000    1.1065505   -6.5729836    155.56653  0.032903243  0.034200161            3 
  395000    1.0838943   -6.5642375    156.14024   0.03294098  0.034170882            3 
  396000    1.0957936   -6.5651567    155.90637   0.03280858  0.034141897            2 
  397000    1.0646173   -6.5927877    156.23144  0.032794174  0.034112732            4 
  398000    1.0916194   -6.5778093     156.7373  0.032817693  0.034083429            4 
  399000    1.0915027   -6.5969451    156.42238  0.032669671  0.034054038            6 
  400000    1.0965289   -6.5842414    156.94142   0.03269613   0.03402478            3 
  401000     1.092989   -6.6124796    157.64903  0.032761644  0.033996287            4 
  402000    1.1003704    -6.606709    157.57411  0.032664616  0.033967691            3 
  403000    1.0651554   -6.5591737    158.68824  0.032813946  0.033938953            2 
  404000    1.0906986   -6.5541264    158.31274  0.032655267  0.033909629            2 
  405000    1.0746931    -6.562701    158.46888  0.032606766   0.03388141            3 
  406000    1.1028051   -6.5605027    158.66355   0.03256641  0.033852304            3 
  407000    1.0882669   -6.5346996    159.69977   0.03269856   0.03382406            2 
  408000    1.0812817   -6.5920254    159.56352  0.032590589  0.033795222            4 
  409000    1.1147292   -6.5980831    160.16221  0.032632887  0.033766516            3 
  410000    1.1040369     -6.56781    160.29982  0.032581263  0.033737523            5 
  411000    1.1110292   -6.5548775    160.72104  0.032587397  0.033709204            5 
  412000    1.0870601   -6.5763912    161.12112  0.032589224  0.033681858            2 
  413000    1.0810822   -6.5584946    162.03458  0.032694629  0.033654454            5 
  414000    1.1086055   -6.5684954    162.13349  0.032635565  0.033627329           11 
  415000    1.0832361   -6.5863828    162.02416  0.032534972  0.033600155            5 
  416000    1.0799222   -6.6072439    162.32507  0.032517041  0.033572444            1 
  417000    1.1075279   -6.5964878    162.21612   0.03241729  0.033544897            2 
  418000      1.10178   -6.6077781    163.05771  0.032507519  0.033517737            3 
  419000    1.0977416   -6.5513499    163.23825  0.032465841  0.033491984            2 
  420000    1.0932819   -6.6290389    163.49954  0.032440384   0.03346555            3 
  421000    1.0900935   -6.5746509    164.53474  0.032568238   0.03343953            2 
  422000    1.1018634   -6.5791142    165.07284  0.032597323  0.033413853            5 
  423000    1.0847631    -6.569496    165.24597  0.032554368  0.033389797            3 
  424000    1.1053761   -6.6253938    166.00116  0.032626015  0.033366172            2 
  425000     1.098502    -6.621606     165.8455  0.032518725  0.033341804            9 
  426000    1.0858548   -6.6059941    165.70656  0.032415211  0.033316868            2 
  427000    1.0902673   -6.5909527    166.33124  0.032461211  0.033292314            5 
  428000    1.0894168   -6.6156942    166.47579  0.032413511  0.033267547            3 
  429000    1.0743787   -6.6105857    166.46951  0.032336734   0.03324266            3 
  430000    1.0866771   -6.5669382     167.0286  0.032369884  0.033217905            2 
  431000    1.0638269   -6.6139629    167.13293  0.032314952  0.033193545            8 
  432000     1.079865   -6.6099273    167.81954  0.032372596  0.033169065            3 
  433000    1.1079842   -6.5936042    168.25531    0.0323817  0.033144806            2 
  434000    1.0712893   -6.6096621    168.49083  0.032352309  0.033121525            3 
  435000    1.0814838   -6.5943851    168.53278  0.032285973  0.033097798            3 
  436000    1.0658562   -6.6312712    168.81214  0.032265318  0.033073459            3 
  437000    1.0775381   -6.6345273    168.77227  0.032183881  0.033048912            6 
  438000    1.0881653   -6.6085404    169.78799  0.032303652  0.033025621            5 
  439000    1.0715176    -6.613001    169.69331  0.032212094  0.033001788            4 
  440000      1.06259   -6.6012598    169.81624  0.032162167  0.032977179            6 
  441000    1.0676542   -6.5990971    170.46735  0.032212273  0.032952746            3 
  442000    1.0904731   -6.6378882    170.26422  0.032101097  0.032928767            2 
  443000     1.072762   -6.5720045    171.08382  0.032182811  0.032904599            2 
  444000    1.0666678   -6.6233888     171.2125  0.032134479  0.032880589            3 
  445000     1.090256   -6.6429358    171.57644  0.032130419  0.032856718            9 
  446000    1.0708915   -6.6324591    172.46917  0.032225181   0.03283381            2 
  447000    1.0843067   -6.6538166     171.9905  0.032063851   0.03281061            2 
  448000     1.076199   -6.6361601    172.36711  0.032062334  0.032787117            8 
  449000    1.0588501   -6.6571995    171.77772  0.031881537  0.032763077            4 
  450000    1.0523908   -6.6015068    172.29054  0.031905655  0.032738297            2 
  451000    1.0850607   -6.6123136    171.81363  0.031746791  0.032712953            5 
  452000    1.0697009    -6.614291    172.69545  0.031839132  0.032687677            3 
  453000    1.0931181   -6.6522646      172.778  0.031784033  0.032662192            8 
  454000    1.0603661    -6.624937    173.54278  0.031854401  0.032637242            1 
  455000    1.0570785   -6.6083368    174.11353  0.031888925  0.032612974            5 
  456000    1.0568986   -6.6000111    174.20339  0.031835414  0.032588726            3 
  457000    1.0893804   -6.6294181    174.23402  0.031771339  0.032564687            3 
  458000    1.0737048   -6.6245287    174.68834  0.031784633  0.032540335            7 
  459000    1.0845999   -6.6592119    174.91634  0.031756779  0.032515519            4 
  460000    1.0769133   -6.6389753     174.7817  0.031663351  0.032490062            2 
  461000    1.0603234   -6.6765223    175.27409  0.031683675  0.032465047            5 
  462000    1.0432461   -6.6625728    175.05247  0.031575121  0.032439811            3 
  463000    1.0595042   -6.6309905    175.56408  0.031599006  0.032414989            4 
  464000    1.0608174   -6.6338625     175.9446  0.031599245  0.032389626            4 
  465000    1.0574713   -6.6596747    175.94264  0.031530939    0.0323634            8 
  466000    1.0564939   -6.6577192    175.81524  0.031440494  0.032337875            6 
  467000    1.0786387   -6.6075345    176.10554  0.031424971  0.032312036            3 
  468000    1.0775887   -6.6346467    176.55804  0.031438397  0.032285932            6 
  469000    1.0583165    -6.607998    176.51375  0.031363495  0.032258797            7 
  470000    1.0560145   -6.6314968    176.27549   0.03125452  0.032231687            4 
  471000    1.0622431   -6.6913094    176.27061  0.031187298  0.032203211            6 
  472000    1.0524759   -6.6797637    176.72708  0.031201815  0.032174897            3 
  473000    1.0757455   -6.6323927    177.23249  0.031224892  0.032147362            5 
  474000    1.0476653   -6.6796675     177.2054  0.031154254  0.032119535            3 
  475000    1.0715706   -6.6317523    177.71315  0.031177745  0.032091326            2 
  476000    1.0366564   -6.6724591    177.43039  0.031062744  0.032063125            8 
  477000    1.0867985    -6.656872    177.26444   0.03096863  0.032034899            3 
  478000    1.0817367   -6.6402299    178.18582  0.031064474  0.032007113            4 
  479000    1.0464376    -6.658232    178.45551  0.031046539  0.031980232            4 
  480000    1.0696482   -6.6538189     178.8313  0.031047101  0.031953444            3 
  481000    1.0492738   -6.6167548     179.7274  0.031137803  0.031926887            4 
  482000    1.0443001   -6.6498763    179.17248  0.030977261  0.031900257            3 
  483000    1.0557637   -6.6700264    179.51676  0.030972525  0.031873315            3 
  484000    1.0730648   -6.6332187    180.34072  0.031050399  0.031846708            5 
  485000    1.0538918    -6.688435    179.64038  0.030866045  0.031820134            4 
  486000    1.0474035   -6.6814999    179.76167  0.030823331  0.031793132            1 
  487000    1.0472099   -6.6997846    180.69324  0.030919445  0.031766443            3 
  488000    1.0414602   -6.6725704    181.11333  0.030927823  0.031739922            5 
  489000    1.0799307   -6.6658868    181.08731  0.030860141  0.031712787            3 
  490000    1.0387926   -6.6433581    181.80808  0.030919742  0.031686017            3 
  491000    1.0595618   -6.6932859    181.57838  0.030817784  0.031659532            4 
  492000    1.0738757   -6.6396161    181.52279  0.030745729  0.031633284            2 
  493000    1.0313708   -6.6472209    182.71769  0.030885344    0.0316073            5 
  494000    1.0763897   -6.6562341    182.41434  0.030771651  0.031581261            4 
  495000    1.0763688   -6.6605524    182.70709   0.03075877  0.031555593            3 
  496000    1.0648059   -6.6702133    182.81826  0.030715434    0.0315293            4 
  497000     1.051728   -6.7236582    182.33355  0.030572359  0.031502474            2 
  498000    1.0492475   -6.6636178    183.00659  0.030623593  0.031476025            6 
  499000    1.0645923   -6.6432439    184.33659  0.030784334  0.031450445            5 
  500000    1.0577715   -6.7008935    183.43446   0.03057241  0.031424231            3 
  501000    1.0451871   -6.7317636    183.95774  0.030598426  0.031397539            4 
  502000    1.0938856   -6.7171597    184.62785  0.030648713  0.031370929            3 
  503000    1.0589124   -6.6493044     184.5837  0.030580468  0.031344838            6 
  504000    1.0470519   -6.7105204    185.07729  0.030601403  0.031319078            3 
  505000    1.0297066   -6.7112044    184.58906  0.030460241  0.031293162            4 
  506000    1.0688062   -6.7213107    185.45475  0.030542613  0.031267103            5 
  507000    1.0387595   -6.6976887    185.30927  0.030458461  0.031241231            4 
  508000    1.0575124   -6.6663504    185.54809  0.030437679   0.03121485            6 
  509000    1.0486294   -6.6866863    186.28462  0.030498465   0.03118861            4 
  510000     1.043872   -6.6861621    186.23366  0.030430337  0.031163136            4 
  511000    1.0437813   -6.7008153    186.40451  0.030398648  0.031137103            3 
  512000    1.0508925   -6.6648994     186.9906  0.030434668  0.031111801            3 
  513000      1.04778   -6.6724997    187.00885  0.030378306  0.031086127            5 
  514000    1.0305026   -6.6984425    187.44527  0.030389959  0.031060579            6 
  515000    1.0307377   -6.7087876    186.94418  0.030249868  0.031034779            2 
  516000    1.0578847   -6.6744191    187.74592  0.030320723  0.031008541           11 
  517000    1.0505105   -6.7291472    187.12951  0.030162719  0.030982005            5 
  518000    1.0568894   -6.7133011    187.66172  0.030190109  0.030955544            3 
  519000    1.0583199   -6.6894556     188.0403  0.030192727  0.030929543            3 
  520000    1.0385098   -6.7149728     188.0781  0.030140721  0.030903094            5 
  521000    1.0307261   -6.6944768    188.44104  0.030140922  0.030877055            3 
  522000     1.036101   -6.6611857    189.36959  0.030231416  0.030851669            4 
  523000    1.0500017   -6.7031185    189.09801   0.03013034  0.030826613            4 
  524000    1.0514033    -6.728531    189.05125  0.030065403  0.030800696            6 
  525000    1.0202697   -6.6921207    189.55976  0.030088851  0.030775308            3 
  526000    1.0300209   -6.7213873    189.01884   0.02994595  0.030749364            2 
  527000    1.0474479   -6.7396352    189.92864  0.030032991   0.03072288            6 
  528000    1.0316787   -6.6964588       190.15  0.030011048  0.030696972           10 
  529000     1.036559   -6.7393764    190.22896  0.029966755  0.030671024            2 
  530000    1.0401033   -6.7122709    191.11731  0.030049891  0.030645492            4 
  531000    1.0321719   -6.7294674    190.42545  0.029884721  0.030620086            3 
  532000    1.0436858   -6.7060221    191.70326  0.030028706  0.030595284            4 
  533000    1.0253969   -6.7543212    191.62635  0.029960342  0.030570646            3 
  534000    1.0433003   -6.7235247    192.57954  0.030052988  0.030545976            4 
  535000    1.0326232   -6.6904873    192.92115  0.030050023    0.0305219            7 
  536000     1.061207   -6.6975427    193.50758  0.030085134   0.03049811            4 
  537000      1.03968   -6.7273219    192.69538   0.02990307   0.03047469           15 
  538000    1.0431787   -6.7294762    192.93358  0.029884383  0.030450512            4 
  539000    1.0342273   -6.7047739    193.21254  0.029872069  0.030426513            4 
  540000    1.0463501   -6.7293378    193.24126  0.029821182  0.030402757            3 
  541000    1.0588678   -6.7253434     194.5827   0.02997269  0.030378519            2 
  542000     1.048282   -6.6995659    194.34829  0.029881349   0.03035502            6 
  543000    1.0466903   -6.6986115    195.05555  0.029934861  0.030331283            4 
  544000    1.0441288   -6.6976926    195.03724  0.029877029  0.030307571            5 
  545000     1.031804   -6.7758894    194.12375  0.029682531  0.030283305            3 
  546000    1.0497844   -6.7368732    194.78129  0.029728524  0.030259091            3 
  547000     1.058837   -6.7023204    195.34183  0.029759571   0.03023513            4 
  548000    1.0373978   -6.6984887    195.53391  0.029734476  0.030211359            4 
  549000    1.0444282   -6.7096666    195.77356  0.029716691  0.030187788            3 
  550000    1.0370281   -6.6933375    196.53897  0.029778633  0.030164712            6 
  551000     1.024551   -6.7096397    196.00398  0.029643675  0.030141684            4 
  552000    1.0342066   -6.7145949    195.84426   0.02956586  0.030118523            4 
  553000    1.0525774   -6.7159076    197.09254  0.029700503  0.030095278            5 
  554000    1.0420856   -6.7678165    196.10624  0.029498532  0.030071496            7 
  555000     1.031605   -6.7329248    196.37553  0.029485816  0.030047516            3 
  556000    1.0351181   -6.7458795    196.85574  0.029504757  0.030023936            2 
  557000    1.0277435   -6.7204995    197.66577  0.029572976  0.030000374            3 
  558000    1.0604957   -6.7291866    197.78982  0.029538504  0.029977145           11 
  559000    1.0185152   -6.7299916     198.0857   0.02952977  0.029954125            4 
  560000     1.030087   -6.7306553    198.62095  0.029556688   0.02993099            6 
  561000     1.039711   -6.7477818      198.396  0.029470588  0.029908554            6 
  562000    1.0575566   -6.7471165    198.90676  0.029493885  0.029885385            4 
  563000    1.0029824    -6.745825    198.54838  0.029388451  0.029861964            3 
  564000    1.0147619   -6.7851372    198.71925  0.029361591  0.029838316            5 
  565000    1.0276348   -6.7698362    199.21434  0.029382646  0.029814727            3 
  566000    1.0276815   -6.7386446    199.35755  0.029351819  0.029791292            3 
  567000    1.0378018    -6.750449    199.69964  0.029350329  0.029767458            4 
  568000    1.0187282   -6.7216845    199.86729  0.029323253  0.029743873            2 
  569000    1.0184063   -6.7840094    199.74644  0.029254018  0.029720855            5 
  570000    1.0168197   -6.7669316    200.54107  0.029318869  0.029697302            4 
  571000      1.02062   -6.8016542    199.63903  0.029135878  0.029673659            6 
  572000    1.0343916   -6.7203977    201.17572  0.029308816  0.029650142            2 
  573000    1.0036051   -6.7143089    201.19661  0.029260705  0.029626984            3 
  574000    1.0135383   -6.7394288    201.02452  0.029184745  0.029603647            3 
  575000    1.0361868   -6.7489081    201.46292  0.029197524   0.02957997            2 
  576000     1.005531   -6.7724395    201.60411  0.029167262  0.029556611            5 
  577000     1.027343   -6.7617461    201.34345  0.029079066   0.02953308            7 
  578000    1.0196285   -6.7598517    202.01072   0.02912496  0.029509767            2 
  579000    1.0208372   -6.7875197    201.73604  0.029035123  0.029486442            6 
  580000    1.0411069   -6.7507509    202.05264  0.029030552  0.029463146            5 
  581000   0.99596875   -6.7804308    202.06354  0.028982149  0.029439627            5 
  582000    1.0281292    -6.790405    202.54972  0.029001964  0.029416492            7 
  583000     1.021254   -6.7860882    203.08717  0.029029041  0.029392942            3 
  584000    1.0016424   -6.7991277     202.6561  0.028917823  0.029369455            4 
  585000    1.0265742   -6.7853636    202.95573  0.028911073  0.029346056            3 
  586000     1.024665   -6.7588303    203.29228  0.028909596  0.029322278            4 
  587000   0.99562629   -6.7711155    203.17225  0.028843306  0.029298625           11 
  588000    1.0243256   -6.7300047     203.9523  0.028904804  0.029274738            7 
  589000    1.0055176    -6.759182    203.33045  0.028767749  0.029251397            4 
  590000    1.0091706   -6.7782499    203.54692  0.028749566  0.029227624            5 
  591000    1.0606852   -6.7170177    204.15515  0.028786682  0.029203967            3 
  592000    1.0217579   -6.7508163    203.98452  0.028714037  0.029180428            4 
  593000    1.0143366   -6.7777026    203.98846   0.02866617  0.029156636            5 
  594000   0.99895418   -6.7833185    204.18852  0.028645976  0.029132634            3 
  595000    1.0507377   -6.7475692    205.09276  0.028724476   0.02910867            5 
  596000    1.0358295   -6.7892067    204.35224   0.02857274  0.029084729            9 
  597000    1.0240966   -6.7687229    203.97501  0.028472224  0.029060567            7 
  598000    1.0182487   -6.8432674    203.64261   0.02837829  0.029036192            3 
  599000    1.0039703   -6.8267248    204.30028  0.028422409  0.029011351            7 
  600000    1.0169072   -6.8167286    204.55169  0.028409956  0.028986853            2 
  601000    1.0347431   -6.7815702     205.1495  0.028445576  0.028962422            3 
  602000    1.0245865    -6.746064    205.66294  0.028469399  0.028938386            3 
  603000   0.99516733   -6.8060494    205.40314  0.028386282  0.028914177            2 
  604000   0.99391557   -6.7639957    206.22801  0.028453091  0.028889865            5 
  605000    1.0088483   -6.7901339     206.1761  0.028398911  0.028865723            5 
  606000    1.0262816   -6.7884143    206.20456  0.028355963  0.028841904            8 
  607000    1.0240328   -6.8187191    206.72149  0.028380216  0.028817912            4 
  608000    1.0241548   -6.8111412    207.03282  0.028376209   0.02879376            5 
  609000    1.0088397   -6.8273402    206.58169  0.028267883  0.028770024            4 
  610000   0.99767681   -6.8211606    206.83792  0.028256546  0.028745968            4 
  611000    1.0131722   -6.8474932    206.77206  0.028201318  0.028721869            5 
  612000    1.0186797   -6.8181789    207.55877  0.028262359   0.02869745            4 
  613000    1.0095399   -6.8214254    207.71293  0.028237212  0.028673177            4 
  614000    1.0015118   -6.7904106     208.0928   0.02824278  0.028648946            4 
  615000    1.0296519   -6.8056383    207.92727  0.028174427  0.028625084            3 
  616000    1.0133583     -6.80318    207.68075  0.028095339  0.028601028            4 
  617000    1.0029666   -6.7917875    207.92399  0.028082657  0.028576455            4 
  618000    1.0026937   -6.7964572    208.14759  0.028067366  0.028551677            6 
  619000    1.0095381   -6.7841135    208.58862  0.028081397  0.028526882            6 
  620000     1.010611   -6.8098347    207.74734  0.027923029  0.028502036            5 
  621000   0.99258525     -6.81437    208.95067  0.028039542  0.028477617            3 
  622000    1.0016315   -6.8023809    208.37547  0.027917399  0.028453236            4 
  623000   0.99119282   -6.8034608    208.82067  0.027932139   0.02842902            3 
  624000    1.0196621   -6.7989226    209.76074  0.028012919  0.028404766            3 
  625000    1.0042353   -6.7664836    210.06868  0.028009158  0.028380726            3 
  626000    1.0030935   -6.8308076    209.82638  0.027932159  0.028356569            2 
  627000    1.0169364   -6.8015684    209.99395  0.027909881  0.028332422            3 
  628000    1.0144791   -6.8239845     209.8617   0.02784789  0.028308178            5 
  629000   0.98781003   -6.7870522    210.69943  0.027914604  0.028284562            4 
  630000   0.99720778   -6.8079817    210.84852  0.027890016  0.028260855           14 
  631000   0.98524519    -6.823467    211.23063  0.027896279  0.028237027           15 
  632000     1.005171   -6.8266736    210.86572  0.027804025   0.02821319            4 
  633000    1.0115545   -6.8209209    211.16355  0.027799309  0.028189385            3 
  634000   0.98721802   -6.8226653    211.99842  0.027865198   0.02816582            3 
  635000    1.0258813   -6.8165518    211.95071  0.027815054  0.028142709            9 
  636000   0.98594885   -6.8351592    212.08905  0.027789446  0.028119739            5 
  637000    1.0084206   -6.8433563    211.92205  0.027723974   0.02809695            6 
  638000    1.0156912   -6.7989221    212.78352  0.027793041  0.028073955            7 
  639000   0.99741662   -6.8339083    213.47276  0.027839431  0.028051357            9 
  640000    1.0051313   -6.8606417    213.19151  0.027759311  0.028028311            4 
  641000    1.0060324   -6.8495406    213.53295  0.027760394  0.028005714            3 
  642000    1.0058296   -6.7801294    213.92012  0.027767409  0.027983303            5 
  643000     1.001193     -6.80461    214.38269  0.027784174  0.027961006            6 
  644000    1.0071558   -6.8198218    214.49745  0.027755882  0.027938809            6 
  645000   0.98949945   -6.8437805    214.12103  0.027664216  0.027916523            2 
  646000     1.013086   -6.8504454    214.20466   0.02763218  0.027893865            5 
  647000   0.96314051   -6.8627106    214.70832  0.027654343  0.027871086            2 
  648000    1.0107363   -6.8510298    214.42652  0.027575427  0.027848502            5 
  649000    1.0050673    -6.820428    214.74909  0.027574356  0.027826401           15 
  650000   0.99831519   -6.8533294    215.17605  0.027586673  0.027804032            8 
  651000    1.0173798    -6.874467    214.87992  0.027506391  0.027781666            3 
  652000    1.0084401   -6.8716243     215.1133  0.027494031  0.027759389            7 
  653000   0.98943176   -6.8637136    214.82356  0.027414952  0.027736941            6 
  654000    1.0065281   -6.8775623    215.21265  0.027422611  0.027714167            7 
  655000    1.0105318   -6.8827949    214.99337  0.027352846  0.027691555            9 
  656000   0.98296445    -6.881036    215.99055  0.027437824  0.027668991            4 
  657000   0.98111135   -6.9327113    215.32593  0.027311762  0.027646026            2 
  658000    1.0122935   -6.8057588    216.50768  0.027419919  0.027623462            5 
  659000    1.0051922   -6.8323187    216.33975  0.027357075  0.027601213            7 
  660000    1.0090531   -6.8376129    216.66634   0.02735686  0.027578618            5 
  661000   0.98526904   -6.8763269    216.77289  0.027328907  0.027556181            4 
  662000   0.99656908   -6.8489486    217.36545  0.027362217  0.027533961            5 
  663000      1.00294   -6.8459994    217.34102  0.027317876  0.027512032            9 
  664000    0.9877375   -6.8177249    217.92696  0.027350271  0.027490164            4 
  665000   0.98002255   -6.8417772    218.12465  0.027333916  0.027468073            5 
  666000   0.97191704   -6.8560508    217.80145  0.027252433  0.027446161            4 
  667000   0.99293574   -6.8473958    218.14092  0.027253988  0.027424428            3 
  668000   0.97276133   -6.8528967    218.20817  0.027221578  0.027402507            6 
  669000    1.0102217   -6.8387503    218.39257  0.027203857    0.0273806           10 
  670000   0.97765009   -6.8803433    218.07182   0.02712336  0.027358666            9 
  671000   0.97782031    -6.901494    218.21426  0.027100628  0.027336906            3 
  672000   0.98623175   -6.8380827    219.78998  0.027255702  0.027315322            5 
  673000   0.96893331   -6.9039455     219.0825  0.027127601  0.027293363            2 
  674000   0.98385992   -6.8236864    219.40624  0.027127379   0.02727167            2 
  675000   0.99361346   -6.8687157    219.50932  0.027099916  0.027249756            4 
  676000   0.97948849    -6.862007    219.60836  0.027072036   0.02722777            4 
  677000     1.001276   -6.8437679    220.09308  0.027091713  0.027205953            8 
  678000   0.97785871   -6.8572397    219.93677  0.027032543  0.027184207            5 
  679000   0.98068969   -6.8487456     220.4225  0.027052344  0.027162283            3 
  680000   0.99554014   -6.8511338    220.58371  0.027032318  0.027140626            4 
  681000   0.96783469    -6.891454    220.68647  0.027005197  0.027118684            3 
  682000    1.0109296   -6.8485362    220.37726  0.026927818  0.027096687            6 
  683000    0.9922007   -6.8451861    220.53446  0.026907571  0.027074777            7 
  684000   0.96409449   -6.8424771    220.98542  0.026923174  0.027052899            4 
  685000    0.9782129   -6.8817338    220.28259  0.026798368   0.02703105            9 
  686000   0.97906032   -6.8845545     221.4961  0.026906718  0.027009251            7 
  687000   0.97912322    -6.844185    222.08916  0.026939491  0.026987702            4 
  688000   0.97815101   -6.8424958    221.89171  0.026876418  0.026966285            3 
  689000   0.97960702   -6.9032732    220.97312  0.026726309  0.026944609            4 
  690000   0.98677016   -6.8929293    222.76522  0.026904012  0.026922791            3 
  691000   0.97078213   -6.8917254    221.64601  0.026730103  0.026901008            5 
  692000   0.99796159   -6.8939015    221.85957  0.026717193  0.026879545            8 
  693000   0.99582864   -6.8449784    223.00819  0.026816762  0.026858093            3 
  694000   0.95419442   -6.9078578    222.78872  0.026751767   0.02683664            6 
  695000    0.9569018   -6.9047916    222.48596  0.026676974  0.026815053            5 
  696000   0.97557469   -6.9156984    222.84438  0.026681559  0.026793706            6 
  697000   0.97384645   -6.8998019    222.87042  0.026646391  0.026772206            4 
  698000   0.95739996   -6.8499931    223.57359  0.026692167  0.026750632            2 
  699000    0.9590055   -6.9095303    223.49391  0.026644481  0.026729077            6 
  700000    0.9572301   -6.9007323    223.53079  0.026610808  0.026707423            4 
  701000   0.95281193   -6.9133651    223.66125  0.026588356  0.026686343            6 
  702000   0.95668283   -6.8835429    224.39519  0.026637605  0.026665429            5 
  703000   0.99636178    -6.891458    224.82335  0.026650468  0.026644762            4 
  704000   0.96443057   -6.8848259    225.05063  0.026639516  0.026624205            5 
  705000    0.9920893   -6.8762766    224.69765  0.026560006  0.026603625            5 
  706000   0.96098119     -6.94451    224.22222  0.026466267  0.026582678            3 
  707000   0.97325914   -6.9142682    224.91891  0.026510952  0.026561621            3 
  708000   0.97356853   -6.9079315    224.75438  0.026454141  0.026540646            8 
  709000   0.96576633   -6.8799223    226.60932  0.026634852  0.026519743            4 
  710000   0.95804721   -6.8783391     226.3177   0.02656311  0.026498903            4 
  711000   0.95944483   -6.9400639    224.78537  0.026346152  0.026477987            4 
  712000   0.94180726   -6.9227864    225.43383  0.026385045  0.026456742            7 
  713000   0.96092444   -6.9154153    225.89144  0.026401524  0.026435438            4 
  714000   0.95423022   -6.9056374    225.74306   0.02634723   0.02641452            6 
  715000   0.97360901   -6.9454071     225.5929  0.026292878   0.02639354            9 
  716000   0.96916724   -6.8929273    226.55481  0.026368111  0.026372719            6 
  717000   0.96526577   -6.8707579    226.46048  0.026320372  0.026352055            4 
  718000   0.95979037   -6.8936798    226.87117   0.02633138  0.026331373            4 
  719000   0.97276606   -6.8966478     227.0845  0.026319483  0.026310776            4 
  720000   0.98143613   -6.9132352    227.20432  0.026296797  0.026290234            7 
  721000    0.9620415   -6.9248737    227.82676  0.026332265  0.026269838            4 
  722000   0.97082901    -6.916256    227.54217  0.026262946  0.026249225           11 
  723000     0.948813   -6.9386792    227.37463  0.026207311   0.02622848            7 
  724000   0.97965141    -6.922354    228.79561   0.02633467  0.026208083            4 
  725000   0.99299529   -6.9075431    228.42872  0.026256175  0.026187921            5 
  726000    0.9585129   -6.9021473    229.34779  0.026325504   0.02616815            3 
  727000   0.96644831   -6.8925154    228.59029  0.026202463  0.026148384            6 
  728000   0.97468039   -6.9364129    229.15142  0.026230702  0.026128316            6 
  729000    0.9497952   -6.9728758     228.3955   0.02610831  0.026108268            6 
  730000   0.95335206   -6.9656927    228.70304  0.026107654   0.02608791            6 
  731000   0.97084076   -6.9488698    228.84311  0.026087905  0.026067375            3 
  732000    0.9680489   -6.9642423    228.75831  0.026042612  0.026046836            4 
  733000   0.96168152   -6.9558329     229.5721  0.026099603  0.026026571           11 
  734000   0.94822865   -6.9570956     230.2706  0.026143346  0.026006445            6 
  735000   0.95186313   -6.9395166    230.44631    0.0261277    0.0259866            3 
  736000   0.94800994   -6.9350808    230.53865  0.026102655  0.025966881            8 
  737000   0.96960539   -6.9189598    230.60033  0.026074211  0.025947279            2 
  738000   0.95843663    -6.980077    230.58605  0.026037269  0.025927478            7 
  739000   0.94744923   -6.9395277    231.03624  0.026052801  0.025907843            3 
  740000   0.96783993   -6.9627568    230.84881  0.025996488  0.025888306            5 
  741000   0.96829839   -6.9402552    231.44465  0.026028413   0.02586854            5 
  742000    0.9486441   -6.9448507    231.14815  0.025960035  0.025849186            6 
  743000   0.96256989   -6.9473281    231.88533  0.026007776  0.025830017            9 
  744000    0.9629984    -6.984552    231.23338  0.025899796  0.025810566            6 
  745000   0.96301968   -6.9202587    232.05541  0.025956981  0.025791144            3 
  746000    0.9613421   -6.9105265    232.60177  0.025983218  0.025771986            4 
  747000   0.96132627   -6.9531444    232.31854  0.025916838  0.025752854            8 
  748000    0.9364169   -6.9597243    232.50075   0.02590249  0.025733771            3 
  749000     0.953491   -6.9544751    232.95571  0.025918526  0.025714663            3 
  750000   0.95712904   -6.8995527     233.4094  0.025934377  0.025695489            7 
  751000   0.94891426    -6.945443    233.13108  0.025868961  0.025676405            3 
  752000     0.948863   -6.9421587     233.2366  0.025846255  0.025657744            5 
  753000   0.94475163   -6.9732373    232.86247  0.025770525  0.025638684            5 
  754000    0.9395518    -6.973253     233.6418   0.02582248  0.025619691            4 
  755000   0.94958293   -6.9244592    234.66784  0.025901528  0.025600871            5 
  756000    0.9652792   -6.9934662    233.46502   0.02573468  0.025581975            3 
  757000   0.95902169   -6.9340782    234.28626   0.02579109   0.02556316            3 
  758000   0.95393046   -6.9550395    233.44658  0.025664752  0.025544357            4 
  759000   0.95104625   -6.9729914    233.93798   0.02568489  0.025525406            5 
  760000   0.94754583    -6.978207    234.42707  0.025704723  0.025506308            5 
  761000   0.95991935   -6.9759741    234.32853  0.025660154  0.025487084            5 
  762000   0.92117053   -7.0043669    234.34134   0.02562788  0.025467792            3 
  763000   0.94450486   -6.9715109    234.92046  0.025657543   0.02544869            6 
  764000   0.95654136   -6.9605737     235.1275  0.025646543  0.025429376            5 
  765000   0.95335419   -6.9806398    234.89647  0.025587851  0.025410142            5 
  766000   0.94880071   -6.9660727    235.48847  0.025618851  0.025391086           10 
  767000   0.95319683    -6.969228    234.99073   0.02553137  0.025371813            5 
  768000   0.94902602    -6.998513    235.12501  0.025512696   0.02535259            5 
  769000   0.94981948   -7.0249442    234.94294   0.02545979  0.025333204            4 
  770000    0.9419843   -6.9767977    235.05119   0.02543844  0.025313516            3 
  771000   0.96035571   -7.0233076    234.85045   0.02538375  0.025293844            3 
  772000    0.9696503   -6.9556619    235.89404  0.025463519  0.025274535            4 
  773000   0.94581924   -7.0002563    235.51985  0.025390238  0.025255292            4 
  774000   0.93262957   -6.9479757    236.81893  0.025497301  0.025236269            8 
  775000   0.91759531   -6.9721467    236.65874  0.025447176  0.025217223            5 
  776000   0.95456056   -6.9310877    237.25713  0.025478644  0.025198595            7 
  777000   0.96475591   -6.9628336     236.4629  0.025360672  0.025179649            6 
  778000   0.94216102   -6.9735879    235.91865  0.025269778  0.025160396            8 
  779000   0.95706564   -6.9369271    238.03297  0.025463519  0.025141295            2 
  780000   0.93212448   -7.0050042    236.62753  0.025280719  0.025122116            8 
  781000   0.94521537   -6.9970859    236.27589  0.025210829  0.025102663            8 
  782000   0.93347637   -7.0024928    236.26197  0.025177106  0.025082899            8 
  783000   0.93728168   -7.0006997    237.26022  0.025251194  0.025063628            8 
  784000   0.93654429   -6.9585778    237.22804  0.025215566  0.025044304            4 
  785000   0.92102504   -7.0081821    237.14237  0.025174349  0.025025026           22 
  786000   0.92880513    -6.985315    237.34048  0.025163325  0.025005531           12 
  787000   0.95259313   -6.9891687    237.69491  0.025168881  0.024985885            4 
  788000   0.93103481   -6.9992718     237.3193  0.025097219   0.02496633            4 
  789000   0.93652072   -6.9989055    238.10519  0.025148415   0.02494706            6 
  790000   0.92652527    -6.983362    238.11472  0.025117587  0.024928052            4 
  791000   0.93226331   -7.0176642    237.26716  0.024996541  0.024908822            5 
  792000   0.92715934   -7.0192676    238.28698  0.025072283  0.024889362           12 
  793000   0.94189867   -6.9961392    238.54698  0.025067989  0.024869946            3 
  794000   0.92771999   -7.0181014    237.93887  0.024972594  0.024850747            7 
  795000   0.93475821   -7.0310847    238.08124  0.024956105  0.024831162            4 
  796000   0.93371865   -7.0094131    238.40748  0.024958907  0.024811829            6 
  797000   0.93415975   -7.0089398    238.55957  0.024943494  0.024792496            3 
  798000   0.92475356   -7.0048855    239.88629  0.025050782  0.024773257           12 
  799000   0.93413613   -7.0074746    239.14774  0.024942401  0.024754257            8 
  800000    0.9358867   -7.0238937    239.26571  0.024923511  0.024735254            3 
  801000   0.94857182   -7.0385558    239.05085  0.024870043  0.024716117            8 
  802000   0.93477303   -6.9897671    239.45595  0.024881126  0.024696904            4 
  803000   0.93915367   -6.9981375     239.3952  0.024843836  0.024677998            3 
  804000   0.92291159   -7.0471111    238.72475  0.024743444   0.02465896            3 
  805000    0.9153427   -6.9654061     240.1393   0.02485914  0.024639994            7 
  806000   0.93822344   -6.9970508    240.13319  0.024827666    0.0246211            7 
  807000   0.93129144   -7.0257598    239.36383  0.024717454  0.024602274            6 
  808000     0.920367   -7.0494985    239.51863  0.024702829  0.024582968            4 
[...]
 1800000   0.53562433   -8.1216415    262.48211   0.01215195  0.010324722          517 
 1801000   0.52700298   -8.1154919    262.33968  0.012138612  0.010315467          481 
 1802000   0.51486773   -8.1181927    262.48888  0.012138775  0.010306221          570 
 1803000   0.54108059   -8.1223032    262.70899  0.012142216  0.010296978          468 
 1804000   0.53637053   -8.1182186    262.21994  0.012112894  0.010287757          597 
 1805000   0.54258418   -8.1183945    262.16421  0.012103611  0.010278543          463 
 1806000   0.53335619   -8.1241288    262.24859  0.012100803  0.010269353          526 
 1807000   0.53951928   -8.1379491    262.29014  0.012096022  0.010260157          451 
 1808000   0.53640306   -8.1363581    262.41865  0.012095255  0.010250964          595 
 1809000   0.53585087   -8.1363763    262.10832  0.012074273  0.010241785          457 
 1810000   0.52315743    -8.126928    262.23931  0.012073633  0.010232614          498 
 1811000   0.52810619   -8.1243588    262.57573  0.012082447  0.010223479          577 
 1812000   0.53177379   -8.1371782    262.67385  0.012080291  0.010214343          489 
 1813000   0.51971432   -8.1308036    262.08293  0.012046467   0.01020522          481 
 1814000   0.53711155   -8.1274814    262.38308  0.012053615  0.010196085          548 
 1815000   0.52483569      -8.1213    262.34182  0.012045079  0.010186976          546 
 1816000   0.52648283   -8.1247502     262.3513  0.012038881  0.010177878          515 
 1817000   0.53402155   -8.1243884    262.46914   0.01203766  0.010168788          444 
 1818000   0.52719271   -8.1413503    261.93976  0.012006773  0.010159699          578 
 1819000   0.53045829   -8.1551222    262.23051  0.012013492  0.010150625          532 
 1820000   0.53148964    -8.130332    262.34959  0.012012344  0.010141557          395 
 1821000   0.52135662   -8.1525399     262.3873  0.012007473  0.010132494          581 
 1822000   0.51495554   -8.1313743    262.34621  0.011999003  0.010123444          562 
 1823000   0.52775498   -8.1405789    262.12506  0.011982312  0.010114397          507 
 1824000   0.52932232    -8.152761    262.04931  0.011972282  0.010105353          646 
 1825000   0.53429213   -8.1348177    262.47445  0.011985135  0.010096319          568 
 1826000    0.5431323   -8.1373469    261.69858  0.011943162  0.010087293          592 
 1827000   0.51914499   -8.1406479    262.23527  0.011961105   0.01007828          396 
 1828000   0.53368365   -8.1658694    262.10752  0.011948738  0.010069276          536 
 1829000    0.5261626   -8.1445258    261.64282  0.011921032  0.010060277          614 
 1830000   0.51587458   -8.1559212    262.16957  0.011938505  0.010051279          523 
 1831000   0.51101335   -8.1521352     261.8784  0.011918733  0.010042301          594 
 1832000   0.51525826    -8.150492    262.09437  0.011922051  0.010033341          500 
 1833000    0.5166167   -8.1468704    261.81524  0.011902857  0.010024386          365 
 1834000   0.51927625   -8.1532405    261.91186  0.011900757  0.010015439          378 
 1835000   0.51577619   -8.1572468    262.50019   0.01192099  0.010006505          499 
 1836000   0.51612237   -8.1516443    262.25525  0.011903379 0.0099975825          551 
 1837000   0.51358886   -8.1428177    261.90343  0.011880939 0.0099886715          552 
 1838000   0.52354482   -8.1586619    261.93225  0.011875782 0.0099797691          587 
 1839000   0.52346206    -8.145705    262.07464  0.011875777 0.0099708738          712 
 1840000   0.51610816   -8.1586936    261.81381  0.011857509 0.0099619927          520 
 1841000   0.51739156   -8.1462168    261.65738  0.011843988 0.0099531172          415 
 1842000   0.51858523   -8.1469875    262.31097  0.011867127 0.0099442604          638 
 1843000   0.51572661   -8.1502199    261.66449  0.011831457 0.0099354093          407 
 1844000   0.52437667   -8.1621466    261.49965  0.011817591 0.0099265723          581 
 1845000   0.51872857   -8.1433707    262.08689   0.01183771  0.009917746          561 
 1846000      0.52243   -8.1659791    261.49392  0.011804529 0.0099089101          464 
 1847000   0.51296762   -8.1414834    261.86478   0.01181487 0.0099000964          492 
 1848000   0.51434269   -8.1624895    261.86884   0.01180866 0.0098912909          439 
 1849000   0.52024363   -8.1637863    261.92849  0.011804962 0.0098824998          456 
 1850000    0.5130275   -8.1432031    262.35376  0.011817737 0.0098737115          668 
 1851000    0.5191959   -8.1484057    261.54096   0.01177476 0.0098649391          456 
 1852000   0.51670996   -8.1499052    261.59829  0.011770981  0.009856172          486 
 1853000   0.51549315   -8.1592703     261.6918  0.011768835 0.0098474158          282 
 1854000   0.51658429   -8.1568775      261.633  0.011759844  0.009838661          559 
 1855000   0.52242544   -8.1543131    261.79377  0.011760726 0.0098299225          428 
 1856000    0.5173424   -8.1493685    261.70224   0.01175028 0.0098211966          451 
 1857000   0.52533255   -8.1645587    261.93713  0.011754493 0.0098124791          549 
 1858000   0.50472041   -8.1819922    261.47945   0.01172764 0.0098037688          555 
 1859000   0.50996706   -8.1616432    261.45566  0.011720264 0.0097950691          534 
 1860000   0.50531498   -8.1837388    261.73087  0.011726294 0.0097863758          417 
 1861000   0.51536993   -8.1808915    261.80208  0.011723181 0.0097776964          537 
 1862000   0.51238253   -8.1651358    261.31603  0.011695132  0.009769034          561 
 1863000   0.51240682   -8.1626724    261.90581  0.011715236 0.0097603826          563 
 1864000   0.49850746   -8.1729538    261.18896  0.011676903 0.0097517297          554 
 1865000    0.5156263   -8.1673371    261.76904  0.011696561 0.0097430923          537 
 1866000   0.52221281   -8.1726224     261.6865  0.011686607 0.0097344705          596 
 1867000   0.50302036   -8.1662654    261.89065   0.01168946 0.0097258666          553 
 1868000   0.50425913   -8.1605871    261.73294  0.011676166 0.0097172601          517 
 1869000   0.50597574    -8.183183    261.47879  0.011658587 0.0097086586          542 
 1870000   0.50365406    -8.180444    261.31124  0.011644886 0.0097000537          591 
 1871000   0.52053031   -8.1693111    261.72205  0.011656959 0.0096914719          610 
 1872000   0.50507238   -8.1827928     261.1719  0.011626242 0.0096828909          598 
 1873000   0.50553545   -8.1884495    261.33978  0.011627504 0.0096743268          522 
 1874000   0.49181635   -8.1833158    261.62621  0.011634036 0.0096657687          437 
 1875000   0.50664878   -8.1858972    261.35992  0.011615996 0.0096572245          663 
 1876000   0.51264577   -8.1852526    261.71911   0.01162576 0.0096486861          463 
 1877000   0.50570386    -8.195915    261.35868  0.011603564 0.0096401594          469 
 1878000   0.50563459   -8.1656101    261.48306  0.011602905 0.0096316348          402 
 1879000   0.49446884   -8.1692232    261.96564  0.011618132 0.0096231424          568 
 1880000   0.50521593   -8.1960694    261.56854   0.01159435 0.0096146483          512 
 1881000   0.50552848   -8.1489294    262.08194  0.011610931 0.0096061714          707 
 1882000   0.50739725   -8.1794111    261.24396  0.011567657 0.0095976874          555 
 1883000   0.50891144   -8.1847157    261.29631   0.01156383 0.0095892242          584 
 1884000   0.49522836   -8.1688818    261.54775  0.011568814 0.0095807674          575 
 1885000     0.508773   -8.1857778     261.4964  0.011560407 0.0095723172          527 
 1886000   0.50475727   -8.1765165    261.72052   0.01156418 0.0095638849          650 
 1887000   0.49312052   -8.1833858    261.94406  0.011567923 0.0095554629          523 
 1888000    0.4881359   -8.1870288    261.19856  0.011528891 0.0095470503          520 
 1889000   0.50655141   -8.1917907     261.2509  0.011525097 0.0095386408          540 
 1890000    0.5014496   -8.1948003    261.23255   0.01151819 0.0095302532          393 
 1891000   0.49155825   -8.1996496    261.66661  0.011531227 0.0095218742          500 
 1892000   0.49289601   -8.1720836    261.75095  0.011528847 0.0095135048          427 
 1893000   0.49328356   -8.1783596    261.52963  0.011513014 0.0095051356          596 
 1894000    0.4955903   -8.1970633    261.59531  0.011509825 0.0094967811          587 
 1895000    0.4977161   -8.1837861    261.81592  0.011513453 0.0094884465          538 
 1896000   0.49244472    -8.186096    261.49754  0.011493387 0.0094801183          583 
 1897000   0.50477637   -8.1964147    261.14079  0.011471657 0.0094717937          635 
 1898000   0.49408131   -8.1771889    261.36807  0.011475591 0.0094634662          600 
 1899000   0.50448099   -8.1951203    262.15959  0.011504283 0.0094551627          547 
 1900000     0.497015   -8.2040936    261.56664  0.011472221 0.0094468643          428 
 1901000   0.50206309   -8.1974373    261.41895  0.011459712 0.0094385852          576 
 1902000   0.49312504    -8.186804    261.79571  0.011470194 0.0094303057          437 
 1903000   0.49472001   -8.2045416    261.63598  0.011457172  0.009422036          613 
 1904000   0.49497383   -8.1797999    261.63405   0.01145107 0.0094137582          456 
 1905000   0.48838498    -8.191983     261.2082   0.01142643 0.0094054955          532 
 1906000   0.49375279   -8.1917314    261.24665  0.011422116 0.0093972462          598 
 1907000   0.49570941   -8.2071972    261.38132  0.011422012 0.0093890052          490 
 1908000   0.49641098   -8.2034554    261.76021  0.011432574   0.00938077          562 
 1909000   0.48519139   -8.2034146    261.66501  0.011422429 0.0093725356          570 
 1910000   0.49154551   -8.2133428    261.00149    0.0113875 0.0093643098          693 
 1911000   0.48771279   -8.2092174    261.02812  0.011382702 0.0093561015          736 
 1912000    0.4821385   -8.1949204    260.99465   0.01137529  0.009347902          647 
 1913000   0.47663768   -8.1994149    261.02392  0.011370618 0.0093397055          482 
 1914000   0.49066697    -8.212221    261.29168  0.011376336 0.0093315207          489 
 1915000   0.49576708   -8.1983735    261.40162  0.011375179 0.0093233519          479 
 1916000   0.49065879   -8.2131272    261.25368  0.011362808 0.0093151874          626 
 1917000   0.49967475   -8.1962387    261.14848  0.011352307 0.0093070272          572 
 1918000   0.48716103   -8.2065971     261.2081  0.011348979 0.0092988788          629 
 1919000    0.4936137   -8.1948419    261.83806  0.011370421 0.0092907502          530 
 1920000   0.48168768   -8.1951272    261.56857  0.011352803 0.0092826221          527 
 1921000    0.4831218   -8.2137977    261.67786  0.011351634 0.0092744949          596 
 1922000   0.47716951    -8.216456     261.4336  0.011335137 0.0092663861          600 
 1923000   0.49573459   -8.1956785    261.25316  0.011321423 0.0092582831          536 
 1924000   0.48519727   -8.2069847     261.2974  0.011317455 0.0092501951          430 
 1925000   0.48867549   -8.2104486    261.33483  0.011313196  0.009242113          339 
 1926000   0.48447314   -8.2126293    261.26919  0.011304482 0.0092340252          607 
 1927000   0.47998656   -8.2234459    261.08865  0.011290808 0.0092259566          548 
 1928000   0.48661409   -8.2179676    261.42511  0.011299495 0.0092178983          432 
 1929000   0.48533775   -8.2022071    261.21346  0.011284494 0.0092098506          637 
 1930000   0.47694255   -8.2022928    261.49637  0.011290862 0.0092018213          551 
 1931000   0.48497132   -8.2209671    261.15519  0.011270291  0.009193792          453 
 1932000   0.48292856   -8.2218263    261.15256  0.011264344 0.0091857776          455 
 1933000   0.47785651   -8.2126302    261.18309  0.011259833 0.0091777703          572 
 1934000   0.47603044   -8.2237017    261.37625  0.011262334 0.0091697735          521 
 1935000   0.46538317   -8.2069737    260.96085  0.011238624 0.0091617868          542 
 1936000   0.48595365   -8.2150651    261.22214  0.011244066 0.0091538121          533 
 1937000   0.48900745   -8.2087927    261.09544   0.01123281 0.0091458383          576 
 1938000   0.47497368    -8.213365    261.54797  0.011246473   0.00913788          581 
 1939000   0.48564309   -8.2134483    261.48872  0.011238126 0.0091299341          454 
 1940000   0.47708297   -8.2283651     260.9244  0.011208093 0.0091219921          557 
 1941000   0.46557425   -8.2130321    261.40989  0.011223162  0.009114055          502 
 1942000   0.46752141   -8.2089347    261.14041  0.011205819 0.0091061321          587 
 1943000    0.4832652   -8.2245955    260.43034  0.011169598 0.0090982149          646 
 1944000   0.46335335     -8.21361    260.88846   0.01118349 0.0090902953          677 
 1945000   0.48154708   -8.2223079    261.17884  0.011190182 0.0090823818          529 
 1946000   0.48385853   -8.2183778    260.90064  0.011172518 0.0090744809          619 
 1947000    0.4717952   -8.2003649    261.05536  0.011173402 0.0090665976          548 
 1948000   0.47378905    -8.222528    260.92372  0.011162034  0.009058715          548 
 1949000   0.46978745   -8.2307606    260.63679  0.011144039 0.0090508404          534 
 1950000     0.464458   -8.2251198    261.21578  0.011163067 0.0090429707          512 
 1951000   0.47867749   -8.2222628    260.85298   0.01114185 0.0090351111          536 
 1952000   0.46491345   -8.2213654     260.4997   0.01112106 0.0090272632          596 
 1953000   0.46978645   -8.2134791    260.97181   0.01113551 0.0090194228          643 
 1954000   0.47211795   -8.2259017    260.61717  0.011114686 0.0090115835          546 
 1955000   0.47603661   -8.2285644    261.20622   0.01113411 0.0090037634          537 
 1956000   0.46982822   -8.2263285    260.58943   0.01110214 0.0089959544          618 
 1957000   0.47412571   -8.2372848    260.49328  0.011092373 0.0089881513          642 
 1958000   0.46942868    -8.235486    261.04722  0.011110283 0.0089803539          453 
 1959000   0.47582195   -8.2343141    261.15734  0.011109296 0.0089725679          544 
 1960000   0.45990805   -8.2289934    260.56237  0.011078332 0.0089647844          685 
 1961000    0.4795305   -8.2230413    261.03524  0.011092777 0.0089570179          509 
 1962000    0.4623027   -8.2335001    260.69438  0.011072646 0.0089492616          510 
 1963000    0.4654689   -8.2372641    260.40171  0.011054581 0.0089415126          624 
 1964000   0.47194353   -8.2286535    260.61083  0.011057826 0.0089337675          610 
 1965000   0.48142269   -8.2506948    260.86124  0.011062818 0.0089260343          586 
 1966000   0.46998799   -8.2577502    261.24153   0.01107331  0.008918305          480 
 1967000   0.47402917   -8.2441515    260.30162  0.011027861 0.0089105827          551 
 1968000   0.45941183     -8.24303    260.63578  0.011036407 0.0089028801          648 
 1969000   0.46776101   -8.2283271    261.27947  0.011058044 0.0088951831          615 
 1970000   0.47047514   -8.2371829    261.41769  0.011058278 0.0088874937          616 
 1971000   0.45488031   -8.2312305    260.91814  0.011031547 0.0088798158          494 
 1972000   0.45933819   -8.2538101    261.00779  0.011029741 0.0088721476          477 
 1973000   0.46475035   -8.2340927    260.77888  0.011014482 0.0088644841          600 
 1974000   0.46922662   -8.2365978    260.44467  0.010994794 0.0088568273          631 
 1975000   0.46206641   -8.2345152    260.99446  0.011012424 0.0088491867          628 
 1976000    0.4618949   -8.2431096    260.67788    0.0109935 0.0088415452          667 
 1977000   0.47110607    -8.241627    260.68664  0.010988309 0.0088339117          645 
 1978000   0.46331949   -8.2519481     260.8162  0.010988212 0.0088262922          672 
 1979000   0.45614876   -8.2416317    260.28056  0.010960104  0.008818676          569 
 1980000   0.45840377   -8.2458432    260.39372  0.010959332 0.0088110712          716 
 1981000   0.46255061   -8.2429278    260.43193  0.010955407 0.0088034689          580 
 1982000   0.46017615   -8.2522566     260.8032   0.01096549  0.008795882          598 
 1983000   0.46551347   -8.2462498    260.31201  0.010939318 0.0087883021          568 
 1984000   0.45078615   -8.2333787    260.47476   0.01094064 0.0087807296          732 
 1985000   0.46187474   -8.2563691    260.71563  0.010945241 0.0087731673          555 
 1986000   0.46182281   -8.2436819    260.77604  0.010942264 0.0087656206          595 
 1987000   0.45532467   -8.2451673    260.52866  0.010926382 0.0087580785          512 
 1988000    0.4599962   -8.2540186    260.04254  0.010900509 0.0087505439          625 
 1989000    0.4707538   -8.2436134    260.89308  0.010930664  0.008743026          473 
 1990000   0.46143403   -8.2528793    260.30774  0.010900659 0.0087355038          571 
 1991000   0.45451739   -8.2440559    260.35819  0.010897296 0.0087279987          572 
 1992000   0.46077102   -8.2526991    260.38371  0.010892893 0.0087204933          640 
 1993000   0.45464053   -8.2601326    260.16207   0.01087816 0.0087129917          607 
 1994000   0.44972781   -8.2636112    260.72933  0.010896411 0.0087055031          619 
 1995000   0.45180279   -8.2529872    260.49185   0.01088103 0.0086980225          694 
 1996000   0.45044036   -8.2549751    260.67952  0.010883413 0.0086905561          476 
 1997000   0.44758367   -8.2462026    260.89139  0.010886805 0.0086830964          601 
 1998000    0.4499133   -8.2506834    260.72059  0.010874232 0.0086756336          481 
 1999000   0.45264241   -8.2605378    260.84181  0.010873846 0.0086681935          615 
 2000000   0.45311766   -8.2424953    260.54001  0.010855834 0.0086607513          579 
 2001000   0.45477596   -8.2682877    260.15341  0.010834308 0.0086533262          653 
 2002000   0.45718813   -8.2665605    260.44385  0.010840986 0.0086459016          646 
 2003000    0.4544258    -8.264816    260.67977  0.010845389 0.0086384882          483 
 2004000    0.4616737   -8.2661681    260.60779  0.010836984 0.0086310809          452 
 2005000   0.46147277   -8.2611041    260.52095   0.01082797 0.0086236829          560 
 2006000   0.46031926   -8.2610608    260.87299  0.010837196 0.0086162987          556 
 2007000   0.44586271   -8.2619633    261.21111  0.010845836 0.0086089198          593 
 2008000   0.45332672   -8.2560143    260.46933   0.01080965 0.0086015475          524 
 2009000   0.45538869   -8.2628298     260.3075  0.010797557 0.0085941807          588 
 2010000   0.45194772   -8.2725019    260.40295  0.010796142 0.0085868198          587 
 2011000   0.45778145   -8.2682179    259.87718  0.010768986 0.0085794701          586 
 2012000   0.44130603   -8.2727621    260.07364  0.010771771 0.0085721198          631 
Loop time of 5248.96 on 48 procs for 2000000 steps with 4000 atoms

Performance: 65841.660 tau/day, 381.028 timesteps/s
99.4% CPU use with 48 MPI tasks x no OpenMP threads

MPI task timing breakdown:
Section |  min time  |  avg time  |  max time  |%varavg| %total
---------------------------------------------------------------
Pair    | 373.42     | 403.42     | 436.93     |  71.1 |  7.69
Neigh   | 36.89      | 38.3       | 39.681     |  11.1 |  0.73
Comm    | 328.28     | 356.82     | 385.21     |  73.5 |  6.80
Output  | 4.8321     | 4.8343     | 4.8842     |   0.3 |  0.09
Modify  | 4379.5     | 4396.6     | 4415.8     |  14.2 | 83.76
Other   |            | 48.95      |            |       |  0.93

Nlocal:        83.3333 ave          90 max          75 min
Histogram: 1 0 2 2 11 11 14 2 4 1
Nghost:        2426.98 ave        2443 max        2411 min
Histogram: 1 5 4 3 9 12 5 4 4 1
Neighs:        16868.7 ave       19509 max       14819 min
Histogram: 7 3 6 8 5 5 4 5 3 2
FullNghs:      33737.0 ave       36328 max       30190 min
Histogram: 1 0 2 2 10 14 8 6 4 1

Total # of neighbors = 1619374
Ave neighs/atom = 404.84350
Neighbor list builds = 106673
Dangerous builds = 0

#clear
#
#next RN
#
#jump SELF
Total wall time: 1:27:32
