
units lj                  # Use reduced LJ style units
atom_style atomic         # Uncharged point particles
atom_modify map hash      # Needed for indexing of clusters etc
                          # Used to be able to find where atoms are in relation to each other.

# Define a lattice with which to populate the simulation cell. With units
# set to 'lj' the second argument to the lattice command is the reduced
# density rho* and the spacings are multiples of that required to acheive
# that density. Also define a simulation cell called 'box' in lattice units
# and fill it with atoms. Here we're creating a box which is ten lattice
# constants in each direction.
lattice fcc 1.0 spacing 1 1 1                 # All equal sizes - gives the right reduced density.
Lattice spacing in x,y,z = 1.5874011 1.5874011 1.5874011

region box block 0 10 0 10 0 10 units lattice # Defines a region, "box", in lattice units
create_box 1 box                              # Creates a simulation box as specified above,
Created orthogonal box = (0.0000000 0.0000000 0.0000000) to (15.874011 15.874011 15.874011)
  3 by 4 by 4 MPI processor grid
                                              # with one type of atom
create_atoms 1 box                            # Creates particles on lattice points
Created 4000 atoms
  using lattice units in orthogonal box = (0.0000000 0.0000000 0.0000000) to (15.874011 15.874011 15.874011)
  create_atoms CPU = 0.002 seconds


# Set the mass of the first (and only) atom type.
mass 1 1.0

# Lennard-Jones interactions between particles, 3.5 sigma cut-off. Apply
# long range tail corrections to energy and pressure and set all coefficients
# to unity since we work in reduced units here. Note that this doesn't shift
# the potential such that it goes to zero at the cutoff. That would require
# pair_modify('shift', 'yes').
pair_style lj/cut  3.5      # non-GPU version
pair_modify tail  yes
pair_coeff 1  1  1.0  1.0   # Intearaction between 1 and 1 set with epsilon = 1 and sigma = 1

write_data data.*
System init for write_data ...
Neighbor list info ...
  update every 1 steps, delay 10 steps, check yes
  max neighbors/atom: 2000, page size: 100000
  master list distance cutoff = 3.8
  ghost atom cutoff = 3.8
  binsize = 1.9, bins = 9 9 9
  1 neighbor lists, perpetual/occasional/extra = 1 0 0
  (1) pair lj/cut, perpetual
      attributes: half, newton on
      pair build: half/bin/atomonly/newton
      stencil: half/bin/3d
      bin: standard

#############################
#   M E L T   S Y S T E M   #
#############################

velocity all create 2.4 2750902 mom yes dist gaussian # Assign velocities
                                                    # Temperature 2.4, random number seed, zero linear momentum
						                                                        # Gaussian distribution

timestep 0.002   # simulation timestep
thermo 1000       # output thermodynamic data every 1000 steps

# Define a fix  in this case with index 1 applied to all
# particles in the simulation. This fix is for simulations
# in the anisotropic NPT ensemble. Note that we use the MTK
# correction.
fix 1 all npt temp 2.4 2.4 0.1 iso 5.68 5.68 0.5 mtk yes tchain 5 pchain 5 # Use NPT ensemble
                                                                         # Set temperature and pressure and damping
                                                                         # Numbers of thermostats in chain and in barostat
run 1000         # run for 10000 steps
Per MPI rank memory allocation (min/avg/max) = 3.642 | 3.644 | 3.648 Mbytes
Step Temp E_pair E_mol TotEng Press Volume 
       0          2.4   -8.3859253            0   -4.7868253   -2.2405722         4000 
    1000    2.3434012   -4.4238704            0  -0.90964738    5.8682558    5151.8188 
Loop time of 0.239266 on 48 procs for 1000 steps with 4000 atoms

Performance: 722209.924 tau/day, 4179.456 timesteps/s
99.0% CPU use with 48 MPI tasks x no OpenMP threads

MPI task timing breakdown:
Section |  min time  |  avg time  |  max time  |%varavg| %total
---------------------------------------------------------------
Pair    | 0.090993   | 0.10074    | 0.11555    |   1.5 | 42.10
Neigh   | 0.017537   | 0.018808   | 0.02045    |   0.5 |  7.86
Comm    | 0.058971   | 0.075444   | 0.087124   |   2.1 | 31.53
Output  | 2.4452e-05 | 2.5412e-05 | 3.348e-05  |   0.0 |  0.01
Modify  | 0.039856   | 0.042696   | 0.044894   |   0.6 | 17.84
Other   |            | 0.001556   |            |       |  0.65

Nlocal:        83.3333 ave          95 max          78 min
Histogram: 8 10 8 7 5 5 2 1 1 1
Nghost:        1391.50 ave        1422 max        1362 min
Histogram: 4 2 3 6 11 8 4 3 2 5
Neighs:        7406.25 ave        8468 max        6555 min
Histogram: 2 6 8 5 10 4 6 2 1 4

Total # of neighbors = 355500
Ave neighs/atom = 88.875000
Neighbor list builds = 87
Dangerous builds = 20

# Equilibrate just above the melting temperature to avoid step fn in T

fix 1 all npt temp 1.25 1.25 0.1 iso 5.68 5.68 0.5 mtk yes tchain 5 pchain 5
run 1000
Per MPI rank memory allocation (min/avg/max) = 3.642 | 3.644 | 3.648 Mbytes
Step Temp E_pair E_mol TotEng Press Volume 
    1000    2.3434012   -4.4238704            0  -0.90964738    5.8682558    5151.8188 
    2000    1.2429145   -5.8542389            0   -3.9903333    5.7194736    4334.1532 
Loop time of 0.212995 on 48 procs for 1000 steps with 4000 atoms

Performance: 811287.511 tau/day, 4694.951 timesteps/s
99.6% CPU use with 48 MPI tasks x no OpenMP threads

MPI task timing breakdown:
Section |  min time  |  avg time  |  max time  |%varavg| %total
---------------------------------------------------------------
Pair    | 0.095189   | 0.1001     | 0.11       |   1.1 | 47.00
Neigh   | 0.015644   | 0.016263   | 0.016997   |   0.2 |  7.64
Comm    | 0.063037   | 0.072606   | 0.080143   |   1.3 | 34.09
Output  | 2.3221e-05 | 2.4172e-05 | 3.1496e-05 |   0.0 |  0.01
Modify  | 0.019289   | 0.022064   | 0.025084   |   1.0 | 10.36
Other   |            | 0.001936   |            |       |  0.91

Nlocal:        83.3333 ave          91 max          76 min
Histogram: 2 0 6 7 12 2 13 2 2 2
Nghost:        1559.08 ave        1579 max        1541 min
Histogram: 2 2 8 11 4 8 3 5 3 2
Neighs:        8794.40 ave        9967 max        8047 min
Histogram: 4 3 11 7 11 7 2 2 0 1

Total # of neighbors = 422131
Ave neighs/atom = 105.53275
Neighbor list builds = 75
Dangerous builds = 8


# Small amount of linear quench

fix 1 all npt temp 1.25 ${temp} 0.1 iso 5.68 5.68 0.5 mtk yes tchain 5 pchain 5
fix 1 all npt temp 1.25 0.24 0.1 iso 5.68 5.68 0.5 mtk yes tchain 5 pchain 5
run 2000
Per MPI rank memory allocation (min/avg/max) = 3.643 | 3.645 | 3.648 Mbytes
Step Temp E_pair E_mol TotEng Press Volume 
    2000    1.2429145   -5.8542389            0   -3.9903333    5.7194736    4334.1532 
    3000   0.84390098   -6.4732929            0   -5.2077579    5.7183233     4067.473 
    4000   0.35556502   -7.1991549            0   -6.6659407    5.6336274    3805.2845 
Loop time of 0.453163 on 48 procs for 2000 steps with 4000 atoms

Performance: 762639.911 tau/day, 4413.425 timesteps/s
99.7% CPU use with 48 MPI tasks x no OpenMP threads

MPI task timing breakdown:
Section |  min time  |  avg time  |  max time  |%varavg| %total
---------------------------------------------------------------
Pair    | 0.21483    | 0.2246     | 0.25005    |   1.4 | 49.56
Neigh   | 0.02381    | 0.024561   | 0.02767    |   0.4 |  5.42
Comm    | 0.1235     | 0.15261    | 0.16775    |   2.1 | 33.68
Output  | 4.8151e-05 | 4.9314e-05 | 6.2369e-05 |   0.0 |  0.01
Modify  | 0.039818   | 0.045145   | 0.052391   |   1.5 |  9.96
Other   |            | 0.006199   |            |       |  1.37

Nlocal:        83.3333 ave          93 max          77 min
Histogram: 2 9 4 11 7 6 5 3 0 1
Nghost:        1695.50 ave        1713 max        1670 min
Histogram: 1 0 1 6 7 7 13 6 6 1
Neighs:        10106.8 ave       11403 max        9295 min
Histogram: 4 6 8 8 7 9 2 3 0 1

Total # of neighbors = 485128
Ave neighs/atom = 121.28200
Neighbor list builds = 107
Dangerous builds = 0

#############################
# F R E E Z E  S Y S T E M  #
#############################

# Define solid atoms. This closely follows ten Wolde  Ruiz-Montero and Frenkel  Faraday Discuss  1996  104  93-110
# Compute components of the per-atom q6 vector
compute q6 all orientorder/atom degrees 1 6 components 6 nnn NULL cutoff 1.3 # compute the Q6 parameter.
                                                                             # Use all neighbours within 1.3 unit cell.

# get number of connections
compute coord_number all coord/atom orientorder q6 0.5

# An atom is solid if it has 8 or more connections (of a possible 14)
variable is_solid atom c_coord_number>=8
group solid dynamic all var is_solid    # Must be dynamic to update
dynamic group solid defined

# do clustering
compute cluster solid cluster/atom 1.3 # Create a cluster where all atoms within are solid and max 1.3 units from another member

# define chunks one chunk per cluster
compute clus_chunks solid chunk/atom c_cluster nchunk every compress yes  # Says which atoms are in which chunk

# count the size of each chunk
compute size_chunks solid property/chunk clus_chunks count


# Find the maximum entry in the vector of chunk sizes
variable max_n equal max(c_size_chunks)


# Thermo style which includes this variable
thermo_style custom step temp pe vol v_max_n

thermo ${N}  # Print the thermo information every 100 steps
thermo 1000  

# Reset the npt fix at a lower temperature (below freezing)
fix 1  all npt temp  ${temp} ${temp}  0.1  iso  5.68  5.68  0.5  mtk yes tchain  5  pchain  5
fix 1  all npt temp  0.24 ${temp}  0.1  iso  5.68  5.68  0.5  mtk yes tchain  5  pchain  5
fix 1  all npt temp  0.24 0.24  0.1  iso  5.68  5.68  0.5  mtk yes tchain  5  pchain  5

dump dmp2 all dcd ${N} traj_${rand}.dcd
dump dmp2 all dcd 1000 traj_${rand}.dcd
dump dmp2 all dcd 1000 traj_462431.dcd


# fix rnuntil all halt ${N} v_max_n >= 3980 error soft message no   # Stop when solidified


run 1000000 # 5000000  # Run for this many steps
Neighbor list info ...
  update every 1 steps, delay 10 steps, check yes
  max neighbors/atom: 2000, page size: 100000
  master list distance cutoff = 3.8
  ghost atom cutoff = 3.8
  binsize = 1.9, bins = 9 9 9
  4 neighbor lists, perpetual/occasional/extra = 1 3 0
  (1) pair lj/cut, perpetual
      attributes: half, newton on
      pair build: half/bin/atomonly/newton
      stencil: half/bin/3d
      bin: standard
  (2) compute orientorder/atom, occasional
      attributes: full, newton on
      pair build: full/bin/atomonly
      stencil: full/bin/3d
      bin: standard
  (3) compute coord/atom, occasional
      attributes: full, newton on
      pair build: full/bin/atomonly
      stencil: full/bin/3d
      bin: standard
  (4) compute cluster/atom, occasional
      attributes: full, newton on
      pair build: full/bin/atomonly
      stencil: full/bin/3d
      bin: standard
Per MPI rank memory allocation (min/avg/max) = 9.388 | 9.392 | 9.396 Mbytes
Step Temp PotEng Volume v_max_n 
    4000   0.35556502   -7.1991549    3805.2845           13 
    5000   0.24156462   -7.3980565    3734.1862           92 
    6000   0.23782551   -7.4367577    3725.2164           56 
    7000   0.24048501   -7.4523517    3730.2943           97 
    8000   0.24450354   -7.4633828     3715.672          153 
    9000   0.24592529   -7.4605964    3707.3928          286 
   10000   0.24148373   -7.4693107    3718.5129          221 
   11000   0.24051782   -7.4723528    3710.5743          363 
   12000   0.24467828   -7.4657665    3708.0615          207 
   13000   0.23632271   -7.4778893    3708.4958          372 
   14000   0.24409606   -7.4828412    3708.5841          442 
   15000   0.24139594   -7.4860289    3712.6123          403 
   16000   0.23838979   -7.5008656    3711.4403          316 
   17000   0.24350032   -7.4935232    3712.7103          513 
   18000   0.24245202   -7.4884866    3713.6407          396 
   19000   0.23841004   -7.4985598    3714.7629          353 
   20000   0.24055236   -7.4960593    3711.5775          541 
   21000   0.23896373    -7.489487    3708.3652          347 
   22000   0.24235655   -7.5016877    3709.4333          501 
   23000   0.24384182   -7.5027045    3708.7653          616 
   24000   0.24116426   -7.4931847    3708.9728          620 
   25000   0.23754133   -7.4971826    3712.7375          526 
   26000   0.23622614   -7.4945395    3711.2002          327 
   27000   0.24421591   -7.4952726    3709.2674          549 
   28000   0.23910894    -7.501504    3707.3769          519 
   29000   0.23909472   -7.5062742    3713.9796          463 
   30000   0.24845701   -7.5031097    3710.2433          551 
   31000   0.23513874   -7.4984084    3704.8629          392 
   32000   0.24135194   -7.4970503    3707.7963          481 
   33000   0.23778885   -7.4988482    3709.8452          607 
   34000   0.24144727   -7.5022761      3709.22          564 
   35000   0.24151356   -7.4930864    3710.4324          562 
   36000   0.24165749   -7.4942907    3708.5793          661 
   37000   0.24424791   -7.4907504    3706.9609          596 
   38000   0.23969778   -7.5033312    3706.3518          600 
   39000   0.24294645   -7.5053536    3706.2428          590 
   40000   0.23768296    -7.510741    3709.2437          677 
   41000   0.23639254   -7.4959298    3707.2613          753 
   42000   0.23892406    -7.507459    3705.0126          739 
   43000   0.23684692   -7.5053237    3709.0376          761 
   44000   0.23493265   -7.5063242    3709.0896          746 
   45000   0.23534317   -7.5070862    3710.3975          785 
   46000    0.2401727    -7.516285    3709.8711          839 
   47000   0.23712087   -7.4953337    3703.2912          773 
   48000   0.23896968   -7.5025535    3705.4112          766 
   49000   0.23497037   -7.5079573    3704.4446          730 
   50000   0.24023294     -7.49765    3700.5267          783 
   51000   0.23937371   -7.5005409    3706.0397          750 
   52000   0.23706933    -7.503056     3705.991          789 
   53000   0.24214577   -7.5144041    3702.9047          814 
   54000   0.23916298   -7.5067848    3701.7432          777 
   55000   0.24149895    -7.509087    3703.1863          762 
   56000    0.2360722   -7.5069998    3704.9013          812 
   57000   0.23982019   -7.5077759    3704.2717          788 
   58000   0.23571969   -7.5059244    3699.6089          831 
   59000   0.24441136   -7.5130327    3702.1338          828 
   60000   0.24132308   -7.5134652    3701.3453          856 
   61000   0.23568415   -7.5167974     3703.722          803 
   62000   0.23251397   -7.5095681     3701.927          807 
   63000   0.24012417    -7.524759    3710.8732          882 
   64000   0.24036422     -7.51282    3701.4809          797 
   65000   0.24147563   -7.5134156    3707.4898          874 
   66000   0.23573564   -7.5083588     3709.003          834 
   67000   0.23986769   -7.5147355    3702.3121          889 
   68000   0.23697482   -7.5217234    3700.9406          945 
   69000    0.2392508   -7.5187225    3701.2223          944 
   70000   0.24208036    -7.515323    3703.2989          925 
   71000   0.24159451    -7.513722    3703.1135          887 
   72000   0.23609565   -7.5225764    3705.2555          873 
   73000    0.2386393   -7.5100936    3704.3427          925 
   74000   0.24103265   -7.5144644    3694.6576          899 
   75000   0.23954748     -7.52089    3703.5615          975 
   76000   0.23102381   -7.5196181    3705.4919          948 
   77000   0.23993493   -7.5246278    3704.1702          919 
   78000   0.23892759   -7.5173469    3705.1783          870 
   79000   0.23610692   -7.5249599    3703.9875          899 
   80000   0.23434069   -7.5163415    3702.7747          930 
   81000   0.23870979   -7.5194381    3696.8828          863 
   82000   0.24357924   -7.5100852    3697.7362          899 
   83000   0.23795648   -7.5067607    3695.9551          896 
   84000   0.23605743    -7.517765    3700.8739          932 
   85000   0.24396182   -7.5324859    3706.4236          892 
   86000    0.2406649   -7.5167944    3697.1956          918 
   87000   0.24131361    -7.508813    3698.4887          900 
   88000   0.24003643   -7.5213842    3705.0397          877 
   89000   0.24242096   -7.5167873    3705.8128          883 
   90000   0.24596133   -7.5140307    3702.4434          931 
   91000    0.2364623   -7.5201003     3696.474          910 
   92000   0.23992094    -7.524901    3701.0856          930 
   93000   0.23916861   -7.5281112    3702.7223          903 
   94000   0.24061155   -7.5271325    3704.6997          902 
   95000   0.24068633   -7.5164942    3701.7851          963 
   96000   0.23758229   -7.5211341     3701.423          914 
   97000    0.2383344   -7.5194979    3700.3449         1008 
   98000   0.24253548   -7.5159959    3698.3768          949 
   99000   0.23908127   -7.5258298    3701.6171          949 
  100000   0.23942148   -7.5280799     3708.639          937 
  101000   0.23604776   -7.5164157    3701.6541          966 
  102000   0.23744751   -7.5236226    3703.2467          953 
  103000   0.24531341   -7.5140045    3700.9147          992 
  104000   0.23499902   -7.5285084     3704.855          952 
  105000   0.24266762   -7.5347063    3710.1859          999 
  106000   0.23450091   -7.5169457    3698.8735         1004 
  107000   0.23758114   -7.5231911    3702.1631         1010 
  108000   0.24230757   -7.5198467    3702.0502         1011 
  109000   0.23777346   -7.5245649    3701.8782          937 
  110000   0.24247643   -7.5268876    3701.5817         1049 
  111000   0.23875482   -7.5284335    3702.3017          977 
  112000   0.24361276   -7.5222637    3700.5647          995 
  113000   0.23713074   -7.5149017    3701.8117          999 
  114000   0.24320956   -7.5238612    3704.7376         1061 
  115000   0.23747225   -7.5170767    3697.0824         1030 
  116000   0.23713382   -7.5198995    3704.1678         1035 
  117000   0.23998987    -7.519811    3701.3016         1021 
  118000    0.2395443   -7.5161245    3698.3115         1049 
  119000    0.2471396   -7.5195114    3705.6712         1006 
  120000   0.24264956   -7.5271047    3702.1528         1034 
  121000   0.24173122   -7.5146465    3701.6597         1075 
  122000   0.24047119   -7.5197901    3699.1533         1006 
  123000   0.23953647   -7.5103825     3699.579         1049 
  124000   0.24164887   -7.5283242    3702.7431         1082 
  125000   0.24062212    -7.514913    3698.9921         1042 
  126000   0.23878057   -7.5185149    3700.3571          999 
  127000   0.23970623   -7.5218575    3702.7153         1057 
  128000   0.23664368   -7.5271644    3701.1169         1055 
  129000    0.2386102   -7.5318847    3702.3735         1055 
  130000    0.2441855   -7.5235498    3700.5093         1069 
  131000    0.2447995   -7.5299018    3700.9876         1071 
  132000   0.24499356    -7.532502    3699.0956         1050 
  133000   0.23551036    -7.524086    3701.7174         1064 
  134000   0.23635629   -7.5246805    3704.6738         1032 
  135000   0.24036901   -7.5258599    3701.4108         1025 
  136000   0.23900014   -7.5348732    3702.9084         1001 
  137000   0.23050402   -7.5206406    3697.8575         1033 
  138000   0.24019303    -7.519997    3703.9424         1031 
  139000   0.23524817   -7.5239965    3708.9455         1051 
  140000   0.24269137   -7.5241363    3703.0689         1051 
  141000   0.24130954   -7.5132676    3693.1316         1023 
  142000   0.23975615   -7.5170374    3698.0291         1044 
  143000   0.23986535   -7.5255302    3701.6246         1042 
  144000   0.24439891   -7.5217492     3702.121         1014 
  145000   0.24211267   -7.5251504    3697.4472         1070 
  146000   0.23675733    -7.524532    3704.2138         1028 
  147000   0.23816529   -7.5251066    3703.1071         1042 
  148000   0.23857319   -7.5255293    3701.8519         1110 
  149000   0.24145965   -7.5182413    3697.8821         1051 
  150000   0.24420501   -7.5257234    3701.8488         1130 
  151000   0.24011466   -7.5278626    3700.2303         1120 
  152000   0.24382231   -7.5269049    3696.3762         1060 
  153000   0.23697283   -7.5205122    3700.0005         1130 
  154000    0.2425209   -7.5273386    3700.8591         1090 
  155000   0.23913085   -7.5144675    3695.3216         1102 
  156000   0.23861225   -7.5233671    3695.5199         1025 
  157000   0.23696633   -7.5300476    3709.0776         1024 
  158000   0.23675025    -7.527183     3699.509         1039 
  159000   0.24542396   -7.5397039    3699.2005         1082 
  160000   0.24035369   -7.5292126    3699.0095          984 
  161000   0.24179845   -7.5380311    3699.9612         1062 
  162000   0.23652644    -7.528324     3699.597         1053 
  163000   0.23539688   -7.5251289    3698.7757         1148 
  164000   0.24003862   -7.5190633    3702.8166         1124 
  165000    0.2363899   -7.5187512    3695.7367         1112 
  166000   0.23961547   -7.5344314    3694.0488         1116 
  167000   0.23717633   -7.5233398    3698.2212         1140 
  168000   0.23585888   -7.5317546    3700.2014         1103 
  169000   0.23955952   -7.5316346    3702.1622         1181 
  170000   0.23777771   -7.5290485    3699.5996         1119 
  171000   0.23845682   -7.5174269    3695.4826         1126 
  172000   0.24414185   -7.5418494    3708.0099         1147 
  173000   0.23908132   -7.5283901     3705.291         1110 
  174000   0.23977141    -7.519641    3700.0043         1160 
  175000   0.24000814   -7.5274502    3695.6733         1195 
  176000   0.23426167   -7.5338315    3702.5372         1223 
  177000   0.24179685   -7.5273516    3695.6196         1156 
  178000   0.23682454   -7.5320794    3694.7413         1159 
  179000   0.23667432    -7.534036    3698.4724         1166 
  180000   0.24714389   -7.5396319    3701.0224         1165 
  181000   0.24289846   -7.5373335    3703.4879         1200 
  182000   0.23763906   -7.5255582    3691.9878         1197 
  183000   0.24163736   -7.5261816    3701.2337         1202 
  184000   0.23775094    -7.525605     3698.628         1179 
  185000   0.24135182   -7.5322505    3698.2379         1233 
  186000   0.23753317   -7.5331529     3698.156         1231 
  187000   0.23934442   -7.5190222    3694.6497         1217 
  188000   0.24164082   -7.5355714    3699.3181         1150 
  189000   0.23953199   -7.5331633    3692.9087         1181 
  190000   0.24425672    -7.535119    3698.5207         1192 
  191000   0.23910022   -7.5329209    3699.6533         1260 
  192000   0.23271091   -7.5322198    3698.4545         1201 
  193000   0.24668482   -7.5294237    3700.0562         1178 
  194000   0.24309359   -7.5336778    3691.1768         1155 
  195000   0.23552808   -7.5352081    3701.3978         1221 
  196000   0.24180144   -7.5400889    3702.6463         1246 
  197000   0.24759158   -7.5335608    3697.9571         1233 
  198000   0.23740857   -7.5282579    3695.1069         1203 
  199000   0.24068073   -7.5312789    3697.8542         1268 
  200000   0.23780911   -7.5273382    3698.9582         1188 
  201000   0.23904649   -7.5353849    3699.8979         1237 
  202000   0.23548277   -7.5344633    3697.1057         1248 
  203000   0.24101874   -7.5283392     3695.893         1254 
  204000   0.24831125   -7.5342351     3699.258         1189 
  205000    0.2395925   -7.5301005     3700.097         1288 
  206000   0.24216948   -7.5436245    3702.0375         1172 
  207000   0.24075858   -7.5398602    3704.2333         1279 
  208000   0.24094448   -7.5337943     3698.842         1265 
  209000   0.24084537   -7.5401503    3699.3587         1243 
  210000    0.2374126   -7.5387144    3697.3102         1256 
  211000   0.23750801    -7.531883    3699.0131         1296 
  212000   0.23590466   -7.5274277    3699.7187         1267 
  213000      0.23276   -7.5364463    3698.7159         1290 
  214000    0.2427637   -7.5322303    3700.5095         1325 
  215000   0.23815269   -7.5271742    3698.6062         1343 
  216000   0.24261993   -7.5324011    3700.1998         1331 
  217000   0.23579394   -7.5269321    3697.3188         1399 
  218000   0.24178019   -7.5380668    3700.5267         1390 
  219000   0.24062414   -7.5343669    3696.0789         1416 
  220000   0.23691062   -7.5287401    3695.5064         1408 
  221000   0.23910331    -7.533677    3695.7935         1368 
  222000   0.24179079      -7.5347    3697.4687         1361 
  223000     0.238048   -7.5434155    3702.7561         1376 
  224000    0.2391154   -7.5338407    3699.1368         1324 
  225000   0.23669657   -7.5296746    3696.9431         1355 
  226000   0.23968637   -7.5405594    3701.1595         1325 
  227000   0.23706751   -7.5355016     3697.265         1368 
  228000   0.23767697   -7.5345016    3696.2836         1307 
  229000   0.24200136   -7.5219469    3693.8647         1382 
  230000   0.23374459   -7.5391673    3699.5525         1349 
  231000   0.23488543   -7.5269989    3692.5168         1340 
  232000   0.23977561   -7.5399999    3698.7931         1384 
  233000   0.23826207    -7.532653    3697.2581         1344 
  234000   0.24604697   -7.5377166    3700.8306         1361 
  235000   0.23567739   -7.5268412    3694.4673         1369 
  236000   0.23705687   -7.5438525    3700.2232         1342 
  237000   0.24168548    -7.534549    3692.7401         1343 
  238000   0.24146709   -7.5354717    3696.7693         1341 
  239000   0.23861043    -7.540116    3693.6238         1353 
  240000   0.23846731   -7.5463108     3700.234         1355 
  241000   0.23796812   -7.5391455    3696.1266         1383 
  242000   0.23594786   -7.5354172    3695.8154         1381 
  243000   0.24530559   -7.5376761    3702.9742         1380 
  244000   0.23862014   -7.5300028    3696.8749         1417 
  245000    0.2412669   -7.5422012    3702.3476         1398 
  246000   0.24384721   -7.5480743    3701.0574         1452 
  247000   0.23870684   -7.5307709    3696.0648         1431 
  248000   0.24289622   -7.5434317    3697.1044         1460 
  249000   0.24278983   -7.5367233    3699.5041         1373 
  250000   0.24319108   -7.5396683    3692.0274         1410 
  251000      0.23823   -7.5460071    3697.6515         1448 
  252000   0.23719551   -7.5380495    3694.4768         1475 
  253000   0.23835893   -7.5370613    3694.6354         1431 
  254000   0.24187706    -7.539834    3694.7432         1423 
  255000   0.24458463   -7.5331521    3692.7055         1489 
  256000    0.2368689   -7.5321365    3691.7787         1416 
  257000   0.24301644   -7.5426934    3699.5139         1422 
  258000   0.24614171   -7.5401154    3694.0425         1444 
  259000   0.24131117   -7.5523314    3701.0144         1374 
  260000   0.24712204   -7.5377381    3690.8344         1416 
  261000   0.23851692   -7.5390242     3691.817         1505 
  262000   0.23762038   -7.5319236    3687.7797         1399 
  263000   0.23903664   -7.5490712     3698.277         1468 
  264000   0.23819726   -7.5483944    3694.1856         1456 
  265000   0.23899316   -7.5401261    3693.4546         1482 
  266000   0.24521337   -7.5427351    3696.1678         1488 
  267000    0.2451217   -7.5408881    3701.8737         1432 
  268000   0.24127739   -7.5406796      3694.71         1440 
  269000   0.23595154   -7.5414541    3695.3238         1420 
  270000   0.23937406   -7.5417272     3690.785         1386 
  271000   0.24171689   -7.5489386    3698.0703         1439 
  272000   0.23920837   -7.5370002     3693.551         1417 
  273000   0.24047027   -7.5399781    3694.3998         1388 
  274000   0.23733303    -7.540944    3690.3929         1499 
  275000   0.24029524    -7.545845    3691.0483         1447 
  276000   0.24484816    -7.563204    3699.4563         1469 
  277000   0.23766288   -7.5491616    3695.2865         1459 
  278000    0.2409229   -7.5411846    3699.5117         1484 
  279000   0.24004405   -7.5429502    3696.4186         1476 
  280000   0.23959859   -7.5522192     3697.148         1474 
  281000   0.24038781   -7.5429413    3699.2621         1463 
  282000   0.23334874   -7.5469851     3695.104         1470 
  283000   0.24051266   -7.5426445     3691.093         1471 
  284000   0.23662514   -7.5445528    3699.2543         1443 
  285000   0.24079512   -7.5499283    3697.2642         1453 
  286000   0.23896584   -7.5401823    3694.2152         1523 
  287000   0.24627248   -7.5427029    3691.9702         1475 
  288000   0.23856374   -7.5407069    3691.6188         1403 
  289000   0.24102368   -7.5450251    3696.1399         1458 
  290000   0.23814797   -7.5503304     3692.832         1465 
  291000   0.23324585   -7.5434038    3695.1838         1446 
  292000    0.2431094   -7.5465275    3696.4674         1440 
  293000   0.24182565   -7.5460182    3697.7059         1469 
  294000    0.2413563   -7.5462714    3694.3836         1468 
  295000   0.24265871    -7.554179    3699.7107         1466 
  296000   0.24419284   -7.5536213    3694.7282         1460 
  297000   0.24130421   -7.5545674    3695.2254         1415 
  298000   0.23871733   -7.5524131    3695.5634         1461 
  299000   0.23601015     -7.55479    3698.6176         1501 
  300000   0.23410326   -7.5451779    3693.3776         1476 
  301000   0.24127688   -7.5474242    3695.0936         1459 
  302000   0.23943567   -7.5411733     3689.343         1451 
  303000   0.23958064    -7.551896    3696.3383         1489 
  304000    0.2348029   -7.5417462    3690.1438         1484 
  305000   0.24287214   -7.5516851    3692.6275         1489 
  306000   0.23692154    -7.550841    3695.7248         1502 
  307000   0.24059562   -7.5515409    3692.7439         1473 
  308000   0.24078827   -7.5442774    3693.1631         1467 
  309000   0.23482715     -7.55108    3694.3118         1472 
  310000   0.24314426   -7.5500611    3690.4576         1509 
  311000   0.24107414   -7.5450936    3697.2713         1451 
  312000   0.24192507   -7.5427475    3689.5061         1511 
  313000   0.24051295   -7.5600513    3696.3666         1476 
  314000   0.24212344   -7.5466405    3690.7844         1508 
  315000   0.23954358   -7.5460027    3699.3408         1479 
  316000   0.24175315   -7.5475262    3694.8588         1483 
  317000   0.24425851   -7.5517139    3697.0697         1455 
  318000   0.23624668   -7.5589594    3699.0299         1483 
  319000   0.23724976   -7.5432419    3693.3674         1459 
  320000   0.24192318   -7.5470868    3696.2557         1430 
  321000   0.23943537    -7.555166    3695.8636         1474 
  322000   0.23962624   -7.5497256    3695.3054         1477 
  323000   0.24146547    -7.547233    3698.7891         1485 
  324000    0.2394025    -7.552037    3698.3384         1497 
  325000   0.24359051   -7.5445606    3695.7664         1413 
  326000   0.24191861     -7.54983    3696.2418         1492 
  327000   0.24739873   -7.5486746    3693.3792         1426 
  328000   0.23885241   -7.5552943    3696.9311         1476 
  329000   0.23846295   -7.5510958    3690.9138         1463 
  330000   0.23842403    -7.541676     3688.287         1430 
  331000   0.23938069   -7.5515766    3692.1376         1440 
  332000   0.24143272   -7.5471464    3695.9598         1429 
  333000   0.24603918    -7.542139    3696.8166         1471 
  334000   0.24337575   -7.5476014    3694.3578         1480 
  335000   0.24343405   -7.5500337    3699.8193         1454 
  336000   0.23811951   -7.5355687    3698.0583         1480 
  337000   0.23897307   -7.5494401    3697.2507         1446 
  338000    0.2424721   -7.5469425     3693.994         1403 
  339000   0.23271532   -7.5431062    3695.4604         1464 
  340000   0.24159887   -7.5390751     3692.675         1443 
  341000   0.23983735   -7.5488812    3696.4796         1449 
  342000   0.24415349   -7.5336226     3692.301         1492 
  343000   0.23832084   -7.5428246    3691.5007         1476 
  344000   0.24121387   -7.5516344    3691.5509         1481 
  345000   0.23845199   -7.5502892    3701.1393         1478 
  346000   0.24058101   -7.5527154     3694.821         1431 
  347000   0.24150465   -7.5411972    3690.5642         1408 
  348000   0.24257594   -7.5486999    3693.9141         1467 
  349000   0.24164874   -7.5461996    3692.1651         1426 
  350000   0.23919978   -7.5556353    3700.1117         1440 
  351000   0.23934827   -7.5445904    3690.5912         1409 
  352000   0.23760144   -7.5521664    3696.3782         1440 
  353000   0.23951664   -7.5494342    3697.8487         1426 
  354000   0.23843465   -7.5474179     3696.385         1451 
  355000   0.24138904     -7.55008    3696.3612         1443 
  356000    0.2398155   -7.5500846    3688.5463         1478 
  357000   0.24047287   -7.5409499    3693.5641         1470 
  358000   0.23849841   -7.5468123    3695.1766         1400 
  359000   0.24310625   -7.5530557    3699.7762         1463 
  360000   0.24165022   -7.5527364    3694.4962         1492 
  361000   0.23536114   -7.5479062    3693.9219         1465 
  362000   0.24302134   -7.5525152    3693.9917         1478 
  363000   0.24163462   -7.5523403    3696.8294         1487 
  364000   0.24021697   -7.5486321    3691.7287         1490 
  365000   0.24218951   -7.5437978    3695.7732         1445 
  366000    0.2368351   -7.5401878    3693.2155         1495 
  367000   0.24057118   -7.5507746    3687.5233         1477 
  368000   0.23241255   -7.5533955    3697.0591         1453 
  369000   0.24253535   -7.5526608    3694.6197         1408 
  370000   0.24314515   -7.5526736    3698.0789         1451 
  371000   0.24421883   -7.5538834    3687.4943         1469 
  372000   0.24523615   -7.5477111    3695.7327         1472 
  373000   0.23778355   -7.5549193    3696.2724         1463 
  374000    0.2389683   -7.5485538    3691.8948         1512 
  375000   0.24084654   -7.5450116    3690.6432         1417 
  376000   0.24369917   -7.5400365    3690.7793         1449 
  377000   0.23831598   -7.5518593    3695.8136         1469 
  378000   0.23533316   -7.5556051    3697.2624         1467 
  379000   0.24421989   -7.5445358    3692.2519         1475 
  380000    0.2416643    -7.543516    3692.1726         1442 
  381000   0.23508193   -7.5567898    3700.4914         1467 
  382000   0.23661602   -7.5509796    3696.0299         1507 
  383000   0.24101631   -7.5485715    3692.7182         1515 
  384000   0.23478077   -7.5503735    3692.8342         1470 
  385000   0.23705819   -7.5513338    3695.5127         1457 
  386000   0.24380387   -7.5450216    3692.0443         1535 
  387000    0.2411822   -7.5472137    3694.9506         1461 
  388000   0.24713066   -7.5534257    3695.8812         1466 
  389000   0.24042977   -7.5535412    3693.6381         1439 
  390000   0.23970127   -7.5508364    3693.8056         1428 
  391000   0.24352147   -7.5502449    3693.4202         1516 
  392000   0.24131569   -7.5588372    3698.4498         1421 
  393000   0.23363348   -7.5449374    3692.2001         1488 
  394000    0.2425177   -7.5498729    3697.5669         1493 
  395000   0.23671928   -7.5434629    3693.5493         1446 
  396000   0.24131854   -7.5502398    3693.7197         1461 
  397000   0.23876338   -7.5438862    3700.8076         1438 
  398000   0.23210619   -7.5465807     3693.127         1407 
  399000   0.24158295   -7.5472536    3691.6324         1471 
  400000   0.24076796   -7.5420777    3695.0758         1466 
  401000    0.2457665   -7.5364488     3690.169         1490 
  402000   0.24520915   -7.5517225     3694.009         1476 
  403000    0.2380622    -7.548442    3688.6971         1388 
  404000   0.23656615   -7.5502101    3697.2254         1437 
  405000   0.23764971   -7.5452324    3694.8792         1470 
  406000   0.24177257   -7.5431347    3690.3772         1473 
  407000   0.24060301    -7.552216    3694.9195         1457 
  408000   0.23535477   -7.5482952     3699.567         1531 
  409000   0.24111199   -7.5491362    3693.9273         1411 
  410000   0.24409284   -7.5475146    3700.4502         1446 
  411000   0.23525484   -7.5504325     3695.866         1508 
  412000   0.24037608   -7.5494446    3697.1842         1445 
  413000   0.23872479     -7.54129    3690.5597         1492 
  414000   0.23865466   -7.5433111    3696.8655         1449 
  415000   0.24163738   -7.5603372    3696.0172         1475 
  416000   0.23839172    -7.544189    3692.3678         1473 
  417000   0.24210902   -7.5472381    3691.3454         1458 
  418000   0.24107837   -7.5445643    3695.1447         1455 
  419000   0.23421058    -7.547044     3698.467         1444 
  420000   0.24408524     -7.55611     3700.028         1464 
  421000   0.23433913   -7.5510331     3697.177         1540 
  422000   0.24479186   -7.5487928    3697.2266         1459 
  423000   0.23888715    -7.540773    3690.2098         1457 
  424000   0.24161363   -7.5465631    3692.4841         1469 
  425000   0.24250938   -7.5532277    3695.7399         1456 
  426000   0.23752575   -7.5508999    3695.5273         1447 
  427000   0.24261262   -7.5540577    3699.8063         1486 
  428000   0.24381923   -7.5480941    3694.0403         1410 
  429000   0.23770396    -7.548531    3697.8407         1511 
  430000   0.24173455   -7.5369389    3689.1061         1452 
  431000   0.23831819   -7.5544502    3694.7596         1511 
  432000   0.23912657   -7.5489566     3693.652         1445 
  433000   0.24409772   -7.5543925    3694.6525         1511 
  434000   0.23933457   -7.5481098    3698.5886         1485 
  435000   0.23903847   -7.5465779    3694.9129         1456 
  436000    0.2397711   -7.5534419    3693.6924         1455 
  437000    0.2388386   -7.5512219    3697.8224         1456 
  438000   0.23815643    -7.546407    3694.0555         1446 
  439000   0.23666174   -7.5448571    3686.5493         1473 
  440000    0.2345299   -7.5497997    3695.3951         1439 
  441000   0.23824247    -7.547865    3696.7705         1461 
  442000   0.23752634    -7.551306    3693.4489         1449 
  443000   0.24290234   -7.5444206     3695.413         1487 
  444000    0.2397892   -7.5574293    3696.2422         1468 
  445000   0.23868018    -7.540282    3690.0748         1506 
  446000   0.23983228    -7.538566    3690.5453         1431 
  447000   0.23777578   -7.5451984    3686.2312         1475 
  448000    0.2416855   -7.5505012    3692.1565         1454 
  449000   0.23493118   -7.5390425    3694.4247         1465 
  450000   0.23936654   -7.5456147    3691.0233         1467 
  451000   0.24336482   -7.5505015    3701.5919         1429 
  452000    0.2382927    -7.544206     3693.337         1465 
  453000   0.24064778    -7.539777    3687.6643         1464 
  454000   0.23574537   -7.5520847    3694.0619         1461 
  455000   0.24312084   -7.5491228    3698.3761         1423 
  456000   0.23861194   -7.5402969    3694.4739         1444 
  457000   0.23952737   -7.5469224    3697.8655         1498 
  458000   0.24143465   -7.5575058    3699.1822         1496 
  459000   0.24100136   -7.5454902    3694.1788         1452 
  460000    0.2360113   -7.5464639    3688.6332         1457 
  461000   0.23898896   -7.5487979    3697.0744         1525 
  462000    0.2423377   -7.5527837    3698.4572         1456 
  463000   0.23820242   -7.5492546     3694.763         1466 
  464000   0.23893418   -7.5511186    3693.9265         1403 
  465000   0.23889176   -7.5417836    3691.5006         1429 
  466000   0.24067443   -7.5561894    3697.5047         1448 
  467000   0.24256726   -7.5555193    3697.7529         1428 
  468000   0.23925524   -7.5453116    3692.3437         1504 
  469000    0.2400539   -7.5557644    3694.9633         1482 
  470000   0.23984708   -7.5586987    3695.9478         1493 
  471000   0.24574157   -7.5628254    3696.6793         1454 
  472000   0.24214017   -7.5574492    3694.5471         1453 
  473000   0.24196862   -7.5425236    3692.0869         1418 
  474000   0.24301662   -7.5531409     3693.695         1499 
  475000   0.23322917   -7.5396999    3692.3185         1435 
  476000   0.23869308   -7.5474041     3689.575         1397 
  477000   0.23973748   -7.5529529    3694.8723         1500 
  478000   0.24316153   -7.5376803    3688.1066         1472 
  479000   0.23459047   -7.5589588    3696.9951         1481 
  480000   0.23884439   -7.5429272    3690.1865         1488 
  481000   0.23940015   -7.5429059    3688.4501         1428 
  482000   0.24016775   -7.5494964    3691.2327         1466 
  483000   0.23804313   -7.5526043    3699.2264         1407 
  484000   0.23699991    -7.547824    3693.5208         1476 
  485000   0.24003051   -7.5484207    3691.8209         1454 
  486000   0.23584034   -7.5527015    3692.1814         1461 
  487000   0.23667367   -7.5469382    3692.7051         1435 
  488000   0.24221741   -7.5531976    3695.0863         1416 
  489000   0.24305577    -7.538803    3689.3939         1470 
  490000   0.23692957   -7.5567381    3696.0537         1428 
  491000   0.23933631   -7.5493345    3693.7879         1425 
  492000   0.23743383   -7.5443846    3690.5991         1454 
  493000   0.24035684   -7.5423491    3689.5065         1461 
  494000   0.24314364   -7.5467043    3694.3188         1420 
  495000   0.23875817   -7.5462718     3693.511         1468 
  496000   0.24732233   -7.5489597    3694.0124         1432 
  497000   0.23956878   -7.5483826    3691.4786         1438 
  498000    0.2412962   -7.5446122    3692.4544         1489 
  499000   0.23817299   -7.5490938     3695.174         1434 
  500000   0.24041821   -7.5391418    3689.9959         1434 
  501000   0.23681714   -7.5407934    3688.7267         1412 
  502000   0.23989757    -7.551277    3697.1937         1468 
  503000   0.23828342   -7.5583807    3699.5547         1420 
  504000   0.24235396   -7.5570166    3698.6091         1431 
  505000   0.23499362   -7.5412493    3689.5367         1457 
  506000   0.23922961   -7.5473122    3691.1483         1410 
  507000   0.24192389   -7.5498335    3689.4818         1445 
  508000   0.23611647   -7.5471163    3693.0173         1443 
  509000   0.24075832   -7.5549945    3696.4101         1455 
  510000   0.23632774   -7.5528724    3694.9225         1454 
  511000   0.23837507   -7.5538984    3693.4748         1457 
  512000   0.24108632    -7.542762    3689.9173         1441 
  513000   0.24394058   -7.5525521    3693.6053         1502 
  514000   0.24395736   -7.5447107    3691.1882         1466 
  515000   0.23840381   -7.5506069     3695.713         1499 
  516000    0.2392597   -7.5615282    3698.4602         1443 
  517000   0.24098001   -7.5476179    3695.8107         1441 
  518000   0.23932932   -7.5648962    3695.6749         1455 
  519000   0.23964489   -7.5497496    3697.3113         1407 
  520000   0.24101542   -7.5578113    3701.1768         1457 
  521000   0.24217336   -7.5475321    3695.4515         1461 
  522000   0.23718157     -7.54677    3692.6124         1495 
  523000   0.23665314    -7.547268    3689.6739         1495 
  524000   0.23544066   -7.5452608    3697.3372         1483 
  525000   0.24205642    -7.546952    3692.3892         1443 
  526000   0.23703577   -7.5406898    3686.5096         1495 
  527000   0.23634301   -7.5476742    3694.1414         1427 
  528000    0.2402038   -7.5481997    3697.4019         1367 
  529000   0.24416301   -7.5538836    3698.7709         1502 
  530000   0.24521187   -7.5534479    3697.3515         1444 
  531000   0.24144271    -7.547332    3693.9851         1474 
  532000   0.23871675   -7.5363108    3695.9022         1438 
  533000   0.24034167   -7.5560194    3692.9424         1397 
  534000   0.23361209   -7.5389057    3690.3119         1433 
  535000   0.23853963   -7.5456872    3694.3651         1452 
  536000   0.23609038   -7.5381211    3683.5099         1456 
  537000   0.23871033   -7.5540539    3694.1098         1471 
  538000   0.24120661   -7.5490591    3691.0763         1401 
  539000   0.24122547   -7.5534902    3696.0327         1455 
  540000   0.24285295   -7.5487186    3693.3072         1452 
  541000    0.2377406   -7.5298408    3687.6613         1426 
  542000   0.24034532    -7.552589    3695.2062         1449 
  543000    0.2459168   -7.5442342    3694.2751         1428 
  544000   0.23922735   -7.5560897    3694.7638         1436 
  545000   0.23858903   -7.5381321    3693.2565         1439 
  546000   0.24259225   -7.5460146    3692.8828         1415 
  547000   0.24018494   -7.5537173    3694.1052         1434 
  548000   0.24264758   -7.5536638    3694.6177         1448 
  549000   0.24042044    -7.542366    3692.7719         1464 
  550000   0.23340227    -7.551788    3696.8048         1441 
  551000   0.24072534   -7.5502913    3690.0721         1470 
  552000    0.2349514   -7.5477956    3694.9898         1403 
  553000   0.23919302   -7.5530324    3692.1708         1515 
  554000   0.24268668   -7.5459974    3692.4672         1437 
  555000   0.23721807   -7.5556346    3698.9378         1405 
  556000   0.24174102   -7.5463699    3691.7761         1489 
  557000   0.23812097    -7.551356    3695.8252         1477 
  558000   0.23497135    -7.557023    3698.1426         1486 
  559000   0.24247272   -7.5461645    3696.4838         1456 
  560000   0.23532538   -7.5516874    3696.7879         1464 
  561000   0.24036317    -7.553341    3694.4667         1438 
  562000    0.2377131   -7.5582442    3694.5514         1408 
  563000    0.2395279   -7.5514758    3696.5258         1465 
  564000   0.23674732   -7.5554208    3695.9301         1417 
  565000   0.24528298   -7.5402407    3692.5008         1432 
  566000   0.24624108   -7.5522911    3695.3531         1421 
  567000   0.24091595   -7.5529936    3696.8653         1439 
  568000    0.2420959   -7.5612222    3695.2609         1429 
  569000   0.23847993   -7.5552657    3697.7421         1442 
  570000    0.2402786   -7.5452476    3690.8956         1419 
  571000   0.24157952   -7.5382858    3690.9164         1407 
  572000   0.23982342   -7.5433418    3691.5326         1474 
  573000   0.23950904   -7.5486988     3697.605         1424 
  574000   0.23489473   -7.5529203    3692.7637         1439 
  575000   0.23979217   -7.5525712    3696.2425         1409 
  576000   0.23548065   -7.5457255    3692.2394         1409 
  577000    0.2428015   -7.5403678    3690.0132         1435 
  578000   0.23709759   -7.5458555    3691.9719         1393 
  579000   0.24226275   -7.5556623    3697.0532         1464 
  580000   0.23583138   -7.5458903    3692.0746         1404 
  581000   0.24110215   -7.5510804    3692.1952         1432 
  582000   0.24064067   -7.5527442    3692.2348         1435 
  583000   0.23791445   -7.5477878    3698.9255         1413 
  584000   0.23772613   -7.5490882    3698.7615         1394 
  585000   0.24209889   -7.5563465    3692.7218         1429 
  586000   0.23717918   -7.5417926    3695.1466         1453 
  587000    0.2417225   -7.5508333    3699.1724         1402 
  588000   0.23947161   -7.5406258    3690.8549         1429 
  589000   0.23940558   -7.5371487    3695.1571         1416 
  590000   0.23583421    -7.546271    3689.5862         1475 
  591000   0.24359612   -7.5566814    3697.0179         1461 
  592000   0.23677176   -7.5486178    3691.2962         1456 
  593000   0.23653085   -7.5490543    3697.6555         1450 
  594000   0.24100867   -7.5615039    3698.5898         1441 
  595000   0.23741097   -7.5488163    3685.9997         1485 
  596000   0.23789465   -7.5514854    3692.0931         1474 
  597000   0.24094228   -7.5480295    3697.3682         1471 
  598000   0.23941597   -7.5576518    3695.3933         1450 
  599000   0.23936911   -7.5585377    3698.3492         1427 
  600000   0.23792179   -7.5400161      3690.41         1512 
  601000    0.2415236   -7.5554023    3695.7665         1497 
  602000   0.23996632   -7.5505198    3695.9432         1437 
  603000   0.23660453   -7.5506759    3691.4659         1459 
  604000   0.23765979   -7.5438376    3685.7831         1438 
  605000   0.23696622    -7.541123    3692.7173         1441 
  606000   0.23456904   -7.5505808     3690.633         1455 
  607000   0.23870052   -7.5482749     3690.884         1469 
  608000   0.23696224   -7.5480599    3699.8696         1472 
  609000   0.23640293   -7.5504642    3694.8868         1435 
  610000   0.23480202   -7.5576635    3696.8516         1420 
  611000   0.23841387   -7.5502406    3696.0804         1428 
  612000   0.24089589   -7.5549741    3692.3635         1462 
  613000   0.23134127   -7.5455194    3692.7837         1413 
  614000   0.23694259   -7.5502678    3696.1619         1443 
  615000   0.23621593   -7.5425654    3688.8439         1461 
  616000    0.2346935    -7.542079    3695.3652         1476 
  617000   0.23536625   -7.5554582    3695.8057         1461 
  618000   0.23751097   -7.5451139    3691.0695         1466 
  619000   0.23958428   -7.5427694    3690.6757         1449 
  620000   0.23913172   -7.5340884     3685.373         1497 
  621000   0.24240895   -7.5488313    3692.3885         1434 
  622000   0.24030547   -7.5485262    3694.3271         1462 
  623000   0.24000618   -7.5560569     3692.075         1501 
  624000   0.23925059   -7.5487796    3698.9744         1478 
  625000   0.24023625   -7.5468205    3695.2523         1504 
  626000   0.23884453   -7.5489782    3697.6571         1488 
  627000   0.24373441   -7.5437592    3692.3356         1532 
  628000   0.24561174   -7.5507566    3694.8324         1522 
  629000   0.24291355   -7.5460886    3697.1744         1488 
  630000   0.24679891   -7.5596364    3698.5348         1516 
  631000   0.24180955   -7.5476614    3694.7919         1512 
  632000   0.23937048   -7.5433055    3690.8113         1460 
  633000   0.24100657   -7.5540264    3693.5049         1530 
  634000    0.2448376    -7.550461     3696.494         1496 
  635000   0.23787193    -7.558739    3697.7949         1494 
  636000   0.24027794   -7.5487521      3692.56         1512 
  637000   0.24149767   -7.5534203    3694.6416         1507 
  638000   0.23631577   -7.5572253    3698.5502         1474 
  639000   0.24194238   -7.5541411    3693.9973         1482 
  640000   0.23309476    -7.551094    3704.9917         1436 
  641000   0.24242897   -7.5343878    3695.0479         1478 
  642000   0.24360381   -7.5496481    3694.1692         1526 
  643000   0.24273791   -7.5486191     3694.959         1439 
  644000   0.24448448   -7.5581144    3698.3016         1481 
  645000   0.24161076   -7.5492242    3690.6266         1454 
  646000   0.23932252   -7.5532356    3695.6117         1483 
  647000   0.24377438   -7.5490515    3693.2442         1415 
  648000   0.23908407   -7.5529459    3693.8264         1524 
  649000   0.24160105   -7.5569852    3701.6785         1431 
  650000   0.24343274   -7.5458825    3692.9096         1514 
  651000   0.23941971   -7.5523884    3699.8804         1446 
  652000   0.23952019   -7.5569749    3695.2721         1533 
  653000   0.23849208   -7.5556089    3690.6579         1547 
  654000   0.23998397   -7.5546164    3693.7614         1512 
  655000    0.2348029    -7.554521    3695.0694         1476 
  656000   0.23911047   -7.5585982    3697.7568         1470 
  657000   0.24252172   -7.5410611     3692.551         1475 
  658000   0.24402818   -7.5482835    3687.0061         1504 
  659000   0.23911692   -7.5493774     3692.137         1442 
  660000   0.24196643   -7.5578663    3700.2695         1552 
  661000   0.23859564   -7.5559342     3695.818         1556 
  662000   0.24043749   -7.5519575    3691.0743         1539 
  663000   0.23922614   -7.5467387    3689.2166         1443 
  664000    0.2399434   -7.5473257    3687.9093         1539 
  665000   0.24009445   -7.5459438    3692.6127         1552 
  666000   0.24539015   -7.5574754    3695.2074         1550 
  667000   0.24065425   -7.5571073    3691.4456         1510 
  668000   0.24124589   -7.5550591    3687.8894         1564 
  669000   0.23852778   -7.5509534    3696.3283         1543 
  670000   0.24014837   -7.5590259     3693.809         1580 
  671000   0.24094972   -7.5562966    3691.0243         1583 
  672000   0.24009869   -7.5541604    3695.0577         1627 
  673000   0.24230904   -7.5555661    3692.9647         1660 
  674000   0.23959445   -7.5567797    3690.5536         1649 
  675000   0.24263437   -7.5491216    3689.0737         1596 
  676000   0.24277451   -7.5602869    3696.4494         1664 
  677000   0.23514964   -7.5536383    3690.8359         1655 
  678000   0.24164258   -7.5552145    3697.1443         1631 
  679000    0.2446678   -7.5557805    3695.4747         1651 
  680000   0.24359064   -7.5539286    3695.7004         1701 
  681000   0.23893783   -7.5541177    3693.1011         1610 
  682000   0.24239011   -7.5573261    3690.6248         1646 
  683000   0.24345326     -7.55458    3685.1827         1663 
  684000   0.23821646   -7.5493427    3683.4013         1690 
  685000   0.23790515   -7.5602305    3694.9458         1652 
  686000   0.23808208   -7.5615977     3693.011         1675 
  687000   0.23858345   -7.5582716    3695.9054         1629 
  688000   0.24010963    -7.555411    3694.8482         1612 
  689000    0.2395463   -7.5602799    3694.6164         1667 
  690000   0.23378395   -7.5717235    3697.2163         1636 
  691000   0.24199314   -7.5530367     3692.262         1637 
  692000   0.23959722   -7.5554846     3688.456         1635 
  693000   0.23897949    -7.561062     3696.806         1687 
  694000   0.23250087   -7.5571547    3693.4302         1625 
  695000   0.23817692   -7.5605108    3692.0627         1629 
  696000   0.24092075   -7.5619265    3695.1914         1647 
  697000   0.23938506   -7.5505834    3689.6424         1606 
  698000   0.24138093   -7.5584299    3691.8068         1604 
  699000   0.24401265   -7.5556996    3694.4185         1609 
  700000   0.23995986   -7.5569253      3694.77         1612 
  701000   0.24123627   -7.5585369    3692.6474         1600 
  702000   0.24257379   -7.5572428    3690.7575         1654 
  703000   0.23682243   -7.5633128    3696.1789         1611 
  704000   0.23541801   -7.5482486    3683.2189         1674 
  705000   0.24050194   -7.5551485    3695.1461         1634 
  706000   0.24051875    -7.561208    3693.0278         1624 
  707000   0.24012317   -7.5516687    3686.1081         1639 
  708000   0.23721774   -7.5587167    3691.5428         1668 
  709000   0.23913212   -7.5597196    3695.5297         1700 
  710000   0.23946133   -7.5502579    3689.1044         1635 
  711000   0.24878143   -7.5524261    3686.5805         1675 
  712000   0.23833788   -7.5575997    3689.1323         1639 
  713000   0.23845678   -7.5578977    3689.3289         1670 
  714000   0.24475073   -7.5624838    3690.2055         1722 
  715000    0.2448675   -7.5554566    3693.7535         1661 
  716000    0.2384716   -7.5619957    3692.8414         1713 
  717000   0.24223846   -7.5597142    3698.4135         1665 
  718000   0.23536985   -7.5583379    3694.1332         1647 
  719000   0.24551682   -7.5552633      3690.47         1621 
  720000   0.24163939   -7.5591713    3694.5815         1675 
  721000   0.24180362   -7.5671864    3695.2465         1611 
  722000   0.23902758   -7.5510636    3693.2277         1677 
  723000    0.2359625   -7.5589092    3693.1892         1674 
  724000   0.24621831   -7.5605649    3689.8844         1662 
  725000   0.24670022    -7.553458    3685.0529         1741 
  726000   0.24363518   -7.5524735    3692.3386         1716 
  727000   0.24237449   -7.5612691    3690.3928         1721 
  728000   0.23970719   -7.5552948    3691.3356         1740 
  729000   0.24024203   -7.5609769    3691.4161         1698 
  730000   0.23948206   -7.5642556    3694.1396         1750 
  731000   0.23781324   -7.5657446    3692.7758         1744 
  732000   0.23944074    -7.552039    3691.2927         1749 
  733000   0.23893906   -7.5567696     3693.083         1724 
  734000   0.24262086    -7.556028    3686.2109         1753 
  735000   0.24352356   -7.5551831    3687.4661         1734 
  736000   0.24216842     -7.56134    3692.2897         1790 
  737000   0.24106044     -7.55406    3691.3792         1787 
  738000   0.23772148   -7.5571699    3699.3638         1764 
  739000   0.23992821   -7.5526565     3684.725         1722 
  740000   0.24208906   -7.5628958    3692.2574         1738 
  741000   0.23689458   -7.5620277    3695.9433         1752 
  742000   0.23817128   -7.5623223    3690.9777         1716 
  743000   0.23804211   -7.5587026    3694.7969         1815 
  744000   0.23581026    -7.565569    3692.6421         1754 
  745000    0.2365555   -7.5598029    3685.7384         1757 
  746000   0.23946865   -7.5540417    3687.4831         1722 
  747000   0.24007924   -7.5649905    3693.5112         1750 
  748000    0.2445975   -7.5649488    3692.7303         1754 
  749000   0.23787308   -7.5671731    3694.7937         1758 
  750000    0.2436593   -7.5649236    3693.8359         1741 
  751000   0.24254834   -7.5552629    3683.7151         1745 
  752000   0.23798645    -7.562241     3690.016         1767 
  753000   0.23878233   -7.5609641    3687.0978         1772 
  754000   0.24366289     -7.56696    3689.3978         1820 
  755000   0.24038815   -7.5672995    3692.9955         1790 
  756000   0.23685244    -7.567639    3692.0741         1830 
  757000   0.24485764   -7.5730712    3691.1113         1765 
  758000   0.24282951   -7.5678102    3688.7296         1820 
  759000   0.23793963   -7.5542636    3685.6649         1799 
  760000   0.24576262   -7.5668964    3688.7924         1790 
  761000   0.24473006    -7.560879    3687.1505         1780 
  762000   0.24303471   -7.5648664    3692.0492         1749 
  763000   0.23840152   -7.5647788    3688.0821         1784 
  764000   0.23501987   -7.5653024    3690.8559         1768 
  765000   0.24226041   -7.5623027    3690.8757         1779 
  766000   0.23731718   -7.5630412    3692.4194         1776 
  767000   0.23729487   -7.5640091    3689.9828         1818 
  768000   0.23764169   -7.5735691    3692.3653         1827 
  769000   0.24620313   -7.5644573    3684.4503         1778 
  770000   0.24118714   -7.5738948    3684.9574         1828 
  771000   0.23890114   -7.5693837    3690.9198         1774 
  772000   0.23470039   -7.5645397    3686.5834         1815 
  773000   0.23927562   -7.5705686    3692.6874         1802 
  774000   0.23656419   -7.5613758    3690.6994         1798 
  775000   0.24493481   -7.5694905    3687.9091         1806 
  776000   0.23310081     -7.56675    3691.5908         1746 
  777000   0.23961025   -7.5588958     3692.213         1812 
  778000   0.23562915   -7.5617866    3693.2566         1773 
  779000   0.23719826   -7.5627771    3691.0259         1837 
  780000     0.239121   -7.5636166    3686.7257         1737 
  781000   0.23678085   -7.5645658    3694.1313         1774 
  782000   0.24175087   -7.5663867     3691.588         1803 
  783000   0.24205855   -7.5727665    3693.2446         1811 
  784000   0.23523345   -7.5588666    3687.9552         1733 
  785000   0.24163396   -7.5664834    3687.5064         1771 
  786000   0.24594141   -7.5697782    3697.1796         1805 
  787000   0.24075758   -7.5619238    3693.6498         1809 
  788000   0.24537629   -7.5735641    3691.6107         1771 
  789000   0.23504942   -7.5671686    3692.9008         1790 
  790000   0.24456729   -7.5649887     3688.379         1800 
  791000    0.2399838   -7.5650588    3691.0037         1731 
  792000   0.24212736    -7.567942    3688.5882         1772 
  793000   0.24166563   -7.5682686     3692.066         1772 
  794000   0.24031627   -7.5657247     3688.913         1793 
  795000   0.23881508   -7.5608686    3688.3249         1759 
  796000   0.24352858   -7.5705039     3688.476         1802 
  797000   0.24042492   -7.5607813    3686.2451         1823 
  798000   0.23983534   -7.5654409    3689.3391         1774 
  799000   0.23995977   -7.5730866    3687.0309         1766 
  800000   0.24308736   -7.5659677    3693.3636         1758 
  801000   0.24065251   -7.5624841    3692.9465         1786 
  802000   0.23956582   -7.5660581    3690.0748         1756 
  803000   0.24081637   -7.5553456    3682.8757         1796 
  804000   0.24423714   -7.5667389    3691.8515         1829 
  805000   0.24515214   -7.5706875     3685.788         1744 
  806000   0.23894593   -7.5616825    3689.9173         1834 
  807000   0.23867882   -7.5640719    3689.9136         1786 
  808000   0.24206172    -7.564446    3689.2043         1804 
  809000   0.24434905    -7.569495    3692.8452         1824 
  810000   0.24405654   -7.5629883    3690.8996         1770 
  811000     0.236639   -7.5703556    3691.0768         1876 
  812000   0.23866458   -7.5704049    3691.0431         1817 
  813000   0.24023138   -7.5664584     3689.056         1824 
  814000   0.24485872   -7.5686238    3686.8442         1799 
  815000   0.23374114   -7.5582845    3686.8359         1859 
  816000   0.23634485   -7.5691081    3690.0302         1888 
  817000   0.24307704   -7.5721921    3688.9975         1858 
  818000   0.23665437   -7.5663883    3686.7907         1906 
  819000   0.23862751   -7.5627523    3690.3275         1893 
  820000   0.24398048   -7.5648303    3684.4329         1900 
  821000   0.23668887   -7.5724503    3685.7987         1896 
  822000   0.24040336   -7.5671457    3690.3513         1911 
  823000   0.24047746   -7.5719389     3690.218         1861 
  824000   0.24602967   -7.5729845    3686.9574         1882 
  825000   0.23825908   -7.5687817    3686.3044         1945 
  826000   0.23853176   -7.5631437    3684.5783         1882 
  827000   0.23971125   -7.5567616    3683.2129         1907 
  828000   0.23642872   -7.5646585    3684.9264         1888 
  829000   0.24126612   -7.5592508    3686.6146         1891 
  830000   0.23778875    -7.569011    3690.4697         1941 
  831000   0.24600341   -7.5609482    3690.6999         1897 
  832000   0.23966028   -7.5769921    3691.9007         1898 
  833000   0.24510854   -7.5654641    3694.0218         1929 
  834000   0.24293769   -7.5609722    3682.8477         1874 
  835000   0.23820734   -7.5602703    3682.6954         1934 
  836000   0.24347464   -7.5607056    3687.1456         1922 
  837000   0.23352165   -7.5706896    3687.3615         1916 
  838000   0.23984521   -7.5722329    3686.5443         1904 
  839000   0.23603294   -7.5633547      3683.55         1835 
  840000   0.23713503   -7.5749464    3685.6083         1896 
  841000   0.23904198   -7.5710955    3690.9867         1938 
  842000   0.24151686   -7.5704725    3690.8135         1938 
  843000   0.24186575    -7.568672    3691.1852         1923 
  844000   0.23187898   -7.5664921     3685.224         1977 
  845000   0.24175872   -7.5782721    3695.4316         1884 
  846000   0.24327082   -7.5611393    3683.9758         1953 
  847000   0.23887517   -7.5694392    3684.5043         1933 
  848000   0.23938366    -7.567582    3689.2923         1894 
  849000   0.24034514     -7.56643    3692.8017         1947 
  850000   0.23617033   -7.5844037    3694.4503         1930 
  851000   0.23855239   -7.5765889    3692.8772         1960 
  852000   0.24193419   -7.5678754    3686.6398         1943 
  853000     0.243109   -7.5674162    3684.4373         1978 
  854000    0.2467462   -7.5697105    3687.4421         1990 
  855000   0.24338935   -7.5668227    3685.9427         1955 
  856000   0.24049704   -7.5724734    3687.0499         1964 
  857000   0.23875926   -7.5728809      3689.96         1982 
  858000   0.23967693   -7.5738497    3694.1495         1922 
  859000   0.23410542   -7.5798793     3690.028         1949 
  860000    0.2421852   -7.5636426    3689.5071         2021 
  861000   0.23845212     -7.57399    3688.9755         2006 
  862000   0.23564672   -7.5657212    3682.7406         2031 
  863000   0.24633395   -7.5838997    3687.4831         1968 
  864000    0.2437378   -7.5698975    3685.4496         2010 
  865000   0.24477407   -7.5685359    3681.7806         1942 
  866000   0.23452296   -7.5769129    3689.5754         1971 
  867000   0.23921554   -7.5639643    3681.1506         1994 
  868000    0.2398875   -7.5749341    3682.8023         2000 
  869000   0.24477796   -7.5690467    3686.1851         2004 
  870000   0.24563662   -7.5629659    3686.0624         1998 
  871000   0.24261109   -7.5702634    3687.7826         2003 
  872000   0.24340606    -7.571322    3687.5829         1950 
  873000   0.23996489   -7.5744907     3685.163         1960 
  874000    0.2417691   -7.5855823    3691.6782         1988 
  875000   0.24177518   -7.5861131    3687.5192         2072 
  876000   0.23879283   -7.5792408     3686.347         2051 
  877000   0.24097873    -7.575591    3689.0569         2037 
  878000   0.24412214   -7.5762176    3683.3542         1953 
  879000    0.2390126      -7.5706    3682.1371         2059 
  880000    0.2365208   -7.5818608    3689.3327         2061 
  881000   0.23620311   -7.5708182    3684.1716         2053 
  882000   0.23578435   -7.5743414    3684.7454         2055 
  883000   0.23773207   -7.5731252    3687.7666         2079 
  884000   0.23728132   -7.5728522     3683.175         2065 
  885000   0.23895498   -7.5833033    3686.6862         2088 
  886000   0.23743546   -7.5778189    3687.5144         2106 
  887000   0.23561457    -7.574152    3684.9398         2081 
  888000   0.23075223   -7.5749821    3691.6588         2101 
  889000    0.2354697   -7.5800028    3689.4467         2126 
  890000   0.24256685   -7.5753802    3683.4998         2154 
  891000   0.23996158   -7.5763745    3686.9618         2169 
  892000     0.232891    -7.580356    3688.7414         2166 
  893000    0.2408803   -7.5784472    3684.3045         2188 
  894000   0.24070723   -7.5869939    3688.1554         2242 
  895000   0.23743101    -7.577175    3680.3408         2291 
  896000   0.23909635   -7.5832472    3684.4265         2226 
  897000   0.23953179   -7.5855352     3685.602         2250 
  898000    0.2398307   -7.5856926    3683.6117         2249 
  899000    0.2399391   -7.5773812    3680.4771         2234 
  900000   0.23904759   -7.5785795    3685.9659         2190 
  901000    0.2387207   -7.5872229    3691.2874         2241 
  902000   0.23534241   -7.5754243    3684.2506         2240 
  903000   0.23890917   -7.5911219    3689.6252         2275 
  904000   0.24205571   -7.5930925    3680.3941         2274 
  905000   0.24313528   -7.5969111    3687.0364         2327 
  906000   0.23973281   -7.5891542    3682.2589         2328 
  907000   0.24304471   -7.5911286    3684.8396         2298 
  908000   0.23909394   -7.5984118    3684.8169         2332 
  909000   0.23729799    -7.589894    3680.0944         2323 
  910000   0.23956717   -7.5916992    3677.3144         2320 
  911000   0.24372586   -7.5996732    3680.9804         2365 
  912000   0.24070511   -7.5972361    3684.7662         2401 
  913000   0.24037786   -7.5971466    3679.7518         2394 
  914000   0.24304988   -7.5980063    3679.2037         2421 
  915000   0.23657216   -7.5967749    3682.3217         2437 
  916000   0.23562378   -7.5972092    3683.1695         2439 
  917000   0.23852731   -7.5996671    3679.4664         2438 
  918000   0.23917929    -7.598012    3678.9921         2415 
  919000   0.24161735   -7.5949024    3680.5516         2401 
  920000   0.24081586    -7.605183    3683.9728         2462 
  921000    0.2401576   -7.5826991    3671.6459         2444 
  922000   0.24135889   -7.5949371     3683.237         2450 
  923000   0.24141026   -7.6035817    3679.2696         2493 
  924000   0.24070316   -7.6000525    3681.4216         2495 
  925000   0.24047014   -7.5977862    3677.8994         2455 
  926000   0.24280874   -7.6001463    3682.1518         2513 
  927000    0.2422572   -7.6045359    3684.4277         2510 
  928000   0.24413894   -7.6021898     3685.525         2539 
  929000    0.2337715   -7.5980059    3686.2628         2480 
  930000   0.24240843   -7.6134565    3685.9516         2515 
  931000   0.23344628   -7.6016846    3679.8295         2561 
  932000   0.24051042   -7.6019307    3683.0424         2540 
  933000   0.23774098   -7.6059634    3680.1639         2566 
  934000   0.24154552   -7.5988365    3680.9673         2571 
  935000   0.23985324   -7.5989249     3681.349         2553 
  936000   0.23492382   -7.6004774    3676.8692         2572 
  937000    0.2380474   -7.6002433      3678.88         2555 
  938000   0.23908527   -7.5949274    3670.5754         2580 
  939000   0.23474659   -7.6067051     3683.989         2582 
  940000   0.23969983   -7.5987301    3678.2161         2552 
  941000    0.2352504   -7.5948604    3680.2435         2598 
  942000   0.23595762   -7.6096225    3681.0148         2626 
  943000   0.23916899   -7.6001463    3678.6931         2604 
  944000   0.24236003   -7.6004655    3676.9844         2584 
  945000   0.24408564   -7.6044876    3678.5054         2552 
  946000   0.23852459   -7.6008128    3678.3311         2564 
  947000     0.235565   -7.6122355    3676.8851         2516 
  948000   0.23549426   -7.6005178    3677.7194         2565 
  949000    0.2402445   -7.6005593    3675.6648         2564 
  950000   0.24453219   -7.6063259    3681.8789         2603 
  951000   0.23844836   -7.6048648    3680.9379         2573 
  952000   0.23871204    -7.603594     3680.424         2597 
  953000   0.23399596   -7.6065869    3682.8689         2648 
  954000   0.23727179   -7.6037614    3674.6754         2577 
  955000   0.23655838   -7.6039865    3676.0964         2611 
  956000    0.2400689   -7.6068434    3680.0913         2615 
  957000   0.24385905   -7.6032582    3680.2424         2608 
  958000   0.24263001   -7.5999305    3677.3733         2635 
  959000   0.23394803   -7.6100624    3676.6364         2650 
  960000   0.23797504   -7.6185382    3678.4297         2637 
  961000   0.24475043     -7.60528    3673.2438         2614 
  962000    0.2367405   -7.6074169    3678.3651         2601 
  963000   0.24404346   -7.6083903    3682.2881         2615 
  964000   0.24017897   -7.6055782    3678.3436         2631 
  965000   0.23422645   -7.6057682    3681.4788         2585 
  966000   0.23981459   -7.6050282    3678.0528         2589 
  967000   0.24498844   -7.6143064    3682.4083         2645 
  968000   0.24134042   -7.6034702    3679.7212         2614 
  969000   0.23660566   -7.6010547    3669.6104         2626 
  970000   0.23698022   -7.6056142    3678.0073         2644 
  971000   0.23947633   -7.6088306     3679.192         2643 
  972000   0.24171716   -7.6132039    3674.9543         2591 
  973000   0.23556894   -7.5943911    3677.8213         2655 
  974000    0.2396316   -7.6107647    3675.3619         2702 
  975000   0.23878501   -7.6008145    3676.6622         2635 
  976000   0.24310872    -7.618939    3679.2617         2654 
  977000   0.24163582   -7.6124209     3676.497         2648 
  978000   0.23923748   -7.6052011    3677.4623         2692 
  979000   0.24142122   -7.6045581    3677.7965         2647 
  980000    0.2420917   -7.6220485    3683.5223         2644 
  981000   0.24430605    -7.608897    3675.5558         2675 
  982000   0.24562482    -7.614118    3676.6779         2643 
  983000   0.24540308   -7.6051904     3676.389         2674 
  984000    0.2361697   -7.6156941    3679.7478         2741 
  985000   0.23606608   -7.6097435    3676.0662         2672 
  986000   0.24428074   -7.6103334    3681.5956         2673 
  987000   0.23768425   -7.6114952    3674.2039         2683 
  988000   0.23279451   -7.6172363    3683.7063         2696 
  989000   0.23618423   -7.6140578    3676.0042         2668 
  990000    0.2376419   -7.6032766    3674.0529         2648 
  991000   0.24276176   -7.6109793    3674.6875         2726 
  992000     0.236793   -7.6091066    3676.0017         2727 
  993000   0.23773906   -7.6149664    3671.6369         2706 
  994000   0.23500881    -7.610413     3676.925         2767 
  995000   0.24041083   -7.6061837    3669.6255         2720 
  996000   0.24314355   -7.6169169    3677.2994         2701 
  997000   0.24144593   -7.6152476    3676.7797         2749 
  998000    0.2362409   -7.6078019    3681.2359         2743 
  999000    0.2441735   -7.6142409    3676.8877         2698 
 1000000   0.23696327   -7.6087425    3675.8411         2686 
 1001000   0.23993002   -7.6068574    3672.7111         2736 
 1002000   0.23557957   -7.6152536    3675.7346         2717 
 1003000   0.23924115   -7.6184708    3679.5288         2735 
 1004000   0.23630433   -7.6204451    3674.3353         2744 
Loop time of 2114.56 on 48 procs for 1000000 steps with 4000 atoms

Performance: 81719.174 tau/day, 472.912 timesteps/s
99.4% CPU use with 48 MPI tasks x no OpenMP threads

MPI task timing breakdown:
Section |  min time  |  avg time  |  max time  |%varavg| %total
---------------------------------------------------------------
Pair    | 135.31     | 145.09     | 155.33     |  35.7 |  6.86
Neigh   | 6.2702     | 6.7008     | 7.0785     |   6.5 |  0.32
Comm    | 99.177     | 109.12     | 120.6      |  46.7 |  5.16
Output  | 3.6132     | 3.6141     | 3.63       |   0.1 |  0.17
Modify  | 1807.7     | 1817.5     | 1828.9     |  11.2 | 85.95
Other   |            | 32.52      |            |       |  1.54

Nlocal:        83.3333 ave          90 max          73 min
Histogram: 1 0 1 2 10 12 5 9 6 2
Nghost:        1737.00 ave        1753 max        1721 min
Histogram: 1 2 1 7 10 17 4 2 2 2
Neighs:        10511.2 ave       11471 max        9221 min
Histogram: 1 0 2 6 8 10 9 6 3 3
FullNghs:      21023.5 ave       22715 max       18387 min
Histogram: 1 0 1 3 9 10 11 5 4 4

Total # of neighbors = 1009126
Ave neighs/atom = 252.28150
Neighbor list builds = 26627
Dangerous builds = 0

#clear
#
#next RN
#
#jump SELF
Total wall time: 0:35:15
