
units lj                  # Use reduced LJ style units
atom_style atomic         # Uncharged point particles
atom_modify map hash      # Needed for indexing of clusters etc
                          # Used to be able to find where atoms are in relation to each other.

# Define a lattice with which to populate the simulation cell. With units
# set to 'lj' the second argument to the lattice command is the reduced
# density rho* and the spacings are multiples of that required to acheive
# that density. Also define a simulation cell called 'box' in lattice units
# and fill it with atoms. Here we're creating a box which is ten lattice
# constants in each direction.
lattice fcc 1.0 spacing 1 1 1                 # All equal sizes - gives the right reduced density.
Lattice spacing in x,y,z = 1.5874011 1.5874011 1.5874011

region box block 0 10 0 10 0 10 units lattice # Defines a region, "box", in lattice units
create_box 1 box                              # Creates a simulation box as specified above,
Created orthogonal box = (0.0000000 0.0000000 0.0000000) to (15.874011 15.874011 15.874011)
  4 by 4 by 4 MPI processor grid
                                              # with one type of atom
create_atoms 1 box                            # Creates particles on lattice points
Created 4000 atoms
  using lattice units in orthogonal box = (0.0000000 0.0000000 0.0000000) to (15.874011 15.874011 15.874011)
  create_atoms CPU = 0.002 seconds


# Set the mass of the first (and only) atom type.
mass 1 1.0

# Lennard-Jones interactions between particles, 3.5 sigma cut-off. Apply
# long range tail corrections to energy and pressure and set all coefficients
# to unity since we work in reduced units here. Note that this doesn't shift
# the potential such that it goes to zero at the cutoff. That would require
# pair_modify('shift', 'yes').
pair_style lj/cut  3.5      # non-GPU version
pair_modify tail  yes
pair_coeff 1  1  1.0  1.0   # Intearaction between 1 and 1 set with epsilon = 1 and sigma = 1

write_data data.*
System init for write_data ...
Neighbor list info ...
  update every 1 steps, delay 10 steps, check yes
  max neighbors/atom: 2000, page size: 100000
  master list distance cutoff = 3.8
  ghost atom cutoff = 3.8
  binsize = 1.9, bins = 9 9 9
  1 neighbor lists, perpetual/occasional/extra = 1 0 0
  (1) pair lj/cut, perpetual
      attributes: half, newton on
      pair build: half/bin/atomonly/newton
      stencil: half/bin/3d
      bin: standard

#############################
#   M E L T   S Y S T E M   #
#############################

velocity all create 2.4 5300450 mom yes dist gaussian # Assign velocities
                                                    # Temperature 2.4, random number seed, zero linear momentum
						                                                        # Gaussian distribution

timestep 0.002   # simulation timestep
thermo 100       # output thermodynamic data every 100 steps

# Define a fix  in this case with index 1 applied to all
# particles in the simulation. This fix is for simulations
# in the anisotropic NPT ensemble. Note that we use the MTK
# correction.
fix 1 all npt temp 2.4 2.4 0.1 iso 5.68 5.68 0.5 mtk yes tchain 5 pchain 5 # Use NPT ensemble
                                                                         # Set temperature and pressure and damping
                                                                         # Numbers of thermostats in chain and in barostat
run 1000         # run for 10000 steps
Per MPI rank memory allocation (min/avg/max) = 3.630 | 3.630 | 3.630 Mbytes
Step Temp E_pair E_mol TotEng Press Volume 
       0          2.4   -8.3859253            0   -4.7868253   -2.2405722         4000 
     100    1.2568457    -6.520638            0   -4.6358408    5.4054415    4090.5418 
     200    1.4749962   -6.3123998            0   -4.1004586    5.9706789    4139.2832 
     300    1.6124068   -6.0569481            0   -3.6389426    5.7397492    4264.5301 
     400    1.7168752   -5.7431758            0   -3.1685069    5.9205944    4390.8204 
     500    1.7900089   -5.4300953            0   -2.7457532    5.8244207    4548.9907 
     600    1.8749878   -5.1356604            0   -2.3238818    5.7834378    4705.6354 
     700    1.9882515   -4.8678934            0   -1.8862617    5.9915018     4837.506 
     800    2.1327811   -4.6988753            0   -1.5005035    5.7798366    4974.3967 
     900    2.2952123   -4.5871705            0   -1.1452128    5.7568633    5062.5276 
    1000    2.3419515   -4.4435081            0  -0.93145903    5.7034406     5160.776 
Loop time of 0.202062 on 64 procs for 1000 steps with 4000 atoms

Performance: 855183.294 tau/day, 4948.977 timesteps/s
99.6% CPU use with 64 MPI tasks x no OpenMP threads

MPI task timing breakdown:
Section |  min time  |  avg time  |  max time  |%varavg| %total
---------------------------------------------------------------
Pair    | 0.058841   | 0.062854   | 0.067114   |   0.7 | 31.11
Neigh   | 0.014036   | 0.014693   | 0.015498   |   0.3 |  7.27
Comm    | 0.09076    | 0.095283   | 0.099208   |   0.6 | 47.16
Output  | 0.00028846 | 0.00030413 | 0.00036854 |   0.0 |  0.15
Modify  | 0.024991   | 0.027062   | 0.029474   |   0.7 | 13.39
Other   |            | 0.001866   |            |       |  0.92

Nlocal:        62.5000 ave          69 max          56 min
Histogram: 7 2 3 12 7 7 13 5 2 6
Nghost:        1253.14 ave        1273 max        1234 min
Histogram: 2 7 6 8 11 5 9 8 7 1
Neighs:        5540.11 ave        6253 max        4768 min
Histogram: 2 5 5 12 10 8 5 5 7 5

Total # of neighbors = 354567
Ave neighs/atom = 88.641750
Neighbor list builds = 87
Dangerous builds = 24

# Equilibrate just above the melting temperature to avoid step fn in T

fix 1 all npt temp 1.25 1.25 0.1 iso 5.68 5.68 0.5 mtk yes tchain 5 pchain 5
run 1000
Per MPI rank memory allocation (min/avg/max) = 3.631 | 3.631 | 3.631 Mbytes
Step Temp E_pair E_mol TotEng Press Volume 
    1000    2.3419515   -4.4435081            0  -0.93145903    5.7034406     5160.776 
    1100    1.9505664   -4.6860744            0   -1.7609562    5.6875043    4990.5455 
    1200    1.7145364   -4.9478458            0   -2.3766842    5.6803952    4813.9806 
    1300    1.5789627   -5.2178493            0   -2.8499973     5.626771    4671.2595 
    1400     1.466042   -5.4083802            0    -3.209867    5.7430009    4553.7478 
    1500    1.3483489   -5.5238765            0   -3.5018588    5.7608991    4484.5069 
    1600    1.3065005   -5.6674797            0   -3.7082189    5.6719356    4427.5375 
    1700    1.2613667   -5.7293973            0   -3.8378202     5.676448    4393.2208 
    1800    1.2706154   -5.8058844            0   -3.9004378    5.6537836    4362.5534 
    1900    1.2416506   -5.8085169            0   -3.9465067    5.6540218    4357.9646 
    2000    1.2530204     -5.85012            0   -3.9710592    5.4158949    4363.6997 
Loop time of 0.195362 on 64 procs for 1000 steps with 4000 atoms

Performance: 884510.235 tau/day, 5118.693 timesteps/s
99.9% CPU use with 64 MPI tasks x no OpenMP threads

MPI task timing breakdown:
Section |  min time  |  avg time  |  max time  |%varavg| %total
---------------------------------------------------------------
Pair    | 0.058265   | 0.061849   | 0.065654   |   0.7 | 31.66
Neigh   | 0.011904   | 0.012596   | 0.013239   |   0.3 |  6.45
Comm    | 0.088143   | 0.093249   | 0.0982     |   0.6 | 47.73
Output  | 0.00029333 | 0.00030139 | 0.00035006 |   0.0 |  0.15
Modify  | 0.022741   | 0.024964   | 0.026765   |   0.6 | 12.78
Other   |            | 0.002402   |            |       |  1.23

Nlocal:        62.5000 ave          68 max          53 min
Histogram: 1 1 3 0 5 10 20 8 12 4
Nghost:        1399.92 ave        1420 max        1382 min
Histogram: 6 4 6 9 5 11 12 6 2 3
Neighs:        6535.45 ave        7153 max        5253 min
Histogram: 1 0 2 4 2 9 13 19 7 7

Total # of neighbors = 418269
Ave neighs/atom = 104.56725
Neighbor list builds = 74
Dangerous builds = 4


# Small amount of linear quench

fix 1 all npt temp 1.25 ${temp} 0.1 iso 5.68 5.68 0.5 mtk yes tchain 5 pchain 5
fix 1 all npt temp 1.25 0.67 0.1 iso 5.68 5.68 0.5 mtk yes tchain 5 pchain 5
run 2000
Per MPI rank memory allocation (min/avg/max) = 3.631 | 3.631 | 3.631 Mbytes
Step Temp E_pair E_mol TotEng Press Volume 
    2000    1.2530204     -5.85012            0   -3.9710592    5.4158949    4363.6997 
    2100    1.2157472   -5.8552097            0   -4.0320448    5.4682477    4352.4485 
    2200    1.2162741   -5.8901615            0   -4.0662064    5.5074635    4333.9398 
    2300    1.1939747   -5.9327292            0   -4.1422149    5.6056169    4304.8808 
    2400    1.1586294   -5.9577429            0   -4.2202333    5.5905383     4296.291 
    2500    1.1388783   -6.0107339            0   -4.3028435    5.5869996    4274.1554 
    2600    1.0980077   -6.0291156            0   -4.3825158    5.6375442    4258.8556 
    2700    1.0939567   -6.1043626            0   -4.4638378    5.6645866    4225.0304 
    2800    1.0624132   -6.1612794            0    -4.568058    5.5640534    4210.7669 
    2900    1.0174152   -6.1841704            0   -4.6584291    5.6657397    4190.3581 
    3000    1.0039304   -6.2512532            0    -4.745734    5.4798978    4178.8946 
    3100   0.96690472   -6.2641909            0   -4.8141964    5.7785108    4146.5647 
    3200   0.94145706   -6.3245087            0   -4.9126762    5.6589052    4130.7893 
    3300   0.89642323   -6.3704105            0   -5.0261118    5.5348564    4120.4254 
    3400    0.8850493   -6.4281693            0   -5.1009272    5.6591409    4090.4577 
    3500   0.86899842   -6.4821977            0   -5.1790259    5.7867358    4059.7453 
    3600   0.81534371   -6.4971855            0   -5.2744757    5.9610689    4039.9215 
    3700   0.79992806   -6.5706978            0   -5.3711057    5.7855374    4024.3357 
    3800   0.75870194   -6.6134647            0   -5.4756963    5.7422509    4010.2439 
    3900    0.7525794   -6.6852215            0   -5.5566346    5.7230957    3985.7145 
    4000   0.69639443   -6.6927515            0    -5.648421    5.8785993    3970.7313 
Loop time of 0.413049 on 64 procs for 2000 steps with 4000 atoms

Performance: 836705.539 tau/day, 4842.046 timesteps/s
100.0% CPU use with 64 MPI tasks x no OpenMP threads

MPI task timing breakdown:
Section |  min time  |  avg time  |  max time  |%varavg| %total
---------------------------------------------------------------
Pair    | 0.12886    | 0.13532    | 0.14594    |   0.9 | 32.76
Neigh   | 0.020109   | 0.020995   | 0.022028   |   0.3 |  5.08
Comm    | 0.18888    | 0.19661    | 0.20432    |   0.9 | 47.60
Output  | 0.00057462 | 0.00058844 | 0.00069025 |   0.0 |  0.14
Modify  | 0.048972   | 0.053534   | 0.058989   |   1.2 | 12.96
Other   |            | 0.005998   |            |       |  1.45

Nlocal:        62.5000 ave          68 max          56 min
Histogram: 1 3 3 6 11 20 6 6 2 6
Nghost:        1490.92 ave        1506 max        1468 min
Histogram: 1 6 1 5 6 8 13 9 9 6
Neighs:        7210.06 ave        8093 max        6456 min
Histogram: 2 5 9 7 13 13 6 5 1 3

Total # of neighbors = 461444
Ave neighs/atom = 115.36100
Neighbor list builds = 116
Dangerous builds = 0

#############################
# F R E E Z E  S Y S T E M  #
#############################

# Define solid atoms. This closely follows ten Wolde  Ruiz-Montero and Frenkel  Faraday Discuss  1996  104  93-110
# Compute components of the per-atom q6 vector
compute q6 all orientorder/atom degrees 1 6 components 6 nnn NULL cutoff 1.3 # compute the Q6 parameter.
                                                                             # Use all neighbours within 1.3 unit cell.

# get number of connections
compute coord_number all coord/atom orientorder q6 0.5

# An atom is solid if it has 8 or more connections (of a possible 14)
variable is_solid atom c_coord_number>=8
group solid dynamic all var is_solid    # Must be dynamic to update
dynamic group solid defined

# do clustering
compute cluster solid cluster/atom 1.3 # Create a cluster where all atoms within are solid and max 1.3 units from another member

# define chunks one chunk per cluster
compute clus_chunks solid chunk/atom c_cluster nchunk every compress yes  # Says which atoms are in which chunk

# count the size of each chunk
compute size_chunks solid property/chunk clus_chunks count


# Find the maximum entry in the vector of chunk sizes
variable max_n equal max(c_size_chunks)


# Thermo style which includes this variable
thermo_style custom step temp pe vol v_max_n

thermo ${N}  # Print the thermo information every 100 steps
thermo 100  

# Reset the npt fix at a lower temperature (below freezing)
fix 1  all npt temp  ${temp} ${temp}  0.1  iso  5.68  5.68  0.5  mtk yes tchain  5  pchain  5
fix 1  all npt temp  0.67 ${temp}  0.1  iso  5.68  5.68  0.5  mtk yes tchain  5  pchain  5
fix 1  all npt temp  0.67 0.67  0.1  iso  5.68  5.68  0.5  mtk yes tchain  5  pchain  5

dump dmp2 all dcd ${N} traj_${rand}.dcd
dump dmp2 all dcd 100 traj_${rand}.dcd
dump dmp2 all dcd 100 traj_462431.dcd


# fix rnuntil all halt ${N} v_max_n >= 3980 error soft message no   # Stop when solidified


run 100000 # 5000000  # Run for this many steps
Neighbor list info ...
  update every 1 steps, delay 10 steps, check yes
  max neighbors/atom: 2000, page size: 100000
  master list distance cutoff = 3.8
  ghost atom cutoff = 3.8
  binsize = 1.9, bins = 9 9 9
  4 neighbor lists, perpetual/occasional/extra = 1 3 0
  (1) pair lj/cut, perpetual
      attributes: half, newton on
      pair build: half/bin/atomonly/newton
      stencil: half/bin/3d
      bin: standard
  (2) compute orientorder/atom, occasional
      attributes: full, newton on
      pair build: full/bin/atomonly
      stencil: full/bin/3d
      bin: standard
  (3) compute coord/atom, occasional
      attributes: full, newton on
      pair build: full/bin/atomonly
      stencil: full/bin/3d
      bin: standard
  (4) compute cluster/atom, occasional
      attributes: full, newton on
      pair build: full/bin/atomonly
      stencil: full/bin/3d
      bin: standard
Per MPI rank memory allocation (min/avg/max) = 9.338 | 9.342 | 9.346 Mbytes
Step Temp PotEng Volume v_max_n 
    4000   0.69639443   -6.6927515    3970.7313           28 
    4100   0.69005113    -6.749431    3960.8504           21 
    4200   0.67111072   -6.7807215    3955.6127           20 
    4300   0.66896423   -6.8042332    3945.0846           17 
    4400   0.67608867   -6.8209971    3937.4476           24 
    4500   0.65994673   -6.8384283    3939.2462           21 
    4600   0.66583073   -6.8230772    3934.5393           28 
    4700   0.69240522   -6.8136319    3926.0625           23 
    4800   0.66700152   -6.8399868    3941.9428           23 
    4900   0.65765221   -6.8564637    3940.8112           24 
    5000   0.67006374   -6.8251681    3926.9008           44 
    5100   0.68161408   -6.8293314    3930.2875           25 
    5200   0.66333562   -6.8350872    3932.4844           29 
    5300   0.67369094   -6.8414203    3932.1129           57 
    5400   0.66310679   -6.8430993    3926.5519           42 
    5500   0.68182442   -6.8584385    3923.6935           37 
    5600   0.67216613   -6.8438168    3933.4428           53 
    5700   0.66384417    -6.864133     3929.826           51 
    5800   0.66082675   -6.8600303    3928.3991           33 
    5900    0.6802793   -6.8417312     3918.672           24 
    6000   0.67655035   -6.8576608    3912.2439           37 
    6100    0.6693181    -6.879449    3928.0129           33 
    6200   0.65575365   -6.8530948     3925.162           44 
    6300   0.66446249   -6.8636772    3929.2933           35 
    6400   0.66382372   -6.8876509    3923.2443           21 
    6500   0.65348884   -6.8809119    3912.2144           19 
    6600   0.66853775   -6.8777225     3912.697           30 
    6700   0.67493123   -6.8682066    3923.4314           19 
    6800   0.67281372   -6.8639128    3917.1986           46 
    6900   0.66132567   -6.8702775     3916.292           18 
    7000   0.67623055   -6.8664875    3924.3778           33 
    7100    0.6722858   -6.8982907     3916.905           45 
    7200   0.67099856   -6.8805786    3911.0254           39 
    7300   0.67311662   -6.8749913    3926.3713           29 
    7400   0.66979693   -6.8790174    3926.5156           32 
    7500   0.66926299   -6.8735811    3908.8919           64 
    7600   0.67292754   -6.8888453    3915.6358           57 
    7700   0.68178875   -6.8831484    3917.1494           43 
    7800   0.67359812   -6.9083284    3907.3783           48 
    7900    0.6726865   -6.9009588    3910.3163           56 
    8000    0.6801095   -6.8960272    3917.1046           98 
    8100   0.67284054   -6.8918976     3912.195           59 
    8200    0.6660248   -6.8779706    3903.9416           75 
    8300   0.67662956   -6.8921264     3924.703           68 
    8400    0.6614113   -6.8969365    3928.7644           99 
    8500   0.66611923   -6.8960657    3902.0714           63 
    8600    0.6707621   -6.8874489    3909.5356           39 
    8700   0.66779612   -6.8732609    3925.4677           63 
    8800   0.67478772    -6.855499    3916.8709           69 
    8900   0.67026901   -6.8868642    3917.4996           50 
    9000   0.66977249   -6.8896349    3915.9364           35 
    9100   0.65020108   -6.8923972    3912.4605           43 
    9200   0.67380717    -6.911221    3925.8134           42 
    9300   0.67530217   -6.9025288     3905.719           54 
    9400   0.68041682   -6.8938811    3892.7644           72 
    9500   0.67542281   -6.8753091    3916.4559           98 
    9600   0.66265504   -6.8986011     3919.534           84 
    9700   0.66509944   -6.8789033    3913.9843           93 
    9800   0.67440366   -6.9024791    3913.2513           75 
    9900   0.66189975   -6.8780799    3898.0082           78 
   10000   0.67245635   -6.9174872    3916.7206           73 
   10100    0.6525589    -6.909049    3909.4098           54 
   10200   0.66803422   -6.9029028    3910.7779           74 
   10300   0.67062068   -6.8808447    3918.6878           79 
   10400   0.68386065    -6.887892     3920.045           63 
   10500   0.67329271   -6.9034353    3907.7795           92 
   10600   0.65864854   -6.9069445    3910.7597           35 
   10700    0.6661669   -6.8902583     3929.377           41 
   10800   0.66996069   -6.9038611     3927.828           40 
   10900    0.6655364   -6.8935746    3905.7438           84 
   11000   0.68389585   -6.8847882     3899.043           42 
   11100   0.67712292   -6.8732022    3915.3944           32 
   11200   0.65785053   -6.8830256    3918.6286           29 
   11300    0.6603203   -6.9076479    3911.1609           25 
   11400   0.67758804    -6.944717    3906.0371           42 
   11500   0.67228477   -6.8927442    3903.3387           36 
   11600   0.68559131   -6.8974078    3912.7288           18 
   11700    0.6668603   -6.8957915    3911.6281           17 
   11800   0.67101291   -6.9132959    3910.1777           40 
   11900   0.65402805   -6.9167985    3911.3888           24 
   12000   0.67510712   -6.9127663    3915.7998           23 
   12100   0.67636186   -6.8779309    3893.6519           24 
   12200   0.66171574   -6.9048827    3902.8951           21 
   12300   0.68257178   -6.9232207    3912.4147           32 
   12400   0.66302347   -6.8918446    3910.4788           53 
   12500   0.65984445   -6.9006964    3907.8984           30 
   12600   0.66587272   -6.8902965    3899.9081           56 
   12700   0.68495381   -6.9155204    3921.9007           27 
   12800   0.67527735   -6.9240791    3907.2434           47 
   12900   0.67024157   -6.9148547     3900.341           30 
   13000   0.68285421   -6.9075877    3906.8117           42 
   13100   0.68013974   -6.9197491    3920.0829           48 
   13200    0.6720824   -6.9070983    3916.1223           46 
   13300   0.67033862   -6.9030691    3893.8672           33 
   13400   0.66730919    -6.894084    3910.7391           18 
   13500     0.686664   -6.9040941    3920.4335           19 
   13600   0.66984823    -6.896694    3911.2972           23 
   13700   0.66700821   -6.9013618    3903.3716           30 
   13800   0.66062791   -6.9095712    3903.6844           21 
   13900   0.67212671   -6.9192117     3911.348           20 
   14000   0.67071506   -6.8967842     3916.098           18 
   14100   0.67536101    -6.905261    3916.5779           33 
   14200   0.65805161   -6.8961697    3907.6599           51 
   14300   0.67101735   -6.9148728    3914.0554           24 
   14400   0.66591099   -6.8969391    3919.3987           33 
   14500   0.66444983   -6.9083986    3894.3189           31 
   14600   0.67720196   -6.9094456    3902.4546           30 
   14700   0.67075024   -6.9303664    3913.6285           25 
   14800   0.65733077   -6.9058283    3899.1596           36 
   14900   0.66815938    -6.898038    3914.0676           70 
   15000   0.67577144   -6.9100655    3910.5373           44 
   15100   0.65593064   -6.8990595    3905.9454           51 
   15200   0.67185383   -6.8971859    3908.9186           32 
   15300   0.69475463     -6.89106    3914.6085           31 
   15400    0.6672108   -6.8986365    3910.3363           28 
   15500    0.6679972   -6.9183182    3911.8447           36 
   15600   0.66531182   -6.9400529    3900.7313          103 
   15700   0.67475512   -6.9204088    3888.9782           37 
   15800   0.66842409   -6.9151821    3901.0948           60 
   15900   0.65491722   -6.9227049    3910.4404           43 
   16000   0.66478542   -6.9106052    3902.4214           45 
   16100   0.68040087   -6.9044175    3905.5179           44 
   16200   0.66008267    -6.916879    3902.5321           39 
   16300   0.66761391   -6.9527645    3917.4875           84 
   16400   0.67543654   -6.9065171    3898.3142           51 
   16500   0.67474362   -6.9124478    3897.3423           53 
   16600   0.67700028   -6.9328272    3904.8981           49 
   16700   0.66177215   -6.9065842    3905.8265           82 
   16800   0.67797059   -6.9200066    3910.8779          107 
   16900   0.66772721   -6.9233891    3897.7761           51 
   17000   0.67573134   -6.9252793    3897.6829          108 
   17100   0.68483532   -6.9344233    3914.5385           53 
   17200   0.67334249   -6.9107502    3901.5919           88 
   17300   0.67078156   -6.9058038     3894.877          152 
   17400   0.69431295   -6.9218821    3905.3526           47 
   17500   0.66910206   -6.9187192    3906.5587          148 
   17600   0.66414502    -6.926575    3906.0769          104 
   17700    0.6846493   -6.9260823    3907.1141          230 
   17800   0.65975142   -6.8844487    3901.9231          117 
   17900   0.65982058   -6.9223382    3901.9463          168 
   18000    0.6787094   -6.9187086    3908.1511          177 
   18100   0.65811258   -6.9149746    3907.1528          236 
   18200   0.66577431   -6.9490783    3912.7763          107 
   18300   0.66526908   -6.9219651    3895.3916          226 
   18400   0.68335685   -6.9112195    3900.4183          145 
   18500   0.66367267   -6.9125319    3906.8002          104 
   18600   0.67526439   -6.9359429    3915.5673          335 
   18700   0.67653657   -6.8920154    3911.8951          143 
   18800   0.67397925   -6.8963647    3889.0951          265 
   18900   0.67746544   -6.9426001     3904.538          264 
   19000   0.67503006   -6.9154758    3906.5418          167 
   19100   0.67350085   -6.9170638    3903.7444          111 
   19200   0.67590248   -6.9363869    3898.8742          162 
   19300   0.67235491   -6.8975359    3909.6415           64 
   19400   0.66870605    -6.916241    3908.2348          137 
   19500   0.65596616   -6.9386754    3906.0133          109 
   19600   0.66869425   -6.9267359    3902.6396          395 
   19700   0.66499904   -6.9047541    3898.5467          389 
   19800   0.67815688   -6.9145091    3902.6001          220 
   19900   0.65186894   -6.9235245    3902.0932          338 
   20000   0.66240165   -6.9263402     3910.117          338 
   20100   0.66823855   -6.9031056     3916.226          243 
   20200   0.67237904   -6.8887146    3899.2985          457 
   20300   0.66479775   -6.9085284    3909.1203          319 
   20400    0.6578459   -6.9121827    3906.9948          407 
   20500   0.68118148   -6.9116189    3901.2796          276 
   20600   0.66992218   -6.9203804    3894.6116          206 
   20700   0.67154572   -6.9394451    3903.6951          199 
   20800   0.67145764   -6.9291422    3902.0406          359 
   20900   0.66332557   -6.9132774    3898.9552          382 
   21000   0.66852575   -6.8941258     3911.574          167 
   21100   0.68702866   -6.9146848    3912.3853          221 
   21200   0.66228337   -6.8957767    3906.4792          332 
   21300   0.67370134   -6.9046605    3906.8899          197 
   21400   0.67456222   -6.9174265    3910.5897          114 
   21500   0.66289937   -6.9203276     3903.259          134 
   21600   0.66489451   -6.8952059    3904.3005          259 
   21700   0.66190325   -6.8976694    3910.4482          256 
   21800    0.6720891   -6.9195159     3917.572          259 
   21900   0.69353304   -6.8991866    3908.9163          238 
   22000   0.66679857   -6.8829644    3898.4292          250 
   22100   0.66999376   -6.9179582    3910.6777          428 
   22200   0.65268702   -6.9266492    3903.2472          404 
   22300   0.66736479   -6.9163137    3901.4172          479 
   22400   0.67022948    -6.917501    3902.7997          192 
   22500   0.64903924   -6.9230198     3898.511          438 
   22600   0.66627276    -6.909698    3904.8947          483 
   22700   0.66742815   -6.9101865    3910.4317          435 
   22800   0.65355196   -6.8943097     3905.063          310 
   22900   0.65823379   -6.9068188    3902.8883          531 
   23000   0.68016278   -6.9216832    3911.6154          429 
   23100   0.65986491   -6.9278282    3916.0208          395 
   23200    0.6757567    -6.910386    3901.9175          516 
   23300   0.67792512   -6.9127327    3902.2726          286 
   23400   0.66973949    -6.930158    3905.1241          555 
   23500   0.65233844   -6.9335661    3907.3967          576 
   23600   0.65891901   -6.9231572    3911.2174          315 
   23700   0.67163029   -6.9261943     3906.573          356 
   23800   0.66407061   -6.9176501    3908.2041          463 
   23900   0.68626639   -6.9137545    3898.6282          572 
   24000   0.66807064    -6.934247    3897.1138          580 
   24100   0.65995819   -6.9344163     3908.057          513 
   24200   0.67124425   -6.9076112    3906.4052          489 
   24300   0.67643046   -6.9299141       3904.8          574 
   24400   0.66645855   -6.9278663      3903.59          636 
   24500   0.67458842     -6.92333    3901.1514          611 
   24600   0.66325241   -6.9368084    3908.0514          596 
   24700   0.65899559   -6.9259595    3897.4358          654 
   24800   0.65890943   -6.9564817    3895.6952          560 
   24900   0.65577417   -6.9279183    3909.4733          557 
   25000   0.66574534   -6.9227788    3901.2716          551 
   25100   0.68819645    -6.912094    3894.2336          638 
   25200   0.67121896    -6.921093    3896.7405          478 
   25300   0.66322322   -6.9401931    3900.1436          545 
   25400   0.66745565   -6.9262987     3894.649          581 
   25500   0.67869971   -6.9363551    3901.0081          557 
   25600   0.66158158   -6.9405057    3902.6326          571 
   25700   0.66122753   -6.9266855     3899.981          665 
   25800   0.65592138   -6.9419381     3897.891          650 
   25900   0.67515842   -6.9564543    3913.5047          616 
   26000   0.67577282   -6.9133096    3896.0561          524 
   26100   0.66471073   -6.9130495    3894.9199          370 
   26200   0.67617158   -6.9368492    3907.7702          624 
   26300   0.66813689   -6.9299424    3906.3242          592 
   26400   0.67599961   -6.9318021    3899.5047          568 
   26500   0.66834962   -6.9190444      3894.89          670 
   26600   0.68358239   -6.9278345    3899.6641          610 
   26700   0.66658829   -6.9411347    3897.0037          671 
   26800   0.64790803   -6.9402688    3904.2368          642 
   26900   0.67444489   -6.9421312    3899.4404          649 
   27000   0.66818421   -6.9469593    3899.7662          639 
   27100   0.67229512   -6.9285835    3897.7628          672 
   27200   0.67157664   -6.9445403    3898.1303          701 
   27300   0.66007135   -6.9511348    3893.5062          714 
   27400   0.67158813   -6.9482255    3901.2425          713 
   27500   0.67836401   -6.9256368    3894.9734          702 
   27600   0.66258366   -6.9307684    3888.1065          760 
   27700   0.65543147   -6.9467424    3907.1996          673 
   27800   0.65425731   -6.9167091    3895.1882          761 
   27900   0.67656711   -6.9356155    3897.4834          796 
   28000    0.6795962   -6.9324837    3902.8065          792 
   28100   0.66604954    -6.944204    3893.6791          816 
   28200   0.67929129   -6.9539575    3899.5024          755 
   28300   0.68206857   -6.9500467    3887.5203          786 
   28400   0.66666514   -6.9348202    3881.0296          743 
   28500   0.66632961   -6.9476203    3901.5289          701 
   28600   0.68009858   -6.9540797    3905.9741          700 
   28700   0.66712967   -6.9356682    3895.4436          680 
   28800   0.66802192   -6.9446308    3891.8816          646 
   28900   0.67456557   -6.9385127    3900.2967          744 
   29000   0.68882926   -6.9363296    3904.6617          676 
   29100   0.67501114   -6.9532988    3896.0167          740 
   29200   0.66891902   -6.9411266    3886.7251          794 
   29300   0.66466604    -6.963199    3887.7696          781 
   29400   0.67560848   -6.9604547    3895.1727          762 
   29500    0.6701729   -6.9653766    3899.4018          765 
   29600   0.67610323   -6.9485971    3880.9561          741 
   29700   0.65914353   -6.9419518    3889.8343          719 
   29800   0.66740915   -6.9619751     3907.584          738 
   29900   0.65889064   -6.9589871    3897.3385          784 
   30000   0.66276607   -6.9487992    3892.7493          823 
   30100   0.67888862   -6.9406431    3895.9425          848 
   30200   0.66616605   -6.9544023    3898.6047          839 
   30300   0.66873544   -6.9564479     3891.401          851 
   30400   0.66333252   -6.9529785    3887.7847          870 
   30500   0.67174605   -6.9464094    3907.3841          841 
   30600   0.65738427   -6.9428058    3900.2779          809 
   30700   0.66879403   -6.9550659    3893.1654          859 
   30800   0.67158136     -6.92184     3900.056          805 
   30900   0.65641314   -6.9379053    3899.0674          791 
   31000   0.67094211   -6.9648461    3896.2729          770 
   31100   0.66537901   -6.9390254    3893.1413          843 
   31200    0.6833515   -6.9595911    3902.5872          917 
   31300   0.67569603   -6.9665331    3887.4998          981 
   31400   0.66858186   -6.9536023    3886.1497          921 
   31500   0.67121658   -6.9405776    3904.5992          971 
   31600   0.66671229   -6.9609634    3901.8399          988 
   31700   0.66474291   -6.9580117    3886.4483          976 
   31800   0.66623119   -6.9717474    3893.1353          959 
   31900   0.66894365   -6.9471664    3894.7131          970 
   32000   0.66747265   -6.9662688    3887.5774          939 
   32100   0.66291447   -6.9722728    3882.1433          971 
   32200   0.67230958   -6.9582301    3889.8961         1046 
   32300   0.66984637   -6.9486178    3889.2291         1030 
   32400   0.67507809   -6.9622412    3889.7566         1055 
   32500   0.68014323   -6.9441144    3896.2264         1035 
   32600   0.67080275   -6.9518899    3899.6746         1000 
   32700   0.66083542    -6.960371    3895.2855         1073 
   32800   0.67114556    -6.940181    3889.6921         1052 
   32900   0.67228099   -6.9788367    3900.6315         1020 
   33000   0.66470038   -6.9693152    3889.4393         1081 
   33100   0.67678469   -6.9507087    3896.3685         1032 
   33200   0.67062391   -6.9639946    3889.6747         1079 
   33300   0.68413924   -6.9701096    3879.1732         1075 
   33400   0.66823669   -6.9671259    3881.1718         1040 
   33500    0.6680305   -6.9443435    3897.9685          997 
   33600   0.68038077   -6.9759223    3897.4553         1013 
   33700   0.66953948   -6.9616518    3885.6472         1021 
   33800   0.67405257   -6.9434649    3885.0962         1017 
   33900   0.67087598   -6.9434782    3894.2252         1064 
   34000   0.66421341   -6.9785538    3895.2051         1100 
   34100   0.65111606   -6.9573387    3889.9599         1096 
   34200   0.67522923   -6.9866407    3894.3973         1168 
   34300   0.66190395   -6.9669715    3889.3079         1166 
   34400   0.67414753    -6.967355      3893.58         1156 
   34500   0.69111728   -6.9657115    3892.4074         1082 
   34600   0.67515783   -6.9608151    3873.5452         1137 
   34700    0.6618499   -6.9688325    3894.3851         1070 
   34800   0.65188258    -6.950258    3900.9615         1067 
   34900   0.67144477   -6.9576479    3897.5209         1131 
   35000   0.66631675   -6.9675294    3889.2039         1167 
   35100    0.6719843   -6.9784865    3890.4175         1149 
   35200   0.67134816   -6.9370987    3890.8688         1108 
   35300   0.66019192   -6.9618739    3893.7305         1208 
   35400   0.67051075   -6.9748612    3892.8374         1268 
   35500   0.66831998   -6.9373906    3887.7465         1180 
   35600   0.68275739   -6.9688314    3890.3356         1168 
   35700   0.66524616   -6.9637774    3892.3412         1205 
   35800   0.67892114   -6.9539888    3895.5146         1184 
   35900   0.67957771     -6.95842     3889.626         1108 
   36000   0.67173787   -6.9666003    3887.6867         1128 
   36100   0.66841808   -6.9577868    3890.3945         1115 
   36200   0.67793847   -6.9648362    3890.3688         1174 
   36300   0.66807932   -6.9805564    3888.5794         1195 
   36400   0.68771289   -6.9703126    3881.1507         1287 
   36500   0.67355321   -6.9627121    3881.0537         1318 
   36600   0.66687394   -6.9852552    3882.5315         1378 
   36700   0.66286304   -6.9674005    3888.3492         1370 
   36800   0.67188213   -6.9613855    3890.7733         1321 
   36900   0.66750181   -6.9805256    3883.9431         1371 
   37000   0.66128415   -6.9768673    3875.3238         1392 
   37100   0.67785423   -6.9727828    3886.4538         1452 
   37200   0.67271279   -6.9689392    3880.6889         1439 
   37300   0.66542017   -6.9858267    3885.1032         1477 
   37400   0.67358716   -6.9645578    3892.0165         1476 
   37500   0.67107759   -6.9852633    3885.3144         1451 
   37600   0.66821624   -6.9653308    3886.5001         1459 
   37700    0.6728313   -6.9754479    3885.1429         1431 
   37800   0.67577965   -6.9879671    3882.0662         1420 
   37900   0.66933256   -6.9913552    3888.1472         1409 
   38000   0.67118152   -6.9687454    3888.5727         1410 
   38100   0.66469893   -6.9747363    3872.3076         1400 
   38200   0.66468095   -6.9826264    3881.7018         1447 
   38300   0.67843836   -6.9862071    3896.5439         1440 
   38400   0.65265215   -6.9731284    3886.9566         1450 
   38500   0.66325164   -6.9878056    3888.3042         1444 
   38600   0.66481061    -6.965275    3892.0196         1437 
   38700   0.67857171   -6.9820378    3890.8081         1425 
   38800   0.67142565   -6.9950693    3885.5769         1412 
   38900   0.66452162   -6.9895268    3877.0322         1428 
   39000   0.66079798   -6.9997461    3869.8157         1470 
   39100   0.66885482   -6.9950107     3880.844         1531 
   39200   0.66838859   -6.9811934    3886.2572         1465 
   39300   0.67269525    -6.975743    3883.5777         1424 
   39400   0.66658538   -6.9948148    3874.0365         1510 
   39500   0.65361146   -6.9984444    3883.3923         1509 
   39600   0.66998172   -6.9916194    3893.3876         1414 
   39700   0.66455821   -6.9759808    3875.3034         1524 
   39800   0.67187477    -7.011296    3874.5388         1524 
   39900    0.6826247   -6.9947721    3885.1662         1473 
   40000   0.66563804   -6.9714207    3880.8047         1478 
   40100   0.66357942    -7.010981    3880.8381         1506 
   40200   0.66620592   -7.0072824    3881.0506         1489 
   40300   0.66422231   -6.9893529    3885.5845         1422 
   40400   0.68439923   -6.9651304    3880.4854         1456 
   40500   0.68434761   -6.9954761    3876.2015         1585 
   40600   0.66861114   -7.0046143    3880.8812         1614 
   40700   0.67757831   -6.9835054    3886.0121         1657 
   40800   0.66416838   -6.9724668    3877.7687         1656 
   40900   0.66809959   -7.0014706    3881.4321         1647 
   41000   0.68429458   -6.9936376    3889.4633         1588 
   41100   0.66456052   -6.9714877    3879.2741         1590 
   41200    0.6735275   -7.0037196     3880.723         1667 
   41300   0.67029293   -7.0320617    3878.3394         1673 
   41400   0.68064378   -7.0041795    3875.9349         1683 
   41500   0.68225721   -7.0033516    3866.2518         1711 
   41600   0.67459255   -7.0184006    3863.8541         1728 
   41700   0.67204813   -7.0217714    3873.7475         1711 
   41800   0.67626876   -7.0006023    3877.4562         1713 
   41900   0.67037917   -7.0140121    3877.8413         1712 
   42000   0.66823438   -7.0182819    3876.0723         1715 
   42100   0.66774111   -6.9926841    3871.0191         1741 
   42200   0.66539614   -7.0296686    3870.0537         1677 
   42300   0.66419298   -7.0098764    3873.1068         1709 
   42400   0.67053183   -7.0018394     3880.528         1666 
   42500   0.66506891   -7.0279325    3881.1846         1711 
   42600   0.66634094   -7.0162478    3877.2241         1705 
   42700   0.66484772   -6.9955122    3867.6867         1682 
   42800   0.66961484   -7.0141877    3879.2166         1743 
   42900   0.65147051   -7.0111584    3885.8201         1746 
   43000   0.67885742   -7.0002376      3875.69         1735 
   43100   0.67096547   -7.0179482    3865.7922         1710 
   43200   0.66112304   -7.0115286    3868.3342         1695 
   43300   0.67438902    -7.013818    3882.5626         1739 
   43400    0.6687518   -7.0114948    3883.5412         1737 
   43500   0.66269777   -7.0232076    3876.1361         1758 
   43600   0.68009839    -7.000682    3869.8829         1825 
   43700   0.67674725   -6.9963234    3879.6897         1827 
   43800   0.65412613   -6.9962907    3876.1647         1820 
   43900   0.67439177   -7.0091965    3868.9741         1872 
   44000    0.6584938   -6.9918076    3871.2907         1815 
   44100   0.66630542   -7.0019054    3889.5522         1850 
   44200   0.66311288   -7.0184936    3880.9006         1915 
   44300   0.66798578   -7.0247646    3870.6915         1888 
   44400   0.68921258    -7.028599    3865.8272         1840 
   44500   0.67411807   -7.0239234    3873.2615         1876 
   44600   0.66891108   -6.9876793    3876.4018         1965 
   44700   0.66454698    -7.021808    3868.9765         1933 
   44800   0.67178636   -7.0163408    3868.4129         1936 
   44900   0.67262514   -7.0401411    3883.7309         1909 
   45000   0.66555278   -7.0220521    3868.4762         1934 
   45100   0.65914308    -7.027765    3862.6162         2004 
   45200   0.67047657   -7.0183616    3866.7378         2060 
   45300   0.67634579   -7.0126796    3875.7592         2035 
   45400   0.66496459   -7.0492967    3878.1371         1976 
   45500    0.6742585   -7.0333603    3867.2075         1996 
   45600   0.68425768   -7.0011833    3873.6663         2007 
   45700   0.66912107   -7.0110702    3876.0577         1933 
   45800   0.67608506   -7.0363399     3869.579         2003 
   45900   0.66973863   -7.0454823    3866.5027         1999 
   46000     0.672149    -7.028875    3867.4763         1991 
   46100   0.69112461   -7.0201376    3863.6639         2005 
   46200   0.67105043   -7.0360591    3868.4904         1945 
   46300   0.68184439   -7.0394239    3870.5299         2067 
   46400   0.65913957   -7.0378753    3860.7258         2040 
   46500   0.67776996   -7.0486779    3869.7078         2027 
   46600   0.67217076   -7.0211018    3863.0457         2066 
   46700   0.67046002   -7.0465353    3860.8272         2105 
   46800   0.66454161   -7.0598023    3860.2302         2139 
   46900   0.66868028   -7.0428586    3870.7422         2138 
   47000   0.67230622   -7.0174298    3868.8642         2094 
   47100   0.67168988   -7.0508975    3860.7255         2199 
   47200   0.67828037   -7.0535673    3858.6143         2248 
   47300    0.6631802   -7.0706981    3863.9242         2240 
   47400   0.68524686   -7.0742149    3864.4643         2225 
   47500   0.70213953   -7.0373069    3853.7077         2258 
   47600   0.67412553   -7.0308108    3855.6279         2201 
   47700   0.66329465   -7.0541759    3861.9376         2232 
   47800   0.66046454   -7.0464281    3851.9238         2253 
   47900   0.67918535   -7.0403124     3861.884         2182 
   48000   0.67682627   -7.0368312    3856.5294         2205 
   48100   0.67010069     -7.05842    3859.3269         2230 
   48200   0.66878672   -7.0403104    3865.2385         2259 
   48300    0.6665765   -7.0528824     3867.399         2299 
   48400   0.66994274   -7.0747049    3865.3762         2313 
   48500   0.67665407   -7.0542297    3852.4246         2297 
   48600   0.66365153   -7.0471388    3855.3915         2257 
   48700   0.66401491   -7.0438485    3872.4497         2259 
   48800   0.66062991   -7.0398345    3869.3326         2323 
   48900   0.65911676   -7.0630671    3865.0084         2331 
   49000   0.67737712   -7.0662406     3860.278         2385 
   49100   0.67061498   -7.0496658    3862.1744         2420 
   49200   0.65882528   -7.0653944    3864.3756         2327 
   49300   0.67323138   -7.0698074    3860.6327         2382 
   49400   0.67053097   -7.0742517    3849.3087         2419 
   49500    0.6557262   -7.0644538    3853.0461         2403 
   49600   0.66154316   -7.0676604    3862.5157         2396 
   49700   0.67598765   -7.0496105    3863.6593         2314 
   49800   0.67832528   -7.0473863    3854.8076         2356 
   49900   0.66304867   -7.0642331     3852.301         2342 
   50000   0.67832353   -7.0643858    3857.5477         2343 
   50100   0.68117109    -7.065809    3856.2431         2437 
   50200   0.66808357   -7.0754098    3860.7352         2451 
   50300   0.66705113   -7.0510884    3863.9184         2450 
   50400   0.67686275   -7.0348972    3870.2198         2471 
   50500   0.67092372   -7.0470246    3876.1672         2383 
   50600   0.67796497   -7.0566326    3846.5361         2392 
   50700   0.66183646   -7.0558124    3850.2097         2392 
   50800   0.66427233   -7.0514581    3859.8706         2453 
   50900   0.66671124   -7.0610506    3861.1724         2467 
   51000   0.66313987   -7.0615931    3849.4986         2465 
   51100   0.67608129    -7.060715    3855.2887         2522 
   51200   0.68074823   -7.0675503    3866.2433         2490 
   51300   0.66744914   -7.0515606    3859.8016         2561 
   51400   0.67225459   -7.0762983    3850.5261         2563 
   51500   0.67441178    -7.093951    3851.0044         2565 
   51600   0.66634001   -7.0923072    3850.0908         2549 
   51700   0.66866788   -7.0767845    3863.0404         2598 
   51800   0.66218666   -7.0832656    3849.2645         2595 
   51900    0.6730441    -7.082118    3843.7946         2600 
   52000    0.6707581   -7.0776464    3861.5175         2565 
   52100   0.66700694   -7.0634902    3867.0218         2549 
   52200   0.67123715   -7.0767572    3850.0148         2643 
   52300   0.66814126   -7.0965069    3843.9415         2648 
   52400    0.6628171   -7.0906329    3855.3061         2640 
   52500    0.6785966   -7.0924211    3861.7447         2610 
   52600   0.66361079   -7.0809275    3850.8918         2642 
   52700   0.67044403   -7.0716252    3835.3782         2707 
   52800    0.6936609   -7.0939548    3846.3724         2722 
   52900   0.67693177   -7.1070791     3850.406         2705 
   53000   0.68023644   -7.1058815    3843.2605         2737 
   53100    0.6776147   -7.0969726    3846.8278         2676 
   53200   0.66829692   -7.0845985    3855.3301         2662 
   53300   0.66539399   -7.1178629    3849.1223         2694 
   53400   0.67238187   -7.1027677    3851.1834         2677 
   53500   0.67846567   -7.0930157    3847.6479         2724 
   53600   0.65872223   -7.0996513    3836.9845         2747 
   53700   0.67325087   -7.1196984    3854.3731         2714 
   53800   0.66935304   -7.0880306    3844.3331         2710 
   53900   0.66184579   -7.0973354    3840.5106         2701 
   54000   0.68259243   -7.1119382     3853.071         2747 
   54100   0.67846962   -7.1150253    3848.8832         2742 
   54200   0.67146315    -7.100678    3835.4308         2775 
   54300   0.68142168   -7.1134614    3842.0071         2743 
   54400   0.66499034   -7.1340222    3846.9165         2691 
   54500   0.67370733   -7.1169965    3839.6867         2737 
   54600   0.66618339   -7.1102004    3844.3367         2703 
   54700   0.66874609   -7.0850879    3848.3697         2682 
   54800   0.66761385   -7.1137891    3854.2854         2696 
   54900   0.66732954   -7.1069277    3830.9862         2760 
   55000   0.68185592   -7.1234871    3837.6998         2743 
   55100   0.67612394   -7.1107691    3848.7404         2723 
   55200    0.6647923   -7.1108005    3845.8311         2788 
   55300    0.6618444   -7.1374421    3838.4303         2797 
   55400   0.67629827   -7.1471722    3842.6118         2816 
   55500   0.67431231   -7.1284204    3838.9326         2804 
   55600   0.66651282   -7.1267917    3842.1958         2795 
   55700   0.67130771   -7.1148665    3831.6982         2757 
   55800   0.68175689   -7.1318886    3841.2422         2741 
   55900   0.66048644   -7.1348074    3847.2465         2800 
   56000   0.67546768     -7.11284    3827.0996         2829 
   56100     0.671955   -7.1447045    3838.6139         2811 
   56200   0.65725413   -7.1473351    3831.2812         2819 
   56300   0.66695938   -7.1459786    3837.2817         2866 
   56400   0.67170898   -7.1255979    3844.3898         2872 
   56500   0.66324323   -7.1021903    3836.5121         2906 
   56600   0.66305227   -7.1446893    3841.2472         2914 
   56700   0.66386305   -7.1390908    3845.6075         2905 
   56800   0.66734162   -7.1432046    3838.0433         2883 
   56900   0.67012839   -7.1371445    3824.6578         2904 
   57000    0.6948807   -7.1491026    3820.4004         2941 
   57100    0.6637191   -7.1402538    3840.8034         2891 
   57200   0.67343723   -7.1481632    3835.0696         2884 
   57300   0.67562759   -7.1523489    3829.7767         2886 
   57400   0.68551102   -7.1287113    3837.9342         2823 
   57500   0.66447872   -7.1569044     3844.646         2834 
   57600    0.6686921   -7.1519579    3839.4991         2870 
   57700   0.66687589   -7.1398004    3832.1595         2877 
   57800    0.6634441   -7.1558766    3832.5275         2900 
   57900   0.68544899    -7.148149    3831.0454         2888 
   58000   0.68137553   -7.1785466    3827.8629         2923 
   58100   0.66974394   -7.1719468    3822.3455         2948 
   58200   0.67780619   -7.1452837    3830.4266         2960 
   58300   0.66379281   -7.1597324    3841.0035         2958 
   58400   0.66421489   -7.1736514    3835.9459         2958 
   58500   0.67896607   -7.1616689    3818.3591         2977 
   58600   0.69356006   -7.1958746    3819.8381         3056 
   58700   0.68192765   -7.1923866    3815.3046         3089 
   58800   0.68418352   -7.1962442    3826.3544         3017 
   58900   0.67290137   -7.1696203    3833.8399         2971 
   59000   0.66465646   -7.1816643    3818.1308         3024 
   59100   0.68062218    -7.178725     3822.147         2995 
   59200   0.67456679   -7.1733749    3826.3586         3018 
   59300   0.66433216   -7.1964185    3825.3998         3005 
   59400   0.67503753   -7.1892242    3824.4716         2979 
   59500   0.67635073   -7.1589226    3811.3319         3020 
   59600   0.67177651    -7.181962    3816.5199         3015 
   59700   0.67544815   -7.2063995    3825.8368         3051 
   59800   0.67418447   -7.1676391    3823.3332         3060 
   59900   0.67738591   -7.1816697     3828.296         3054 
   60000   0.67097166   -7.1982098    3824.3002         3042 
   60100   0.67694886   -7.1707825    3812.7277         3061 
   60200   0.67033484   -7.1621476    3818.0679         3046 
   60300   0.66739296   -7.1910078    3821.8151         3052 
   60400   0.67783939   -7.2013762    3829.7239         3107 
   60500   0.67893709   -7.1545342    3827.4002         3072 
   60600   0.67953971   -7.1866008    3818.5532         3056 
   60700   0.66585175   -7.1897156    3818.6309         3068 
   60800   0.68388459   -7.1919142    3818.9993         3112 
   60900   0.67368699   -7.1657004    3820.2229         3088 
   61000   0.67059996   -7.2123252    3824.5474         3097 
   61100   0.67202377   -7.2066129    3815.6622         3170 
   61200   0.65964856   -7.1900171    3809.6343         3112 
   61300     0.679878   -7.2029981    3817.3665         3156 
   61400   0.67246673   -7.2059314     3811.438         3166 
   61500   0.67316249   -7.2292621    3813.3677         3167 
   61600   0.67850497   -7.2021713    3810.1089         3142 
   61700   0.67358372   -7.1995946    3805.8346         3164 
   61800   0.66152344   -7.2156326    3821.5505         3115 
   61900   0.67439509   -7.2116422    3829.4148         3074 
   62000   0.66552432   -7.2038512    3813.1605         3097 
   62100   0.66991845   -7.2340251    3802.0406         3173 
   62200   0.65975348   -7.2325533    3805.5627         3226 
   62300   0.66817739   -7.2094814    3814.7691         3183 
   62400   0.67324161   -7.2048745    3821.5545         3158 
   62500   0.65107463   -7.1908481    3817.5429         3157 
   62600   0.65936148   -7.2176455    3810.6612         3190 
   62700    0.6802929   -7.2116199    3818.5993         3168 
   62800   0.67536162   -7.2056773    3817.1255         3195 
   62900   0.67786896   -7.2270891    3811.7385         3211 
   63000   0.67569852    -7.228899    3804.2975         3238 
   63100   0.67242488   -7.2535639    3813.7045         3186 
   63200   0.68819782   -7.2270526    3818.8727         3199 
   63300   0.67340791   -7.2104018    3803.4902         3199 
   63400    0.6759396   -7.2386932    3800.8765         3228 
   63500   0.66409188   -7.2338472    3812.1264         3255 
   63600   0.68721463   -7.2228781    3816.3808         3257 
   63700   0.68338899   -7.2113509     3805.717         3267 
   63800   0.66923782   -7.2369088    3815.2455         3292 
   63900   0.65712891   -7.2381284    3807.4768         3276 
   64000   0.66833877   -7.2306886    3807.5983         3306 
   64100   0.67780055   -7.2394767    3811.4808         3318 
   64200   0.67794785   -7.2276182    3806.3131         3296 
   64300   0.66754275   -7.2259356    3799.2742         3263 
   64400   0.66195285   -7.2400114    3811.9013         3275 
   64500     0.670825   -7.2179117    3814.0226         3304 
   64600   0.67705295    -7.245851    3808.8138         3306 
   64700   0.66672745   -7.2376576    3797.7947         3328 
   64800   0.67182618   -7.2135475    3811.7823         3275 
   64900   0.67222278   -7.2405706    3818.9717         3314 
   65000   0.67269852   -7.2331283    3802.1425         3366 
   65100   0.66581516   -7.2400482    3792.3761         3338 
   65200   0.67098322     -7.24216    3808.8008         3338 
   65300    0.6675707   -7.2435738    3814.5362         3336 
   65400   0.67426687   -7.2542017    3801.9893         3364 
   65500    0.6557931   -7.2439043    3796.5293         3361 
   65600   0.67552312   -7.2476223    3815.7123         3315 
   65700   0.67940313   -7.2507128    3805.2051         3375 
   65800   0.66186762   -7.2448958    3801.3214         3413 
   65900     0.665744   -7.2306383    3808.4388         3405 
   66000   0.67060995    -7.241794     3805.578         3423 
   66100   0.65560608   -7.2510359    3796.0359         3429 
   66200   0.65784542   -7.2608377     3814.874         3422 
   66300   0.67184224   -7.2500167    3812.8038         3433 
   66400    0.6777552   -7.2354293    3796.4086         3412 
   66500   0.66873475   -7.2543853    3797.6772         3427 
   66600   0.65102561   -7.2480352    3806.8212         3434 
   66700   0.66763454   -7.2386858    3808.0052         3469 
   66800   0.67913974   -7.2521667    3803.6508         3483 
   66900   0.67602325   -7.2434596    3793.0773         3470 
   67000   0.66148779   -7.2692926    3799.0387         3497 
   67100   0.66301073   -7.2729436    3799.7215         3473 
   67200   0.66505306   -7.2358745    3800.8544         3473 
   67300   0.66522734   -7.2645547    3801.6796         3434 
   67400   0.67130481   -7.2702196    3798.8544         3458 
   67500   0.66745407   -7.2614978    3795.2004         3481 
   67600   0.68601394   -7.2746698    3794.2034         3502 
   67700   0.67702447   -7.2673898    3783.4866         3525 
   67800   0.67017338   -7.2855254    3792.7516         3493 
   67900   0.67532983   -7.2684561    3804.1188         3481 
   68000   0.66579211   -7.2777027    3804.9283         3475 
   68100   0.66979535   -7.2870738    3794.7102         3474 
   68200   0.68067593   -7.2570696    3783.5394         3476 
   68300   0.66751097   -7.2808002    3798.4848         3443 
   68400   0.65406666   -7.2916337    3799.4435         3504 
   68500   0.66099118   -7.2582724     3794.815         3520 
   68600   0.67485138   -7.2664208    3798.3275         3519 
   68700   0.67316244   -7.2823641    3790.5478         3510 
   68800    0.6647484   -7.2750455    3797.5831         3501 
   68900   0.67201528   -7.2813254    3797.7964         3493 
   69000   0.67423852   -7.2968418    3792.6152         3540 
   69100   0.67362358    -7.271031    3779.9252         3535 
   69200   0.67066943   -7.2732827    3802.7669         3529 
   69300   0.66190343   -7.2977436    3792.6878         3579 
   69400   0.63665842   -7.2678669    3786.0328         3574 
   69500   0.66748198   -7.2869361    3792.9861         3624 
   69600   0.67463845   -7.2914419    3789.5492         3644 
   69700   0.65899194   -7.3032379    3784.9574         3640 
   69800   0.66902007   -7.2865228    3790.3002         3632 
   69900   0.68166479   -7.2976589    3791.8897         3651 
   70000   0.65637557    -7.283198    3780.2914         3655 
   70100   0.68852872    -7.307919    3788.4934         3662 
   70200   0.67097929   -7.3025091    3790.3269         3615 
   70300   0.66581582   -7.2961007    3788.9836         3637 
   70400   0.66748063   -7.2916118    3794.4639         3652 
   70500   0.66114764   -7.3014832    3783.9154         3643 
   70600   0.65451259    -7.318146    3776.7571         3634 
   70700   0.66776244    -7.340585    3785.9221         3668 
   70800   0.66692632   -7.3002328    3788.0146         3700 
   70900   0.67942831   -7.3104253    3783.4972         3725 
   71000    0.6538635   -7.3026128    3780.4785         3684 
   71100   0.66931372   -7.3270199    3784.3265         3674 
   71200   0.67077336   -7.3461047    3792.7069         3697 
   71300     0.683319   -7.3117114    3783.4752         3683 
   71400   0.67148283   -7.3055857    3772.8754         3701 
   71500   0.66759026   -7.3269479    3781.9976         3736 
   71600   0.67822532   -7.3043704    3789.6462         3764 
   71700   0.67781539    -7.328007    3776.6522         3765 
   71800   0.65860793   -7.3310691    3776.7815         3735 
   71900   0.67434592   -7.3209611    3790.0638         3757 
   72000   0.67775908   -7.3247962    3773.1034         3783 
   72100   0.67800049   -7.3412223    3776.0641         3805 
   72200   0.65607085   -7.3327503    3780.2742         3796 
   72300   0.66706347   -7.3460551     3788.845         3765 
   72400   0.67190513   -7.3208644    3783.6839         3798 
   72500   0.66666419   -7.3336961    3778.2323         3808 
   72600   0.66955563   -7.3485838     3778.462         3777 
   72700   0.68003865   -7.3191519    3780.5242         3797 
   72800   0.67680159   -7.3154988    3770.2637         3789 
   72900   0.66019625   -7.3347439    3782.6476         3808 
   73000   0.67709528   -7.3385807    3785.8925         3784 
   73100   0.66240023   -7.3448637    3771.9852         3787 
   73200   0.66494327   -7.3416954    3775.9184         3800 
   73300   0.66623656   -7.3271074    3780.0832         3796 
   73400   0.66333688    -7.329088    3782.1751         3764 
   73500   0.68021081   -7.3475148    3779.1207         3769 
   73600   0.66574891   -7.3534489     3776.445         3808 
   73700   0.66907577   -7.3271131    3774.6897         3777 
   73800   0.67271294   -7.3263906     3789.191         3757 
   73900   0.66129966   -7.3417176    3788.2771         3779 
   74000   0.66005605   -7.3298554    3765.3872         3796 
   74100   0.67655621   -7.3406852    3777.0861         3807 
   74200   0.67073109   -7.3261023    3784.2356         3777 
   74300   0.67140836   -7.3486525    3786.7684         3757 
   74400   0.66367822   -7.3448816    3771.1167         3778 
   74500   0.66638403   -7.3405312    3769.0783         3783 
   74600   0.68305442   -7.3599179    3777.6909         3793 
   74700   0.66940335   -7.3407605    3769.7712         3823 
   74800   0.66994508   -7.3487668    3774.9942         3805 
   74900   0.65114141   -7.3368214    3772.1754         3791 
   75000   0.67632565    -7.337457    3773.8836         3791 
   75100   0.69030093    -7.344383    3787.8954         3747 
   75200   0.67190087   -7.3431844    3777.1597         3773 
   75300   0.67284566   -7.3661387    3767.4829         3819 
   75400   0.67394688   -7.3696958      3768.63         3807 
   75500   0.66507689   -7.3450696    3769.9123         3798 
   75600   0.67946113   -7.3627942    3774.4081         3801 
   75700    0.6667523   -7.3668673    3762.4646         3811 
   75800   0.67340935   -7.3679699    3764.6625         3803 
   75900   0.68213584   -7.3608936    3776.5097         3834 
   76000   0.66171406   -7.3636143     3770.777         3847 
   76100   0.67522529   -7.3754963    3767.7814         3833 
   76200   0.67794977   -7.3634488    3760.3781         3818 
   76300    0.6666368   -7.3764603     3778.641         3846 
   76400   0.65899063   -7.3809666    3764.2101         3834 
   76500   0.68779201   -7.3726242    3752.8916         3836 
   76600   0.68398506   -7.3620538    3769.7628         3827 
   76700   0.66652324   -7.3768303    3768.7848         3869 
   76800    0.6639139   -7.3753351    3771.3297         3856 
   76900   0.66749475   -7.3616899      3771.03         3850 
   77000   0.67692095   -7.3576724    3761.8056         3871 
   77100   0.66948181   -7.3665433    3766.9478         3875 
   77200   0.66460537   -7.3681363    3766.5453         3857 
   77300   0.66382626   -7.3845914    3761.9947         3860 
   77400   0.68547081   -7.3725164    3764.7074         3874 
   77500   0.68004349   -7.3615646    3765.2411         3847 
   77600   0.67086882   -7.3929429    3768.1524         3857 
   77700   0.67569949   -7.3870488    3773.2038         3856 
   77800   0.67034895   -7.3734211    3762.6023         3873 
   77900    0.6715638   -7.3954175    3760.1417         3870 
   78000   0.67923429   -7.3656427     3765.958         3840 
   78100   0.66963262   -7.3676872    3768.6582         3854 
   78200   0.66850201   -7.3924361    3767.3301         3873 
   78300   0.65723609   -7.3902024    3768.8275         3885 
   78400   0.66360149   -7.3588576    3771.9087         3890 
   78500   0.67026371   -7.3557299     3758.697         3870 
   78600   0.64942537   -7.3865252    3767.2063         3888 
   78700   0.65344138   -7.3722548    3773.8683         3901 
   78800   0.67888035   -7.3869454    3774.7335         3902 
   78900   0.67486282   -7.3693835    3761.5745         3891 
   79000   0.65464021   -7.3840917    3764.7946         3897 
   79100   0.66004264   -7.3763613    3776.7377         3873 
   79200   0.66173876   -7.3555979    3764.0257         3895 
   79300   0.66733133   -7.4045547    3758.6504         3885 
   79400   0.66187011   -7.3873527    3769.8504         3882 
   79500    0.6738328   -7.3960179    3762.8996         3878 
   79600    0.6667795   -7.3817083    3758.3924         3883 
   79700   0.67877973    -7.380618    3757.8132         3880 
   79800   0.65210763    -7.385924    3758.7218         3873 
   79900   0.66993283   -7.3993004    3764.5853         3907 
   80000   0.67651767   -7.3709212     3766.213         3890 
   80100   0.68183636   -7.3699458    3765.6501         3903 
   80200   0.67471006   -7.3897256    3761.2112         3903 
   80300   0.67043389   -7.4100956    3764.5158         3894 
   80400   0.67003221    -7.388118    3760.5559         3888 
   80500   0.68123831   -7.3701841    3759.3632         3901 
   80600   0.65420122   -7.3701949    3763.1987         3909 
   80700   0.67393097    -7.408088    3772.3232         3908 
   80800   0.66256324   -7.3984465    3754.6261         3907 
   80900   0.66275345   -7.3910995     3756.294         3898 
   81000   0.66614457   -7.3907792    3769.4722         3902 
   81100   0.67032706   -7.4039012    3762.3415         3905 
   81200   0.67452402   -7.3903172    3749.9145         3904 
   81300   0.68573911   -7.3788988    3766.5243         3911 
   81400   0.67586155   -7.4063762    3762.9367         3900 
   81500   0.65788417   -7.3951083    3758.8892         3885 
   81600   0.67859677   -7.3827003    3758.3225         3911 
   81700   0.67311178   -7.3944847    3757.5838         3931 
   81800   0.66154851   -7.4005673    3758.8161         3955 
   81900   0.67551559    -7.386948    3759.2956         3919 
   82000   0.68551429   -7.3679341    3759.2388         3882 
   82100   0.67403006   -7.3977206    3764.3053         3907 
   82200   0.67078869   -7.3970978    3754.1176         3908 
   82300   0.66459269   -7.4149984     3751.156         3913 
   82400   0.67040197   -7.3965209    3759.8339         3914 
   82500    0.6608001   -7.3941815    3765.2542         3916 
   82600   0.66637331   -7.4079257    3764.9916         3899 
   82700   0.66511623   -7.3954983    3760.7577         3898 
   82800   0.66399664   -7.4020238    3742.5898         3909 
   82900   0.67966433   -7.4024367     3759.894         3899 
   83000   0.65994534   -7.4104263    3767.4936         3911 
   83100    0.6551906   -7.4146845    3753.4127         3919 
   83200   0.66561836   -7.4136469    3756.3125         3859 
   83300   0.67574113   -7.4143177    3761.6047         3863 
   83400   0.66381335   -7.4087219    3751.2953         3882 
   83500   0.68062608   -7.4023912    3756.3124         3891 
   83600   0.66426158   -7.3996629    3761.0509         3882 
   83700   0.66435912   -7.4236165    3754.7298         3872 
   83800   0.66726342   -7.3961383    3760.7425         3872 
   83900    0.6812828    -7.404543    3755.2993         3896 
   84000   0.66650577   -7.4075846    3757.8411         3905 
   84100    0.6647261   -7.4131508    3762.8199         3887 
   84200   0.67434825   -7.3818386    3751.5567         3913 
   84300   0.67372557   -7.3943064    3756.1615         3899 
   84400   0.67449832   -7.4249114    3760.6337         3891 
   84500   0.65923538   -7.4367722    3753.8038         3898 
   84600   0.66052444   -7.4085535      3753.01         3899 
   84700    0.6735829   -7.3949978    3759.6535         3920 
   84800   0.67779743   -7.4221133    3753.3503         3928 
   84900   0.67992065   -7.4199386    3752.0017         3933 
   85000   0.66503176   -7.4020459    3746.1058         3930 
   85100   0.66422646   -7.4543031    3747.8798         3919 
   85200   0.64494138   -7.4316017    3760.8455         3921 
   85300   0.67267985    -7.430864    3754.1229         3927 
   85400   0.68635038    -7.404324    3742.5026         3914 
   85500   0.67119445   -7.4100942    3755.0521         3927 
   85600   0.65586606   -7.4275749     3758.846         3911 
   85700   0.67587104   -7.4198368    3753.3238         3918 
   85800   0.65914771   -7.4164411    3753.2855         3928 
   85900   0.66872478   -7.4561188    3753.4727         3927 
   86000   0.67043926   -7.4099847    3746.7377         3920 
   86100    0.6792279   -7.4342941     3755.096         3921 
   86200   0.66479444   -7.4462964    3765.2755         3909 
   86300   0.66341702   -7.4090908    3754.6357         3921 
   86400   0.68039601   -7.4097064    3753.8181         3920 
   86500   0.65948766   -7.4161334    3751.0888         3926 
   86600   0.66436913   -7.4265077     3747.449         3933 
   86700   0.65236793   -7.4342598    3754.6009         3931 
   86800   0.67475844   -7.4261017    3748.2219         3941 
   86900     0.678128   -7.4273385    3754.4075         3927 
   87000    0.6712918   -7.4287258    3750.9731         3941 
   87100   0.67242796   -7.4348461    3748.2566         3929 
   87200   0.68005407   -7.4253799    3754.7576         3914 
   87300   0.66940604   -7.4162285    3750.2618         3911 
   87400   0.66814731    -7.429374    3736.4619         3904 
   87500   0.67430559   -7.4235993    3754.3829         3903 
   87600   0.66762755   -7.4460443    3767.3714         3891 
   87700   0.67584308   -7.4482045    3747.1847         3893 
   87800   0.65711555   -7.4329834    3739.4967         3929 
   87900   0.66989581    -7.434738    3758.1513         3910 
   88000   0.67065976   -7.4215908    3748.5791         3921 
   88100   0.66080967   -7.4387799    3748.9307         3899 
   88200   0.67606717   -7.4288317    3747.2981         3919 
   88300   0.68020234   -7.4350277    3751.1256         3913 
   88400   0.66889085   -7.4456738    3745.6702         3911 
   88500   0.66132511   -7.4375278    3743.0311         3925 
   88600   0.66767881   -7.4333826    3761.2252         3925 
   88700   0.65953761   -7.4267186    3762.9532         3922 
   88800   0.65878252   -7.4206417     3740.451         3909 
   88900   0.67296198   -7.4386688    3744.4984         3903 
   89000   0.68279208    -7.440141    3751.5928         3898 
   89100   0.67394378   -7.4180341    3746.4941         3917 
   89200   0.66337807   -7.4401085    3749.7832         3922 
   89300   0.67286062   -7.4218363    3754.6895         3900 
   89400   0.66393511   -7.4161881    3757.7432         3902 
   89500   0.66090137   -7.4473311    3756.9838         3886 
   89600    0.6633883   -7.4253381    3744.9553         3887 
   89700   0.67616588   -7.4235481    3749.3912         3890 
   89800   0.67968115   -7.4141643    3754.9785         3906 
   89900   0.67084151   -7.4557296    3751.9585         3914 
   90000   0.67169642   -7.4424793    3740.1816         3914 
   90100   0.68648308    -7.425053    3750.5382         3919 
   90200   0.66226259    -7.434558    3749.0772         3926 
   90300    0.6560056   -7.4539688    3750.4959         3930 
   90400   0.67577547   -7.4306846     3744.687         3934 
   90500   0.67853262   -7.4474202    3747.9258         3914 
   90600   0.66613743   -7.4603047    3735.3719         3945 
   90700   0.67917053   -7.4622651     3741.661         3928 
   90800   0.66369198   -7.4445244    3746.7651         3925 
   90900   0.66763169   -7.4431192    3744.9566         3923 
   91000   0.66514374   -7.4584372    3736.7547         3918 
   91100   0.66423959   -7.4862514    3748.8996         3930 
   91200   0.66275777   -7.4456914    3743.5654         3941 
   91300   0.67779643    -7.460035    3751.2948         3925 
   91400   0.65818092   -7.4679558    3743.3938         3938 
   91500   0.66805868   -7.4658192    3736.9529         3938 
   91600   0.66905366   -7.4657178    3742.2462         3941 
   91700   0.67801052   -7.4528688     3745.692         3953 
   91800   0.66901955   -7.4593596    3738.0204         3932 
   91900   0.66309334   -7.4702459    3734.8866         3938 
   92000   0.67635191   -7.4789848    3755.1979         3916 
   92100   0.67418768   -7.4427792    3742.5264         3939 
   92200   0.67699724   -7.4804065    3733.1728         3933 
   92300   0.67557267   -7.4999383    3748.7718         3939 
   92400    0.6811186   -7.4587131    3746.2129         3952 
   92500   0.67352644    -7.465582    3734.3423         3945 
   92600   0.66586387   -7.4831723    3737.7899         3934 
   92700   0.67241241    -7.468357    3749.4683         3938 
   92800   0.66860114    -7.469435    3739.5256         3945 
   92900     0.678072   -7.5010484    3734.6486         3939 
   93000   0.67346902   -7.4612166    3733.4309         3937 
   93100   0.67224387   -7.4747056    3740.6963         3938 
   93200   0.66063587   -7.4938894    3731.7223         3938 
   93300   0.67119563   -7.4982737    3738.0956         3942 
   93400   0.68074809   -7.4680205    3734.0979         3947 
   93500   0.66021846   -7.4435166    3734.7269         3937 
   93600   0.65360075   -7.4917045    3744.7362         3951 
   93700   0.67151594   -7.4791271    3735.6376         3956 
   93800   0.67044128   -7.4725446    3732.2999         3946 
   93900   0.66988846   -7.4710849    3736.2389         3943 
   94000   0.66147677   -7.4840789    3738.0268         3954 
   94100   0.67462623   -7.4676375    3737.6069         3937 
   94200    0.6645929   -7.4727526    3741.9328         3930 
   94300   0.67963237   -7.4966172    3737.0524         3936 
   94400    0.6531793   -7.4689156    3731.4898         3942 
   94500   0.67212863    -7.493878    3742.8561         3940 
   94600   0.67402789   -7.4900507    3733.9215         3941 
   94700   0.67828676   -7.4788983    3729.7905         3947 
   94800   0.67250301   -7.4780619    3742.2136         3933 
   94900   0.65924016   -7.4793267    3733.0669         3937 
   95000   0.67194472   -7.4984522    3734.4607         3926 
   95100   0.66929725   -7.4978974     3725.061         3948 
   95200   0.66950695   -7.4762753    3736.4122         3952 
   95300    0.6700125   -7.4904579    3746.2123         3956 
   95400   0.66037639   -7.4960726    3742.2246         3951 
   95500    0.6630575   -7.4800248    3727.3709         3957 
   95600   0.67777101   -7.4903132    3738.0965         3953 
   95700   0.67019733   -7.4901746     3733.721         3953 
   95800   0.66647873    -7.490366    3727.0573         3958 
   95900   0.67847502   -7.4898016    3736.7888         3947 
   96000   0.67662629   -7.4934636    3742.5187         3955 
   96100   0.66149883   -7.4985712    3724.9065         3960 
   96200   0.67880071   -7.5089516    3735.2871         3956 
   96300   0.68712723   -7.4795252    3742.5534         3954 
   96400   0.67560751   -7.4872014    3728.3722         3956 
   96500   0.66262571   -7.4956344    3723.4524         3963 
   96600   0.68620842   -7.5150652    3731.0218         3957 
   96700   0.68336064   -7.4883941    3729.9328         3962 
   96800   0.68160896   -7.5145534    3724.8939         3961 
   96900   0.66378258   -7.5112275    3729.1896         3956 
   97000   0.67495679   -7.5001833    3738.8948         3963 
   97100   0.67485306   -7.5178754    3730.0101         3972 
   97200   0.67011718   -7.5073141    3718.5498         3964 
   97300   0.66922785   -7.4955979    3731.3352         3965 
   97400   0.67302007   -7.4993461    3738.3184         3970 
   97500    0.6681273   -7.5032859     3729.657         3954 
   97600   0.66815523   -7.4971306    3728.4144         3967 
   97700   0.67478643   -7.4884941    3731.0726         3962 
   97800   0.66332633   -7.5099381    3728.0272         3961 
   97900    0.6551597   -7.4995607    3734.6368         3955 
   98000   0.67208639   -7.5038228    3738.1743         3963 
   98100   0.66434117   -7.5183521    3717.2162         3971 
   98200   0.67026027    -7.511924    3723.8986         3965 
   98300   0.67877107    -7.515866    3735.8439         3971 
   98400    0.6644076   -7.5169385    3732.5065         3967 
   98500   0.66527406   -7.5064078    3723.9313         3973 
   98600   0.67443161   -7.5318277    3728.1843         3971 
   98700   0.67443242   -7.5032236    3728.9224         3957 
   98800   0.66248319   -7.5100657    3731.0885         3969 
   98900    0.6658113   -7.5292348    3734.9958         3969 
   99000   0.66980858    -7.503196     3731.174         3957 
   99100   0.68402546   -7.4865633    3718.6811         3969 
   99200   0.66888269   -7.5085628    3723.3814         3965 
   99300   0.66512683   -7.5223309    3740.9404         3967 
   99400   0.65822859    -7.509539    3730.3737         3961 
   99500    0.6629376   -7.5181483    3727.6594         3975 
   99600   0.67233895   -7.5178546    3729.0542         3957 
   99700   0.68470302   -7.4994107    3729.1561         3967 
   99800   0.66193374   -7.5000811    3730.4808         3961 
   99900    0.6724872   -7.5317425    3735.3372         3961 
  100000   0.65314168   -7.5287518    3726.2484         3970 
  100100   0.67004798   -7.5164617    3723.4716         3965 
  100200   0.67917326   -7.5257112    3727.7266         3956 
  100300   0.68933328    -7.515381    3730.9398         3958 
  100400   0.67035336   -7.5324198     3729.869         3960 
  100500    0.6823847   -7.5387683    3726.8039         3969 
  100600   0.68836946   -7.5215462    3724.3403         3966 
  100700   0.68418378   -7.5172026    3723.6595         3964 
  100800   0.65563635   -7.5165554     3722.808         3957 
  100900   0.66176993   -7.5114282    3735.3566         3969 
  101000   0.65981842   -7.5000667    3726.4424         3957 
  101100    0.6700775     -7.53966    3721.9089         3955 
  101200   0.67841644   -7.5184234    3731.5095         3959 
  101300   0.67664627   -7.5062121    3724.0055         3966 
  101400   0.65574856   -7.5115963     3718.737         3960 
  101500   0.66993057   -7.5331662    3735.1915         3962 
  101600   0.65544255   -7.5085454    3723.4698         3973 
  101700   0.68108427   -7.5203454    3728.9679         3978 
  101800   0.67115767   -7.5211143    3731.6311         3970 
  101900   0.66918587   -7.5425613     3719.238         3971 
  102000   0.65658849   -7.5289171    3726.7593         3973 
  102100   0.66374987   -7.5196192    3727.5371         3969 
  102200   0.67171701   -7.5270505    3727.0907         3959 
  102300   0.68272418   -7.5139358    3736.5706         3965 
  102400   0.66994896   -7.5109252    3730.2979         3973 
  102500   0.67416859   -7.5147266    3718.6003         3981 
  102600   0.66278194   -7.5265087    3719.9644         3973 
  102700   0.67973498   -7.5301671    3734.8034         3965 
  102800   0.67955784   -7.5320836     3724.066         3969 
  102900   0.65408534   -7.5263217    3717.5898         3968 
  103000   0.67111114   -7.5272151    3725.4323         3972 
  103100   0.67908303   -7.5209032    3731.6896         3972 
  103200   0.66863188   -7.5046611    3727.0348         3967 
  103300   0.65936561   -7.5348745    3729.8903         3972 
  103400   0.67065223   -7.5311463    3729.6352         3967 
  103500   0.67769187   -7.5092873    3727.9589         3967 
  103600   0.67538655   -7.5226876    3723.7665         3968 
  103700    0.6582384    -7.527263    3720.9276         3967 
  103800   0.67010274   -7.5166402    3724.1961         3968 
  103900   0.68492342    -7.517708    3732.1405         3966 
  104000   0.67278617   -7.5230108    3729.7366         3977 
Loop time of 112.689 on 64 procs for 100000 steps with 4000 atoms

Performance: 153341.920 tau/day, 887.395 timesteps/s
99.9% CPU use with 64 MPI tasks x no OpenMP threads

MPI task timing breakdown:
Section |  min time  |  avg time  |  max time  |%varavg| %total
---------------------------------------------------------------
Pair    | 7.7727     | 8.0861     | 8.4036     |   4.7 |  7.18
Neigh   | 0.90056    | 0.92791    | 0.95598    |   1.2 |  0.82
Comm    | 10.218     | 12.209     | 14.591     |  27.9 | 10.83
Output  | 6.3204     | 6.3218     | 6.3336     |   0.1 |  5.61
Modify  | 77.234     | 81.814     | 85.836     |  22.0 | 72.60
Other   |            | 3.331      |            |       |  2.96

Nlocal:        62.5000 ave          66 max          57 min
Histogram: 2 2 1 4 11 9 15 8 7 5
Nghost:        1556.89 ave        1574 max        1540 min
Histogram: 4 2 6 8 5 22 4 11 1 1
Neighs:        7604.39 ave        8193 max        6686 min
Histogram: 1 2 0 7 8 10 14 9 9 4
FullNghs:      15208.8 ave       16269 max       13624 min
Histogram: 2 2 1 4 10 9 18 8 3 7

Total # of neighbors = 973361
Ave neighs/atom = 243.34025
Neighbor list builds = 4886
Dangerous builds = 0

#clear
#
#next RN
#
#jump SELF
Total wall time: 0:01:53
