
units lj                  # Use reduced LJ style units
atom_style atomic         # Uncharged point particles
atom_modify map hash      # Needed for indexing of clusters etc
                          # Used to be able to find where atoms are in relation to each other.

lattice fcc 1.0 spacing 1 1 1
Lattice spacing in x,y,z = 1.5874011 1.5874011 1.5874011
region box block 0 10 0 10 0 10 units lattice
create_box 2 box
Created orthogonal box = (0.0000000 0.0000000 0.0000000) to (15.874011 15.874011 15.874011)
  3 by 4 by 4 MPI processor grid
create_atoms 1 box
Created 4000 atoms
  using lattice units in orthogonal box = (0.0000000 0.0000000 0.0000000) to (15.874011 15.874011 15.874011)
  create_atoms CPU = 0.002 seconds
set type 1 type/fraction 2 0.19 78393
Setting atom values ...
  784 settings made for type/fraction
mass 1 1.0
mass 2 1.0
pair_style lj/cut  3.5
pair_modify tail  yes
pair_coeff 1  1  1.0  1.0   # Intearaction between 1 and 1 set with epsilon = 1 and sigma = 1
pair_coeff 1  2  1.5  0.8
pair_coeff 2  2  0.5  0.88

write_data data.0
System init for write_data ...
Neighbor list info ...
  update every 1 steps, delay 10 steps, check yes
  max neighbors/atom: 2000, page size: 100000
  master list distance cutoff = 3.8
  ghost atom cutoff = 3.8
  binsize = 1.9, bins = 9 9 9
  1 neighbor lists, perpetual/occasional/extra = 1 0 0
  (1) pair lj/cut, perpetual
      attributes: half, newton on
      pair build: half/bin/atomonly/newton
      stencil: half/bin/3d
      bin: standard
WARNING: Not all mixed pair coeffs generated from mixing. Use write_data with 'pair ij' option to store all pair coeffs. (../write_data.cpp:312)


#############################
#   M E L T   S Y S T E M   #
#############################

velocity all create 2.4 6583654 mom yes dist gaussian # Assign velocities
                                                    # Temperature 2.4, random number seed, zero linear momentum
                                                                                # Gaussian distribution

timestep 0.002   # simulation timestep
thermo 1000       # output thermodynamic data every 1000 steps bf 100

# Define a fix  in this case with index 1 applied to all
# particles in the simulation. This fix is for simulations
# in the anisotropic NPT ensemble. Note that we use the MTK
# correction.
fix 1 all npt temp 2.4 2.4 0.1 iso 5.68 5.68 0.5 mtk yes tchain 5 pchain 5 # Use NPT ensemble
                                                                         # Set temperature and pressure and damping
                                                                         # Numbers of thermostats in chain and in barostat
run 10000          # run for 10000 steps
Per MPI rank memory allocation (min/avg/max) = 3.642 | 3.644 | 3.648 Mbytes
Step Temp E_pair E_mol TotEng Press Volume 
       0          2.4   -7.1181064            0   -3.5190064   -3.5570023         4000 
    1000    2.4083408   -4.8277392            0   -1.2161311     5.753051    4501.2481 
    2000     2.425441    -4.836126            0    -1.198874    5.5858272    4513.5218 
    3000    2.4306887   -4.7931925            0   -1.1480709    5.6258752    4538.6682 
    4000    2.4638919   -4.8233788            0   -1.1284649     5.775312    4503.2512 
    5000    2.3607087   -4.8513312            0   -1.3111535    5.6063346    4500.6736 
    6000    2.3498758   -4.8026236            0    -1.278691    6.0294709    4472.6394 
    7000    2.3919881   -4.8752957            0   -1.2882105    5.4931732    4498.3869 
    8000    2.4381796   -4.7640023            0   -1.1076472    5.6367706    4546.4496 
    9000    2.4153821   -4.8688798            0   -1.2467124    5.6540346    4487.5356 
   10000    2.3414738   -4.7948063            0   -1.2834736    5.7160542     4507.917 
Loop time of 2.28046 on 48 procs for 10000 steps with 4000 atoms

Performance: 757740.918 tau/day, 4385.075 timesteps/s
99.7% CPU use with 48 MPI tasks x no OpenMP threads

MPI task timing breakdown:
Section |  min time  |  avg time  |  max time  |%varavg| %total
---------------------------------------------------------------
Pair    | 0.95604    | 1.0344     | 1.1175     |   3.0 | 45.36
Neigh   | 0.19713    | 0.20506    | 0.22201    |   0.9 |  8.99
Comm    | 0.70006    | 0.7873     | 0.88112    |   3.6 | 34.52
Output  | 0.00025632 | 0.00026167 | 0.00032352 |   0.0 |  0.01
Modify  | 0.21856    | 0.23708    | 0.25742    |   2.2 | 10.40
Other   |            | 0.01636    |            |       |  0.72

Nlocal:        83.3333 ave          90 max          76 min
Histogram: 3 2 7 2 5 12 2 7 3 5
Nghost:        1517.73 ave        1548 max        1495 min
Histogram: 5 4 10 6 7 5 1 2 6 2
Neighs:        8452.33 ave        9698 max        7314 min
Histogram: 1 3 5 8 12 7 4 6 1 1

Total # of neighbors = 405712
Ave neighs/atom = 101.42800
Neighbor list builds = 907
Dangerous builds = 226

# Equilibrate just above the melting temperature to avoid step fn in T

fix 1 all npt temp 1.25 1.25 0.1 iso 5.68 5.68 0.5 mtk yes tchain 5 pchain 5
run 2000
Per MPI rank memory allocation (min/avg/max) = 3.642 | 3.645 | 3.649 Mbytes
Step Temp E_pair E_mol TotEng Press Volume 
   10000    2.3414738   -4.7948063            0   -1.2834736    5.7160542     4507.917 
   11000     1.259402   -6.4643018            0    -4.575671    5.8096544    3699.6091 
   12000    1.2163661   -6.5356332            0   -4.7115401    5.7282777    3671.7422 
Loop time of 0.508722 on 48 procs for 2000 steps with 4000 atoms

Performance: 679349.227 tau/day, 3931.419 timesteps/s
99.7% CPU use with 48 MPI tasks x no OpenMP threads

MPI task timing breakdown:
Section |  min time  |  avg time  |  max time  |%varavg| %total
---------------------------------------------------------------
Pair    | 0.22601    | 0.24729    | 0.28025    |   2.2 | 48.61
Neigh   | 0.032347   | 0.034846   | 0.038244   |   0.6 |  6.85
Comm    | 0.13554    | 0.17226    | 0.19938    |   3.1 | 33.86
Output  | 5.2836e-05 | 5.4003e-05 | 6.8125e-05 |   0.0 |  0.01
Modify  | 0.043963   | 0.049624   | 0.058772   |   1.8 |  9.75
Other   |            | 0.004647   |            |       |  0.91

Nlocal:        83.3333 ave          91 max          73 min
Histogram: 1 1 1 7 5 9 10 7 6 1
Nghost:        1743.54 ave        1772 max        1716 min
Histogram: 2 5 5 6 7 6 7 3 3 4
Neighs:        10415.2 ave       11776 max        9032 min
Histogram: 1 2 3 11 6 8 10 4 2 1

Total # of neighbors = 499928
Ave neighs/atom = 124.98200
Neighbor list builds = 142
Dangerous builds = 10

#############################
# L I N E A R  Q U E N C H  #
#############################

# Define solid atoms. This closely follows ten Wolde  Ruiz-Montero and Frenkel  Faraday Discuss  1996  104  93-110
# Compute components of the per-atom q6 vector
compute q6 all orientorder/atom degrees 1 6 components 6 nnn NULL cutoff 1.3 # compute the Q6 parameter.
                                                                             # Use all neighbours within 1.3 unit cell.

# get number of connections
compute coord_number all coord/atom orientorder q6 0.5

# An atom is solid if it has 8 or more connections (of a possible 14)
variable is_solid atom c_coord_number>=8
group solid dynamic all var is_solid    # Must be dynamic to update
dynamic group solid defined

# do clustering
compute cluster solid cluster/atom 1.3 # Create a cluster where all atoms within are solid and max 1.3 units from another member

# define chunks one chunk per cluster
compute clus_chunks solid chunk/atom c_cluster nchunk every compress yes  # Says which atoms are in which chunk

# count the size of each chunk
compute size_chunks solid property/chunk clus_chunks count


# Find the maximum entry in the vector of chunk sizes
variable max_n equal max(c_size_chunks)


# Thermo style which includes this variable
# thermo_style custom step temp pe vol v_max_n

thermo ${N}  # Print the thermo information every 100 steps
thermo 1000  

# Reset the npt fix at a lower temperature (below freezing)
fix 1  all npt temp  ${temp} ${temp}  0.1  iso  5.68  5.68  0.5  mtk yes tchain  5  pchain  5
fix 1  all npt temp  0.45 ${temp}  0.1  iso  5.68  5.68  0.5  mtk yes tchain  5  pchain  5
fix 1  all npt temp  0.45 0.45  0.1  iso  5.68  5.68  0.5  mtk yes tchain  5  pchain  5

dump dmp2 all dcd ${N} traj.dcd
dump dmp2 all dcd 1000 traj.dcd


compute msd all msd com yes
variable twopoint equal c_msd[4]/6/(step*dt+1.0e-6)
fix 9 all vector 10 c_msd[4]
variable fit equal slope(f_9)/6/(10*dt)
thermo_style custom step temp pe c_msd[4] v_twopoint v_fit v_max_n

fix 1 all npt temp 1.25 ${temp} 0.1 iso 5.68 5.68 0.5 mtk yes tchain 5 pchain 5
fix 1 all npt temp 1.25 0.45 0.1 iso 5.68 5.68 0.5 mtk yes tchain 5 pchain 5
run 500000 # 5000000  # Run for this many steps
Neighbor list info ...
  update every 1 steps, delay 10 steps, check yes
  max neighbors/atom: 2000, page size: 100000
  master list distance cutoff = 3.8
  ghost atom cutoff = 3.8
  binsize = 1.9, bins = 9 9 9
  4 neighbor lists, perpetual/occasional/extra = 1 3 0
  (1) pair lj/cut, perpetual
      attributes: half, newton on
      pair build: half/bin/atomonly/newton
      stencil: half/bin/3d
      bin: standard
  (2) compute orientorder/atom, occasional
      attributes: full, newton on
      pair build: full/bin/atomonly
      stencil: full/bin/3d
      bin: standard
  (3) compute coord/atom, occasional
      attributes: full, newton on
      pair build: full/bin/atomonly
      stencil: full/bin/3d
      bin: standard
  (4) compute cluster/atom, occasional
      attributes: full, newton on
      pair build: full/bin/atomonly
      stencil: full/bin/3d
      bin: standard
Per MPI rank memory allocation (min/avg/max) = 9.771 | 9.778 | 9.785 Mbytes
Step Temp PotEng c_msd[4] v_twopoint v_fit v_max_n 
   12000    1.2163661   -6.5356332 1.1166326e-30 7.7543928e-33 8.3333333e+20            2 
   13000    1.2536236   -6.5322062   0.51383245 0.0032937976  0.042166843            2 
   14000    1.2186075   -6.4932485    1.0100388 0.0060121357   0.04038757            1 
   15000    1.2365751   -6.5544472    1.5195141  0.008441745  0.041196852            2 
   16000    1.2518837   -6.5373442    2.0057686  0.010446711  0.041438608            4 
   17000    1.2488162   -6.5464711    2.4912915  0.012212213  0.041185281            2 
   18000    1.2380598   -6.5262319    3.0035949  0.013905532   0.04139153            4 
   19000    1.2377788   -6.5122794    3.5712605  0.015663423  0.041790095            3 
   20000    1.2399177   -6.5464349     4.149653  0.017290221  0.042470402            1 
   21000    1.2300464   -6.5293927    4.6194544  0.018331168  0.042843295            2 
   22000    1.2531778   -6.5339309    5.1477686  0.019499123  0.042867623            3 
   23000    1.2179614   -6.5162435    5.7363605  0.020783914  0.043132982            2 
   24000    1.2226428   -6.5844309    6.2072927  0.021553099  0.043409883            2 
   25000    1.2291784   -6.5719307     6.641355   0.02213785  0.043288187            1 
   26000     1.240359   -6.5616681    7.1781565  0.023006911  0.043124198            4 
   27000    1.2016064    -6.534143    7.7201314  0.023827565  0.043091147            3 
   28000    1.2423404   -6.5756466    8.1819865   0.02435115  0.043004534            4 
   29000    1.2213057   -6.5707788    8.6640906  0.024896812  0.042918169            3 
   30000    1.2476437   -6.5717993    9.1126869  0.025313019  0.042754295            2 
   31000    1.2259867   -6.5947793    9.5300084  0.025618302  0.042530345            3 
   32000    1.2171725   -6.6039079     10.02826  0.026115261  0.042339144            3 
   33000    1.2293554   -6.5919151    10.548074   0.02663655  0.042184677            3 
   34000    1.2487717   -6.5693891     11.07525  0.027145221  0.042102428            3 
   35000    1.2221899   -6.6030932    11.495424  0.027370058  0.041994998            2 
   36000    1.2308483   -6.5391196    12.000016  0.027777815  0.041864143            1 
   37000    1.2310474   -6.5783343    12.397351  0.027921961  0.041702791            2 
   38000    1.2368337   -6.6126303     12.84684  0.028172894  0.041551179            2 
   39000    1.2179299   -6.5996163    13.334109  0.028491686  0.041398136            2 
   40000    1.2062937   -6.5748313    13.739413  0.028623776  0.041227151            1 
   41000    1.1760078   -6.6151216    14.152083  0.028764395  0.041072154            2 
   42000    1.1904601   -6.6096395     14.53618  0.028841627   0.04089785            1 
   43000    1.2006458   -6.6517742    15.067351  0.029200292  0.040714678            2 
   44000    1.1946557   -6.6069693    15.368392  0.029106802  0.040551018            1 
   45000    1.2087432   -6.6043495    15.821318  0.029298736  0.040354446            2 
   46000    1.1831618   -6.6159629    16.364083  0.029645078  0.040207483            2 
   47000    1.1913331   -6.6705839     16.89043  0.029947571  0.040105398            3 
   48000    1.1909883   -6.6512602    17.375092   0.03016509  0.040024752            2 
   49000    1.2023623   -6.6729802    17.684936  0.030076421   0.03993243            3 
   50000    1.1726381   -6.6217961    18.169781  0.030282969  0.039826813            2 
   51000    1.2108176   -6.6580382     18.54037  0.030294721  0.039714375            1 
   52000    1.1763571   -6.6413229    18.885877  0.030265828  0.039569915            1 
   53000    1.2011932    -6.635363    19.413338  0.030524115  0.039445502            5 
   54000    1.1810073   -6.6326121    20.066196  0.030966352  0.039389507            3 
   55000    1.1907456   -6.6600736    20.405378  0.030917239  0.039348912            2 
   56000    1.1851289   -6.6224465    20.816608  0.030977094  0.039277787            3 
   57000    1.1576937    -6.619583    21.316266  0.031164132  0.039198547            1 
   58000    1.1702079   -6.6416259    21.733716  0.031226603  0.039127321            3 
   59000    1.1793728   -6.6828482    21.980743  0.031046247  0.039041501            2 
   60000    1.2057809   -6.6886302    22.535284  0.031299005  0.038950348            1 
   61000    1.1573815   -6.6884408    23.027622  0.031458499  0.038862771            3 
   62000    1.1710527   -6.7052923     23.47234  0.031548843  0.038805156            1 
   63000    1.1884338   -6.6893052    24.083325  0.031856249   0.03876484            3 
   64000    1.1850929   -6.6544766    24.655991  0.032104155  0.038744557            4 
   65000    1.1577466   -6.7006165    24.967387   0.03200947  0.038725798            1 
   66000    1.1415427   -6.7153328    25.465701  0.032153663  0.038695258            5 
   67000    1.1445299   -6.6909678    25.968407  0.032299013  0.038670743            2 
   68000    1.1711332    -6.700464    26.307991  0.032240185  0.038645165            2 
   69000    1.1957481   -6.7377947    26.682427  0.032225153   0.03861464            2 
   70000     1.131271   -6.7075781    27.021331  0.032168251  0.038573437            1 
   71000    1.1635896   -6.7038893    27.523524  0.032304606  0.038521221            1 
   72000     1.156517   -6.6905519    28.026958  0.032438609  0.038484727            4 
   73000    1.1609744   -6.7216095    28.554386   0.03259633  0.038457521            2 
   74000    1.1736867   -6.7077626    29.014339  0.032673805  0.038428352            5 
   75000    1.1305716    -6.688826    29.423548  0.032692831    0.0384035            4 
   76000    1.1388484   -6.7898481    29.680603  0.032544521  0.038371524            1 
   77000    1.1206849    -6.697686    30.059009  0.032531395   0.03832407            2 
   78000    1.1209907   -6.7103202    30.376636   0.03245367  0.038271302            3 
   79000    1.1504382   -6.7437883    30.809171  0.032499125  0.038214925            2 
   80000    1.1446318   -6.7323284    31.071642  0.032366293  0.038151696            1 
   81000    1.1374866   -6.7102175    31.718036  0.032631724  0.038091869            2 
   82000    1.1472653   -6.7610187    32.065015  0.032586397  0.038033651            1 
   83000    1.1216938   -6.7324433    32.511912  0.032642482  0.037974813            2 
   84000    1.1342084   -6.7658809    32.661217     0.032402  0.037903575            4 
   85000     1.145251   -6.7737459    32.884376  0.032239584  0.037823961            2 
   86000    1.1280763   -6.7529717    33.366335   0.03233172  0.037741616            3 
   87000    1.1318744   -6.7542097    33.602373  0.032186181  0.037658278            2 
   88000    1.1122906     -6.77932    33.996472  0.032193629  0.037573292            1 
   89000    1.1291276   -6.7461811    34.450231   0.03225677  0.037485307            1 
   90000     1.114179   -6.7533021    34.744347  0.032170692  0.037398775            3 
   91000    1.1201532   -6.7875514     35.09447  0.032137793  0.037306959            1 
   92000    1.1092015   -6.7870685    35.499288  0.032155152  0.037217873            3 
   93000    1.1217304   -6.8141843    35.976932  0.032237394  0.037136164            2 
   94000    1.1031285   -6.7847924    36.519771  0.032375683  0.037059125            2 
   95000    1.1023411   -6.8047996    36.781994  0.032264907  0.036991615            2 
   96000    1.1050674   -6.7543154    37.254218  0.032338731  0.036923813            1 
   97000    1.1289778   -6.7932331     37.70716  0.032394467  0.036857198            2 
   98000    1.1230381   -6.7823625    38.007898  0.032319641  0.036789433            3 
   99000    1.1098417   -6.7707616    38.407784  0.032329784  0.036720331            2 
  100000    1.0860686   -6.8211176    38.769674  0.032308061  0.036650552            2 
  101000    1.1027641   -6.7689072     39.28918  0.032416815  0.036586926            1 
  102000    1.1123256   -6.8094569    39.592722  0.032346995  0.036529039            2 
  103000    1.1015584   -6.8076209    40.037115  0.032392488  0.036475473            3 
  104000    1.1169593   -6.7892173    40.598862  0.032531139   0.03642345            3 
  105000    1.0735289   -6.7785431     40.80945  0.032388452  0.036371403            1 
  106000    1.0877439   -6.8282182    41.157029  0.032356155  0.036308775            2 
  107000    1.0981362   -6.7910568    41.340572  0.032196707  0.036243218            2 
  108000    1.1039377   -6.8045391    41.773485  0.032232627  0.036174628            4 
  109000    1.1077493   -6.8307349    42.034445  0.032136426  0.036107372            2 
  110000    1.1083677   -6.7981169     42.60838  0.032279075  0.036043584            6 
  111000    1.1088304   -6.8196059    43.030991  0.032305549  0.035988515            3 
  112000    1.0961074   -6.8207976    43.254428  0.032183354  0.035926711            3 
  113000    1.0785677   -6.8327872    43.785237  0.032289997  0.035869539            1 
  114000    1.1160072   -6.8230927    43.972021   0.03214329  0.035807719            3 
  115000    1.0987575   -6.8728215    44.303285  0.032103829  0.035746241            4 
  116000    1.0838752   -6.8352293    44.687657  0.032103202  0.035684189            2 
  117000    1.0496195     -6.80946    44.833843  0.031932936  0.035617425            3 
  118000    1.0715444    -6.820032      45.1635  0.031895127   0.03554047            1 
  119000    1.0773546   -6.8886776    45.191761  0.031646891  0.035464855            2 
  120000    1.0497325   -6.8439289    45.544883  0.031628391  0.035384511            2 
  121000    1.0610055   -6.8390178    46.008052  0.031685986  0.035304261            5 
  122000    1.0787959   -6.8638397    46.312783  0.031634415  0.035227264            2 
  123000    1.0770753   -6.8495198    46.557911    0.0315433  0.035150601            2 
  124000    1.0668046   -6.8563686    46.915339  0.031529126  0.035072729            3 
  125000    1.0772341   -6.8501486    47.307307  0.031538204  0.034997923            3 
  126000    1.0868432    -6.892628    47.667328   0.03152601  0.034924835            2 
  127000    1.0382849   -6.8645098     47.98626  0.031487047  0.034854121            2 
  128000    1.0551786   -6.8767297    48.181476  0.031368148  0.034781301            1 
  129000    1.0745777   -6.9093319    48.480308  0.031318028  0.034703106            3 
  130000     1.055971   -6.8662728     48.51636  0.031100231  0.034618941            1 
  131000    1.0669106   -6.9053136     48.77736  0.031028855  0.034533539            3 
  132000    1.0418304   -6.8918054    49.148031  0.031027797  0.034448028            2 
  133000    1.0589708   -6.8762737    49.593749  0.031073777  0.034363004            4 
  134000    1.0754833   -6.9053681    49.588764  0.030838784  0.034275054            1 
  135000    1.0398997   -6.8858509    49.848768  0.030770844  0.034184008            4 
  136000     1.047909   -6.8918153     50.15966  0.030735086  0.034091199            2 
  137000    1.0449546   -6.8857593    50.449196  0.030686859  0.033996954            3 
  138000    1.0270821   -6.9115138    50.564978  0.030534407  0.033906386            3 
  139000    1.0215106   -6.9290766    51.073587  0.030619656  0.033815724            8 
  140000    1.0539914    -6.914303    51.401949  0.030596398  0.033729455            3 
  141000    1.0534776   -6.9195158     51.53971  0.030460821  0.033643585            3 
  142000    1.0394092   -6.9502224    51.961813  0.030494022   0.03355701            3 
  143000    1.0569136   -6.9392407     52.25522   0.03045176  0.033472154            3 
  144000    1.0425658      -6.9054    52.526887  0.030397504  0.033388974            4 
  145000    1.0599021   -6.9494845    52.638675  0.030252112  0.033304124            2 
  146000    1.0348266   -6.9076474    52.911489  0.030200621  0.033218624            3 
  147000    1.0322256   -6.9735083    53.347098  0.030242119  0.033133611            2 
  148000    1.0435667   -6.9520224    53.699476  0.030236192  0.033052616            5 
  149000    1.0167873   -6.9472895    54.063028  0.030236593  0.032973506            5 
  150000    1.0316143   -6.9517717    54.368719  0.030204844  0.032895212            2 
  151000    1.0538024   -6.9569379    54.581263   0.03012211  0.032818412            3 
  152000    1.0192873   -6.9643365    55.018669  0.030163744  0.032743062            5 
  153000    1.0321711   -6.9616931    55.073966  0.029996714  0.032666526            3 
  154000    1.0265445   -6.9608017    55.468557  0.030015453  0.032589297            3 
  155000    1.0129373   -6.9636238    55.744392  0.029970103  0.032512071            2 
  156000    1.0176688   -6.9776053    55.969548  0.029898263  0.032435724            3 
  157000    1.0197875   -6.9756956    56.249805  0.029856584  0.032358443            2 
  158000    1.0026728   -6.9985113    56.394169   0.02974376  0.032280075            5 
  159000    1.0009222   -6.9720764    56.528465  0.029627078  0.032201149            2 
  160000    1.0248112   -6.9534268    56.960486   0.02966692  0.032120368            2 
  161000    1.0190992    -6.995249    56.892357   0.02944739  0.032038397            3 
  162000   0.99560834   -6.9884205    57.127047  0.029386341   0.03195473            2 
  163000    1.0043171    -6.992268    57.222294  0.029254751    0.0318702            3 
  164000     1.004274   -7.0193622    57.629308  0.029283185  0.031786857            2 
  165000    1.0252318   -6.9932755    57.822906  0.029203488  0.031703295            2 
  166000    1.0043583   -7.0168922    58.091365  0.029162332  0.031621169            1 
  167000    1.0052753   -6.9876979    58.241227  0.029062489  0.031538967            4 
  168000   0.99199132    -7.028108    58.365354  0.028951068  0.031454132            4 
  169000    1.0067767   -7.0053798    58.607676  0.028899249  0.031368589            2 
  170000   0.98534144    -6.998144    58.940725  0.028892512  0.031284211            3 
  171000   0.99046996   -7.0073923    59.175177  0.028837805  0.031201003            4 
  172000    1.0113431   -6.9953194    59.542459   0.02884809   0.03111812            4 
  173000   0.99946739   -7.0434369    59.584124  0.028701409  0.031036251            2 
  174000   0.99018682   -7.0394682    59.905679  0.028690459   0.03095366            2 
  175000   0.98356712    -7.026327     60.30293  0.028715681  0.030872963            2 
  176000    0.9863801    -7.025449    60.271926  0.028537844  0.030791127            3 
  177000   0.97549514   -7.0111687    60.910924  0.028677459  0.030711382            3 
  178000   0.98744191   -7.0515047    60.878748  0.028501286   0.03063419            1 
  179000   0.96502406   -7.0439578    61.080346  0.028435915  0.030555352            3 
  180000   0.98394807   -7.0379131    61.171014  0.028319914  0.030476934            2 
  181000   0.97828509   -7.0310448    61.612974  0.028366931  0.030398586            3 
  182000   0.96180097   -7.0659508    61.603978   0.02820695  0.030320405            2 
  183000   0.97755715   -7.0871688    61.958557  0.028214279    0.0302424            5 
  184000   0.99335379   -7.0528419    62.456725   0.02828656  0.030165026            5 
  185000   0.96869768   -7.0694628    62.662095  0.028226169  0.030089558            2 
  186000   0.96129554   -7.0681999    62.825895  0.028147802  0.030014888            2 
  187000   0.96144679   -7.0857149    63.174914  0.028152814  0.029941906            3 
  188000   0.95192234      -7.0846    63.163155  0.027997852  0.029867423            2 
  189000   0.97105011   -7.1108069    63.154883  0.027846068  0.029792599            2 
  190000   0.93592044    -7.068026    63.330195  0.027776401  0.029714359            4 
  191000   0.94790971   -7.0635095    63.548468  0.027726208  0.029635565            3 
  192000   0.96358743   -7.0799831    63.467033  0.027546455  0.029555835            4 
  193000   0.95905376    -7.089966    63.863067  0.027574727  0.029475224            4 
  194000   0.95481931   -7.1261269    64.032572    0.0275054  0.029395499            2 
  195000   0.96448845   -7.1045672    64.332001  0.027492308  0.029316292            1 
  196000   0.93144788    -7.095573    64.707266  0.027511592  0.029239506            2 
  197000   0.94367244   -7.1242297    64.733555   0.02738306  0.029163116            7 
  198000   0.94255817   -7.1054827    64.937816  0.027330731   0.02908574            2 
  199000   0.95829716   -7.1236511    65.157268  0.027285288  0.029007722            3 
  200000   0.94031269   -7.1185248    65.401148  0.027250478  0.028931669            3 
  201000   0.94992615   -7.1113296    65.629604   0.02720962  0.028857367            2 
  202000   0.94221643   -7.1230163    65.777355  0.027135872  0.028783867            3 
  203000   0.95477546     -7.13786    66.084313  0.027128207  0.028709944            1 
  204000   0.93258947    -7.112567    66.229279  0.027054444  0.028636014            2 
  205000   0.93844466   -7.1603361     66.22403  0.026920338  0.028560333            3 
  206000   0.95275991   -7.1596829    66.349384  0.026840366  0.028484914            4 
  207000   0.96117306   -7.1707336    66.447685  0.026750276  0.028408365            6 
  208000    0.9350627   -7.1783516    66.814079  0.026768461  0.028333195            2 
  209000   0.94508736   -7.1808036    67.031783  0.026727186  0.028258575            4 
  210000   0.93567034   -7.1430593    67.236419  0.026681119  0.028183874            3 
  211000   0.94263375   -7.1552001    67.416411  0.026625755  0.028109262            3 
  212000   0.91578629   -7.1545633    67.482859  0.026526281  0.028033852            4 
  213000   0.92084249   -7.1508724    67.719238  0.026494225  0.027959287            2 
  214000   0.90649922   -7.1802835    67.492998   0.02628232  0.027883681            3 
  215000   0.90785288   -7.1829245    67.831245   0.02629118  0.027807611            3 
  216000   0.92413253   -7.1791112    67.972956  0.026224134  0.027732187            5 
  217000   0.92753518   -7.1957082    68.156435  0.026173746  0.027656962            3 
  218000   0.94727923   -7.1990468    68.307225  0.026111324  0.027582632            3 
  219000   0.89938568    -7.218084    68.467607  0.026053123  0.027507873            5 
  220000   0.92273464    -7.160608    68.568969  0.025973094   0.02743365            3 
  221000   0.93591872   -7.1726839    68.913036  0.025985308  0.027359949            3 
  222000   0.91804157   -7.1608312    69.069239  0.025926891  0.027286638            6 
  223000   0.90052736   -7.1931074    69.336477  0.025910492  0.027215753            4 
  224000   0.91772427   -7.2399831    69.369652  0.025807162  0.027142608            3 
  225000   0.90894397   -7.1738929    69.553857  0.025760688  0.027069384            2 
  226000   0.90923108   -7.2125391    69.758501  0.025722161  0.026996876            2 
  227000   0.92172496   -7.1930857    69.806539  0.025626483  0.026925541            2 
  228000   0.90551012   -7.2209194    70.192833  0.025655275  0.026854639            4 
  229000   0.91144238   -7.2360694    70.286943   0.02557749  0.026784292            4 
  230000    0.9105595   -7.2250767    70.290323  0.025467508   0.02671392            5 
  231000    0.9069554     -7.21884    70.703542  0.025506328  0.026644158            3 
  232000   0.90789047   -7.2383758     70.73277  0.025406886  0.026574824            5 
  233000   0.89825424   -7.2342664    70.865113  0.025345176  0.026505488            7 
  234000   0.88513803    -7.254006    70.925106  0.025258228  0.026436105            4 
  235000   0.89369882   -7.2508664     71.10022  0.025212844  0.026365436            2 
  236000   0.87368234   -7.2541601    71.296401  0.025175283  0.026294917            6 
  237000   0.89002333   -7.2466079    71.425788  0.025114553  0.026225669            3 
  238000   0.89690261   -7.2594588      71.1706  0.024919678  0.026154955            3 
  239000   0.88650687   -7.2808194    71.620833  0.024972397  0.026083555            4 
  240000    0.8632427    -7.239009    71.776765  0.024922488  0.026012074            4 
  241000    0.8935447   -7.2348997    71.844103  0.024842359   0.02594141            8 
  242000   0.87918697   -7.2725447    72.022053  0.024800982  0.025871009            4 
  243000   0.87495735   -7.2705684    72.068563  0.024714871  0.025800318            2 
  244000   0.87921863   -7.2556465    72.331332  0.024703324  0.025729881            7 
  245000   0.88112747   -7.2483463    72.306294  0.024593977  0.025659086            4 
  246000   0.88211501   -7.2795387    72.291235  0.024488901  0.025588105            7 
  247000   0.89465588   -7.2908189    72.311133  0.024396469  0.025516717            5 
  248000    0.8753589   -7.2634617     72.57863   0.02438798  0.025446125            8 
  249000   0.84732278   -7.2833168    72.709524  0.024333843  0.025374954            4 
  250000    0.8899914   -7.2768488     72.74357  0.024247857  0.025303415            5 
  251000    0.8868462   -7.3176306    72.606209  0.024105647  0.025232474            2 
  252000    0.8653132   -7.2921524    72.943189  0.024121425  0.025162036            8 
  253000   0.85031463   -7.3107304    73.007985  0.024047426  0.025091223            8 
  254000   0.88507023   -7.3090709    73.260068  0.024035455  0.025019958            2 
  255000   0.86104662   -7.3384299    73.144917  0.023903568  0.024948546            3 
  256000   0.84512824   -7.3086343    73.111755  0.023799399   0.02487711            5 
  257000   0.86180719   -7.3500912    73.412152    0.0238042  0.024805942            6 
  258000   0.83082694   -7.3510338    73.530895  0.023750289   0.02473573            3 
  259000    0.8472183   -7.2919002    73.886122  0.023772883  0.024665519            3 
  260000   0.86852877   -7.2916821     73.93857  0.023698259  0.024596163            3 
  261000   0.85473071   -7.3583441      73.7918    0.0235606  0.024526918            3 
  262000   0.85457608   -7.3043502    74.394734  0.023662447  0.024457984            3 
  263000   0.85352176   -7.3599401    74.463824  0.023594367  0.024390354            4 
  264000   0.84302543   -7.3255664    74.481486   0.02351057  0.024323425            4 
  265000   0.84202489   -7.3607902    74.501893  0.023428268   0.02425595            4 
  266000   0.83430474    -7.364739    74.680082  0.023396016  0.024189168            5 
  267000   0.83867867   -7.3661636    74.900972  0.023377332    0.0241223            3 
  268000   0.84368018   -7.3822751    74.904536  0.023291212  0.024055506            5 
  269000   0.83758142   -7.3879129     74.97789  0.023227351  0.023989536            4 
  270000   0.83967595   -7.3666068    75.075054  0.023171313  0.023923512            6 
  271000   0.85040442   -7.3477759    75.349789  0.023170292  0.023857958            3 
  272000   0.83917495   -7.3437429    75.385464  0.023096037  0.023792325            4 
  273000   0.83631452   -7.3710085    75.500005  0.023046399  0.023726651            8 
  274000   0.83395176   -7.3975605    75.314158  0.022905766  0.023660104            4 
  275000   0.82349532   -7.3961682    75.536399  0.022889818  0.023593578            6 
  276000   0.83556894   -7.3555522    75.624071  0.022833355  0.023527329            3 
  277000   0.81786105    -7.396706    75.596921  0.022742756  0.023460714            5 
  278000   0.80178105   -7.3869936    75.691051  0.022689164  0.023394054            8 
  279000    0.8393046   -7.4159954    75.921034  0.022676533  0.023327718            5 
  280000   0.82055483   -7.3847757    75.838797  0.022571071  0.023261602            3 
  281000   0.82170849   -7.3861736    75.977455  0.022531867  0.023196054            4 
  282000   0.81206064   -7.4054049    76.137379  0.022499225  0.023131371            3 
  283000   0.81694292   -7.4152217    76.314739  0.022471949  0.023066267            3 
  284000   0.82717247    -7.413962    76.279572  0.022382504  0.023001218            3 
  285000   0.81640498   -7.4135051    76.490245  0.022365569  0.022936768            7 
  286000   0.82444947   -7.4109651    76.690505  0.022345718  0.022872785            6 
  287000   0.81765741   -7.4148625    76.844745  0.022312644  0.022809399            7 
  288000   0.81285429   -7.4252362      76.7979  0.022221615  0.022745675            3 
  289000   0.80239295   -7.4251871    76.886818  0.022170363  0.022681948            3 
  290000   0.79969199   -7.4180758    76.953249  0.022113003  0.022618466            3 
  291000   0.82700126   -7.4420968    76.998176  0.022049879  0.022555031            5 
  292000   0.79990339   -7.4669281     76.95401  0.021961761  0.022491442            2 
  293000    0.8063645   -7.4467723    76.970097  0.021891381  0.022427586            6 
  294000   0.81320175   -7.4539361     76.93503  0.021806981  0.022363077            5 
  295000   0.78774764   -7.4519629    77.064197  0.021769547  0.022298552            4 
  296000   0.80695728    -7.452595    77.183048  0.021729462  0.022234556            5 
  297000   0.80028239   -7.4404234    77.225426  0.021668189  0.022170664            9 
  298000   0.80747292   -7.4375971    77.313728   0.02162017  0.022106138            5 
  299000   0.77813837    -7.447649    77.243819  0.021528378  0.022042155            8 
  300000   0.80267596   -7.4541811    77.438699   0.02151075   0.02197805            3 
  301000   0.77784581   -7.4763756    77.358345  0.021417039  0.021914509            3 
  302000   0.77376344   -7.4787029    77.522864  0.021391519  0.021850776            3 
  303000   0.76566775    -7.459943    77.311874  0.021262892   0.02178665            8 
  304000   0.78331627   -7.4845885    77.465801  0.021235143  0.021722414            7 
  305000   0.78764853   -7.4875566    77.420485  0.021153138   0.02165799            2 
  306000   0.78677439    -7.498605    77.675887  0.021153564  0.021593649            4 
  307000   0.78466708   -7.4931375    77.625324  0.021070935  0.021529318            7 
  308000   0.79437786   -7.4888694    77.679904   0.02101729  0.021465461            2 
  309000   0.77561836   -7.4843068    77.744875  0.020966795  0.021401266            2 
  310000   0.78513777   -7.5129754    77.628375  0.020867843   0.02133721            7 
  311000   0.77885951   -7.5226829    77.787096  0.020843273  0.021273676            5 
  312000   0.76899182   -7.5214483    77.661504  0.020742923  0.021209636            5 
  313000   0.75166948   -7.5383606    77.807973  0.020715648  0.021145696            6 
  314000   0.76595082   -7.5411759    77.568873  0.020586219   0.02108168            5 
  315000   0.76388953   -7.5343952    77.834031  0.020591013  0.021017219            4 
  316000   0.76583611   -7.5058615    77.801678   0.02051732  0.020952924            4 
  317000    0.7604689   -7.5406844    77.861471  0.020468315  0.020889115            7 
  318000   0.77048781    -7.574026    77.982412  0.020435642  0.020825406            4 
  319000   0.76399045   -7.5363828    78.113578  0.020405846  0.020761971            8 
  320000   0.76973003   -7.5591813    77.782214  0.020255785  0.020698443            4 
  321000   0.75421124   -7.5293371    78.157221  0.020290036  0.020635204            2 
  322000   0.75080155   -7.5697667    78.266567  0.020255323  0.020571912            7 
  323000    0.7614116   -7.5764903    78.228782  0.020182864  0.020508952            5 
  324000   0.75695541   -7.5274281    78.118383  0.020092177  0.020446648            8 
  325000   0.74411592   -7.5681005    78.263938  0.020067676  0.020384672            3 
  326000    0.7441252   -7.5748867    78.188262  0.019986774  0.020322117            7 
  327000   0.76340558   -7.5592149     78.46828  0.019997013  0.020260025            4 
  328000   0.74428936   -7.5441497    78.537126  0.019953538  0.020198464            4 
  329000   0.74322087   -7.5878555    78.415156  0.019861995  0.020137195            5 
  330000   0.73233759   -7.5840842     78.66533  0.019864982   0.02007595            3 
  331000   0.74722339   -7.5896479    78.697301  0.019813016  0.020015177            5 
  332000   0.74460287   -7.5884542     78.61609  0.019732954  0.019954127            3 
  333000   0.72328262   -7.5622937    78.712389  0.019697795  0.019893428            3 
  334000   0.72568136   -7.6092792    78.765026  0.019651953  0.019833373            3 
  335000   0.72875914   -7.6271176    78.807221  0.019603786  0.019772949            7 
  336000   0.73667554   -7.6380777    78.716988  0.019523063  0.019712795            7 
  337000   0.72104404   -7.6146588    78.939226  0.019520085  0.019653003            5 
  338000   0.73528099   -7.6029172    78.693108  0.019401654   0.01959323            5 
  339000   0.72095096   -7.6456741    78.831153  0.019378356  0.019533154            8 
  340000   0.72238619   -7.6011655    78.909133  0.019340474  0.019473301            7 
  341000   0.72893222   -7.6130339    79.114032   0.01933383  0.019413687            5 
  342000   0.72939029   -7.6356603    78.926063  0.019231497   0.01935453            4 
  343000   0.72521368   -7.6209127    78.897696  0.019168536  0.019295708            3 
  344000   0.72301023   -7.6189156    79.092024   0.01915989  0.019237239            4 
  345000   0.70632196   -7.6335208    79.398025  0.019178267  0.019179078            9 
  346000   0.71906919   -7.6606583    79.353049  0.019112006  0.019121223            2 
  347000   0.71493374   -7.6446939    79.349895  0.019056171  0.019063292            6 
  348000   0.70732745   -7.6495945    79.202425  0.018966098  0.019005793            3 
  349000     0.717628   -7.6231841    79.091599  0.018885291  0.018948134            5 
  350000   0.71476453   -7.6583547    79.342262  0.018891015  0.018890787            6 
  351000    0.7146368   -7.6387547     79.30495  0.018828336  0.018833617           11 
  352000   0.70447955   -7.6547635    79.248906  0.018761578   0.01877643           10 
  353000    0.7058468   -7.6656796    79.546738  0.018778739  0.018719704           12 
  354000   0.70807677   -7.6588368    79.632496  0.018745879  0.018662788            4 
  355000   0.71064529   -7.6483972    79.449899  0.018650211  0.018606051            7 
  356000   0.69864451   -7.6485365    79.616827  0.018636898  0.018549459            5 
  357000   0.70214106   -7.6609737    79.636632  0.018589317  0.018493109            6 
  358000   0.68227906   -7.6613985    79.660258   0.01854289  0.018437328            6 
  359000   0.69212312   -7.6497645    79.777011  0.018518341  0.018381722            3 
  360000    0.6824583    -7.686903    79.737798  0.018457824   0.01832625            4 
  361000   0.69550061   -7.6751417    79.570799  0.018368144  0.018270702            9 
  362000   0.68309785   -7.6913962    79.515786  0.018304739  0.018214902            7 
  363000    0.6866274   -7.6890313    79.690378  0.018294393  0.018159124            4 
  364000   0.68701476   -7.6935047    79.803724  0.018270083  0.018103754            5 
  365000       0.6821   -7.6909623    79.820855  0.018223939  0.018048971            9 
  366000   0.68934883   -7.7084157    79.858828  0.018182793  0.017994357            7 
  367000   0.67574446   -7.6989153    79.858226  0.018133112  0.017939772            6 
  368000   0.68611715   -7.6824894    79.895175  0.018092204  0.017885531           15 
  369000   0.67408702   -7.7214807    79.858706  0.018034938  0.017831324            6 
  370000   0.67730971    -7.738824    79.692035  0.017948656  0.017777071           10 
  371000   0.67781561   -7.7143404    79.903512  0.017947779  0.017722773            7 
  372000   0.66168492   -7.7324418    80.045016  0.017931231  0.017668641           11 
  373000   0.65943266    -7.702268    79.841239  0.017837631  0.017614463            5 
  374000   0.66917334   -7.7162357    79.908901  0.017805014  0.017560381            4 
  375000   0.67712846   -7.7115234    79.978132  0.017772918  0.017506642            7 
  376000   0.67624531   -7.7218812    80.001082  0.017730736  0.017452981            9 
  377000   0.65847951   -7.7569705    80.097173  0.017704945  0.017399651            7 
  378000    0.6577001   -7.7563596    80.076922  0.017653642   0.01734648           12 
  379000    0.6602114   -7.7701513    79.831319  0.017553061  0.017293475           10 
  380000   0.65684089   -7.7569849    79.875531  0.017516564  0.017240278            5 
  381000   0.64215717   -7.7629056    80.035343  0.017505543  0.017187599            4 
  382000    0.6802868   -7.7756606    80.003776  0.017452831  0.017134754            9 
  383000   0.66625809   -7.7912855    79.852703  0.017374391   0.01708201            4 
  384000   0.64084806   -7.7929516     79.89245  0.017337771  0.017029081           10 
  385000   0.65206473   -7.7720679    80.062269  0.017329495  0.016976458           13 
  386000   0.63679774   -7.7804639    79.906364  0.017250942  0.016923746           13 
  387000   0.64412912   -7.7760428    79.813311  0.017186329  0.016871554           13 
  388000   0.63901996   -7.7904938    80.074016  0.017198027  0.016819425           14 
  389000   0.63602588   -7.7831184    80.051213  0.017148932  0.016767482            6 
  390000   0.64977612   -7.8093939    80.136058  0.017123089  0.016715724            8 
  391000   0.64913752   -7.8064619    80.046294  0.017060165  0.016664219            6 
  392000   0.63620469   -7.7837499    80.020708  0.017011205  0.016612837            3 
  393000   0.65695373   -7.8032658    79.887212  0.016939612  0.016561582            8 
  394000   0.63563046   -7.8114462    80.010175  0.016922626  0.016510314            9 
  395000    0.6364248   -7.8257214    80.057695  0.016889809   0.01645929            7 
  396000   0.63712106   -7.8106133     80.00078  0.016835181  0.016408297           13 
  397000   0.63012254   -7.8192397    80.091052  0.016811724  0.016357242            6 
  398000   0.61603169   -7.8102203    79.909315  0.016731431  0.016306506            8 
  399000    0.6261779   -7.8255337    79.939456  0.016695793  0.016255741            4 
  400000   0.63416828   -7.8249448    80.114705  0.016690564  0.016205264            5 
  401000   0.62346602   -7.8262723    79.988468  0.016622707  0.016154921            7 
  402000   0.62394888   -7.8213477    80.004029  0.016584583  0.016104633            4 
  403000   0.61397808   -7.8286422    79.882861  0.016518375  0.016054397            8 
  404000    0.6405993   -7.8304336    80.102745  0.016522843  0.016004504            6 
  405000   0.60870196   -7.8389412    79.969333  0.016454595  0.015954764            3 
  406000   0.61792728   -7.8267845    80.221521  0.016465829  0.015905056            4 
  407000   0.61263691   -7.8557079    80.047856  0.016389815  0.015855469            4 
  408000    0.6166992   -7.8448186    79.966142  0.016332954  0.015805771            5 
  409000   0.62092048   -7.8444502    80.072353   0.01631466  0.015756334           10 
  410000   0.60464098    -7.858133    80.009934  0.016262182  0.015707225           11 
  411000   0.61857216   -7.8620158    80.061649    0.0162331  0.015658141            5 
  412000   0.61007974   -7.8473921    79.894036  0.016159797  0.015609221           10 
  413000   0.61469421   -7.8842579     79.95437  0.016132843  0.015560459            7 
  414000    0.6078002   -7.8673639      80.0065  0.016104368  0.015511685            9 
  415000   0.61267118   -7.8686023    80.004478  0.016065156  0.015463159           10 
  416000   0.61226812   -7.8752597    79.894796  0.016004566   0.01541457           13 
  417000   0.61480586   -7.8957447     79.89863  0.015966952   0.01536618            7 
  418000   0.59172277    -7.888826     79.74608  0.015898341  0.015317853            8 
  419000   0.60336605    -7.893944    79.961467  0.015903235  0.015269585           12 
  420000   0.58709647   -7.8814719    79.832606  0.015839803  0.015221276            9 
  421000   0.58518669   -7.9065129    79.982298  0.015831809  0.015173313           12 
  422000   0.58784541   -7.9120984     79.75567   0.01574954  0.015125387            7 
  423000   0.58871868   -7.9102208    79.616889  0.015684966  0.015077445           12 
  424000   0.59240807   -7.9110453    79.704247  0.015665143  0.015029531            4 
  425000   0.59320937   -7.8968348    79.658601  0.015619333   0.01498171            7 
  426000   0.59627637   -7.9193916    79.660567  0.015583053  0.014934104            6 
  427000   0.57269583   -7.9105909    79.795681  0.015572928   0.01488686            4 
  428000    0.5990393   -7.9337165    79.736038  0.015524929   0.01483977            4 
  429000   0.58653703   -7.9231596    79.796069  0.015500402   0.01479286            7 
  430000   0.58191462   -7.9550069    79.674645  0.015440823  0.014746089            7 
  431000   0.58516538   -7.9414429    79.666509  0.015403424  0.014699322            5 
  432000   0.57372733   -7.9343956    79.589316  0.015352877    0.0146526            5 
  433000   0.57610982   -7.9540223    79.728798  0.015344264  0.014605942            3 
  434000    0.5919449   -7.9480252    79.731048  0.015309341  0.014559494            5 
  435000   0.58471235   -7.9253817    79.585766  0.015246315  0.014513249            8 
  436000   0.57480405   -7.9429394    79.713588  0.015235778  0.014467236            4 
  437000   0.56432692   -7.9410642    79.669705  0.015192545  0.014421277            4 
  438000   0.56905165   -7.9519764    79.635378  0.015151328  0.014375502            6 
  439000   0.57442059   -7.9518379    79.616243  0.015113182  0.014329863            4 
  440000   0.56656387   -7.9648144    79.608721  0.015077409  0.014284428            3 
  441000   0.56377652   -7.9513014    79.654661  0.015051901  0.014239099            6 
  442000   0.55727383   -7.9670377    79.683687   0.01502332  0.014193832            6 
  443000   0.55623017   -7.9614083     79.67149  0.014987113  0.014148787            5 
  444000   0.56055177   -7.9549264    79.566637  0.014933678  0.014103832            5 
  445000   0.54212874   -7.9615845    79.581563  0.014902914    0.0140591            3 
  446000   0.55232421   -7.9549256     79.67338  0.014886655  0.014014557           10 
  447000   0.56239413   -7.9707524    79.593185  0.014838401  0.013970147            6 
  448000   0.55850821   -7.9644795    79.543387  0.014796017  0.013925867           10 
  449000   0.54287343   -7.9677399    79.523273  0.014759331  0.013881774            8 
  450000   0.56077743   -7.9854103    79.491826  0.014720708  0.013837797           10 
  451000   0.54766703   -7.9930913    79.535031  0.014696051  0.013793883           11 
  452000   0.55570437    -7.978208    79.502053  0.014657458  0.013750231            6 
  453000    0.5462606   -7.9929441     79.59635  0.014642449  0.013706579            6 
  454000   0.54638407   -7.9736263    79.570204  0.014605397  0.013663192            6 
  455000   0.53897064   -7.9903777    79.523782  0.014564795  0.013620024            7 
  456000   0.52865059   -8.0035796    79.557001  0.014538926  0.013577004            7 
  457000   0.55295414    -8.013747    79.410182   0.01448034  0.013534094            9 
  458000   0.53510869   -8.0048788    79.471837  0.014459941  0.013491311           10 
  459000   0.53342537    -8.011082    79.328612  0.014402435  0.013448572            8 
  460000   0.52517627   -7.9988504    79.374809  0.014379494  0.013405976            7 
  461000   0.52260977    -8.010169    79.535516  0.014377353  0.013363577           10 
  462000   0.53439929   -7.9891424    79.340633  0.014311081  0.013321321            7 
  463000   0.53505173   -8.0048179    79.406276  0.014291986  0.013279173            8 
  464000   0.53827955   -8.0271567    79.295488  0.014241287  0.013237215           19 
  465000   0.52114474   -8.0287354    79.538836  0.014254272  0.013195367            8 
  466000   0.52880059   -8.0333981    79.420203  0.014202468  0.013153716           11 
  467000   0.52633288   -8.0175021    79.526271  0.014190983  0.013112197            9 
  468000    0.5088866    -8.036721    79.370388  0.014132904  0.013070861           10 
  469000   0.52225184    -8.041426    79.340275  0.014097419   0.01302959            6 
  470000    0.5156818   -8.0269914    79.242845   0.01405015  0.012988462            6 
  471000   0.50214616   -8.0264806    79.215478  0.014015477  0.012947523            8 
  472000   0.50770788   -8.0479541    79.287503    0.0139985  0.012906578            7 
  473000   0.51555204   -8.0463926    79.341774  0.013978466  0.012865995            6 
  474000   0.51213043   -8.0451607    79.342835  0.013949162  0.012825466            5 
  475000   0.51699438   -8.0456612    79.354191  0.013921788  0.012785209           10 
  476000   0.50546071   -8.0503527     79.28996  0.013881296  0.012745058            5 
  477000   0.50051395   -8.0506797    79.277837  0.013850076  0.012705054           10 
  478000   0.50550638   -8.0655549    79.357557  0.013834999  0.012665166           15 
  479000   0.50168878   -8.0493098    79.262698  0.013789613  0.012625419            7 
  480000   0.50134852   -8.0672063    79.296178  0.013766698  0.012585869           16 
  481000   0.49771786   -8.0657755    79.150044  0.013712759  0.012546318           14 
  482000   0.48824879    -8.079973    79.240289  0.013699912  0.012506898           18 
  483000   0.49847243   -8.0622197    79.193381  0.013663454  0.012467633           13 
  484000   0.50280278   -8.0859022    79.190022  0.013634646  0.012428527           12 
  485000   0.49939535   -8.0697051    79.305941   0.01362645  0.012389595           14 
  486000   0.49445928   -8.0856344    79.242687  0.013587566  0.012350778           15 
  487000   0.48864312   -8.0709088    79.344945  0.013577164   0.01231211           11 
  488000   0.48483668   -8.0909176    79.225304  0.013528911  0.012273653           10 
  489000   0.48360673   -8.0757252    79.214789  0.013499453  0.012235306            8 
  490000   0.47613662    -8.066236    79.170215  0.013464322  0.012197058           11 
  491000   0.47769545   -8.0817603     79.20517  0.013442833  0.012158991           10 
  492000   0.48874378   -8.0806991    79.185525  0.013412182  0.012120933            8 
  493000   0.47221477   -8.0996122     79.02138  0.013357231   0.01208308            9 
  494000   0.47753217   -8.0920116    79.094862  0.013342588  0.012045298            6 
  495000   0.47099389   -8.0754123    79.108793  0.013317979   0.01200777            7 
  496000   0.46978594   -8.1010686    78.964669  0.013266913  0.011970346           11 
  497000   0.47922325   -8.1020075    79.170812  0.013274784  0.011933103            6 
  498000   0.46673657   -8.1350426    79.088951   0.01323443  0.011895953           11 
  499000   0.46710408   -8.1052761    79.129969  0.013214758  0.011858945            7 
  500000   0.46865546   -8.1131963    79.047883  0.013174647  0.011822036            7 
  501000   0.46746559   -8.1137829      79.0667   0.01315148  0.011785238           13 
  502000   0.46941873   -8.1182575    79.014929  0.013116688  0.011748622           13 
  503000   0.45786619   -8.1250785    79.055325  0.013097304  0.011712085           11 
  504000   0.45463936   -8.1329764    79.034465  0.013067868  0.011675641            5 
  505000   0.45964402   -8.1117533    79.062497  0.013046617  0.011639352            6 
  506000   0.46587857   -8.1271466    78.947665  0.013001921  0.011603222            5 
  507000   0.46414408   -8.1300339    78.997836  0.012984523   0.01156721           15 
  508000   0.44778556   -8.1223713    78.863792  0.012936974   0.01153135           10 
  509000   0.44855051   -8.1224644    78.884303  0.012914915  0.011495659            8 
  510000   0.45362517   -8.1458301    79.034829  0.012914188  0.011460043           20 
  511000   0.45133718   -8.1555986    78.888408  0.012865037   0.01142462            9 
  512000   0.44840904   -8.1482073    78.893272  0.012840702  0.011389338           10 
Loop time of 1142.12 on 48 procs for 500000 steps with 4000 atoms

Performance: 75648.515 tau/day, 437.781 timesteps/s
99.4% CPU use with 48 MPI tasks x no OpenMP threads

MPI task timing breakdown:
Section |  min time  |  avg time  |  max time  |%varavg| %total
---------------------------------------------------------------
Pair    | 68.763     | 74.91      | 80.177     |  30.4 |  6.56
Neigh   | 7.2855     | 7.5385     | 7.858      |   4.5 |  0.66
Comm    | 67.56      | 73.3       | 79.422     |  33.2 |  6.42
Output  | 0.81092    | 0.81151    | 0.82081    |   0.2 |  0.07
Modify  | 971.37     | 973.86     | 976.53     |   4.1 | 85.27
Other   |            | 11.7       |            |       |  1.02

Nlocal:        83.3333 ave          95 max          77 min
Histogram: 3 6 15 6 7 6 2 2 0 1
Nghost:        1911.94 ave        1929 max        1885 min
Histogram: 1 0 3 5 3 9 10 8 2 7
Neighs:        12074.5 ave       13865 max       11191 min
Histogram: 10 8 8 6 5 2 3 3 0 3
FullNghs:      24147.1 ave       27671 max       21970 min
Histogram: 3 5 11 6 10 6 4 2 0 1

Total # of neighbors = 1159062
Ave neighs/atom = 289.76550
Neighbor list builds = 26849
Dangerous builds = 0

#clear
#
#next RN
#
#jump SELF
Total wall time: 0:19:05
