
units lj                  # Use reduced LJ style units
atom_style atomic         # Uncharged point particles
atom_modify map hash      # Needed for indexing of clusters etc
                          # Used to be able to find where atoms are in relation to each other.

# Define a lattice with which to populate the simulation cell. With units
# set to 'lj' the second argument to the lattice command is the reduced
# density rho* and the spacings are multiples of that required to acheive
# that density. Also define a simulation cell called 'box' in lattice units
# and fill it with atoms. Here we're creating a box which is ten lattice
# constants in each direction.
lattice fcc 1.0 spacing 1 1 1                 # All equal sizes - gives the right reduced density.
Lattice spacing in x,y,z = 1.5874011 1.5874011 1.5874011

region box block 0 10 0 10 0 10 units lattice # Defines a region, "box", in lattice units
create_box 1 box                              # Creates a simulation box as specified above,
Created orthogonal box = (0.0000000 0.0000000 0.0000000) to (15.874011 15.874011 15.874011)
  2 by 3 by 4 MPI processor grid
                                              # with one type of atom
create_atoms 1 box                            # Creates particles on lattice points
Created 4000 atoms
  using lattice units in orthogonal box = (0.0000000 0.0000000 0.0000000) to (15.874011 15.874011 15.874011)
  create_atoms CPU = 0.001 seconds


# Set the mass of the first (and only) atom type.
mass 1 1.0

# Lennard-Jones interactions between particles, 3.5 sigma cut-off. Apply
# long range tail corrections to energy and pressure and set all coefficients
# to unity since we work in reduced units here. Note that this doesn't shift
# the potential such that it goes to zero at the cutoff. That would require
# pair_modify('shift', 'yes').
pair_style lj/cut  3.5      # non-GPU version
pair_modify tail  yes
pair_coeff 1  1  1.0  1.0   # Intearaction between 1 and 1 set with epsilon = 1 and sigma = 1

write_data data.*
System init for write_data ...
Neighbor list info ...
  update every 1 steps, delay 10 steps, check yes
  max neighbors/atom: 2000, page size: 100000
  master list distance cutoff = 3.8
  ghost atom cutoff = 3.8
  binsize = 1.9, bins = 9 9 9
  1 neighbor lists, perpetual/occasional/extra = 1 0 0
  (1) pair lj/cut, perpetual
      attributes: half, newton on
      pair build: half/bin/atomonly/newton
      stencil: half/bin/3d
      bin: standard

#############################
#   M E L T   S Y S T E M   #
#############################

velocity all create 2.4 1741580 mom yes dist gaussian # Assign velocities
                                                    # Temperature 2.4, random number seed, zero linear momentum
						                                                        # Gaussian distribution

timestep 0.002   # simulation timestep
thermo 100       # output thermodynamic data every 100 steps

# Define a fix  in this case with index 1 applied to all
# particles in the simulation. This fix is for simulations
# in the anisotropic NPT ensemble. Note that we use the MTK
# correction.
fix 1 all npt temp 2.4 2.4 0.1 iso 5.68 5.68 0.5 mtk yes tchain 5 pchain 5 # Use NPT ensemble
                                                                         # Set temperature and pressure and damping
                                                                         # Numbers of thermostats in chain and in barostat
run 1000         # run for 10000 steps
Per MPI rank memory allocation (min/avg/max) = 3.676 | 3.679 | 3.684 Mbytes
Step Temp E_pair E_mol TotEng Press Volume 
       0          2.4   -8.3859253            0   -4.7868253   -2.2405722         4000 
     100    1.2552531   -6.5115672            0   -4.6291582     5.497081    4088.0579 
     200    1.4628633    -6.289567            0   -4.0958206    6.0903972    4138.0466 
     300    1.5904925   -6.0345783            0   -3.6494359    5.7376042    4272.4771 
     400    1.6850752   -5.7072351            0   -3.1802542    5.9705826    4399.2373 
     500    1.7895599   -5.4225046            0   -2.7388358     5.865757    4546.8704 
     600    1.8965854   -5.1442855            0   -2.3001186     5.865539    4691.2751 
     700    2.0304439     -4.92263            0   -1.8777256    5.8141752    4830.4151 
     800    2.1710171   -4.7567122            0   -1.5010006    5.6106115    4968.6247 
     900    2.2247838   -4.5230698            0   -1.1867284    5.8051376    5086.8715 
    1000     2.364264   -4.4348938            0  -0.88938446    5.9115751    5144.0032 
Loop time of 0.319924 on 24 procs for 1000 steps with 4000 atoms

Performance: 540128.034 tau/day, 3125.741 timesteps/s
99.7% CPU use with 24 MPI tasks x no OpenMP threads

MPI task timing breakdown:
Section |  min time  |  avg time  |  max time  |%varavg| %total
---------------------------------------------------------------
Pair    | 0.17952    | 0.1858     | 0.19758    |   1.1 | 58.08
Neigh   | 0.033736   | 0.035215   | 0.037386   |   0.5 | 11.01
Comm    | 0.062947   | 0.074468   | 0.081505   |   2.0 | 23.28
Output  | 0.00020448 | 0.00021111 | 0.00027941 |   0.0 |  0.07
Modify  | 0.01915    | 0.022036   | 0.024321   |   1.1 |  6.89
Other   |            | 0.002196   |            |       |  0.69

Nlocal:        166.667 ave         176 max         152 min
Histogram: 1 0 2 0 3 4 6 4 3 1
Nghost:        1840.88 ave        1857 max        1826 min
Histogram: 3 1 3 4 1 2 4 4 0 2
Neighs:        14784.9 ave       15702 max       13755 min
Histogram: 2 1 1 5 1 3 5 0 4 2

Total # of neighbors = 354837
Ave neighs/atom = 88.709250
Neighbor list builds = 86
Dangerous builds = 16

# Equilibrate just above the melting temperature to avoid step fn in T

fix 1 all npt temp 1.25 1.25 0.1 iso 5.68 5.68 0.5 mtk yes tchain 5 pchain 5
run 1000
Per MPI rank memory allocation (min/avg/max) = 3.677 | 3.680 | 3.685 Mbytes
Step Temp E_pair E_mol TotEng Press Volume 
    1000     2.364264   -4.4348938            0  -0.88938446    5.9115751    5144.0032 
    1100    1.9499649   -4.6617779            0   -1.7375618    5.8205171    4978.7844 
    1200    1.7213197   -4.9482774            0   -2.3669434    5.7402188    4808.4294 
    1300    1.5721809   -5.1954201            0   -2.8377383    5.7003773    4667.9329 
    1400    1.4692769   -5.4052033            0   -3.2018389    5.6740098     4560.708 
    1500    1.3897296   -5.5637068            0   -3.4796336    5.6667574    4476.2103 
    1600    1.2963572   -5.6470084            0   -3.7029588    5.6441736    4434.9383 
    1700    1.2716936   -5.7363737            0   -3.8293102    5.7159049    4387.6158 
    1800    1.2561313   -5.8008832            0   -3.9171572    5.6027564    4366.0004 
    1900     1.242552   -5.8327759            0   -3.9694139    5.6800198    4347.3872 
    2000    1.2686809   -5.8614487            0   -3.9589031    5.5394068    4347.1855 
Loop time of 0.311357 on 24 procs for 1000 steps with 4000 atoms

Performance: 554990.148 tau/day, 3211.749 timesteps/s
99.8% CPU use with 24 MPI tasks x no OpenMP threads

MPI task timing breakdown:
Section |  min time  |  avg time  |  max time  |%varavg| %total
---------------------------------------------------------------
Pair    | 0.18076    | 0.18464    | 0.19294    |   0.7 | 59.30
Neigh   | 0.030583   | 0.031226   | 0.032082   |   0.2 | 10.03
Comm    | 0.064341   | 0.071759   | 0.076673   |   1.2 | 23.05
Output  | 0.00020457 | 0.00021004 | 0.00027418 |   0.0 |  0.07
Modify  | 0.019511   | 0.021049   | 0.0222     |   0.5 |  6.76
Other   |            | 0.002469   |            |       |  0.79

Nlocal:        166.667 ave         176 max         159 min
Histogram: 1 1 7 1 4 5 1 3 0 1
Nghost:        2035.25 ave        2048 max        2013 min
Histogram: 1 0 2 0 4 2 5 1 6 3
Neighs:        17526.7 ave       18387 max       16728 min
Histogram: 3 2 3 3 2 3 1 2 2 3

Total # of neighbors = 420641
Ave neighs/atom = 105.16025
Neighbor list builds = 76
Dangerous builds = 5


# Small amount of linear quench

fix 1 all npt temp 1.25 ${temp} 0.1 iso 5.68 5.68 0.5 mtk yes tchain 5 pchain 5
fix 1 all npt temp 1.25 1.6 0.1 iso 5.68 5.68 0.5 mtk yes tchain 5 pchain 5
run 2000
Per MPI rank memory allocation (min/avg/max) = 3.677 | 3.680 | 3.685 Mbytes
Step Temp E_pair E_mol TotEng Press Volume 
    2000    1.2686809   -5.8614487            0   -3.9589031    5.5394068    4347.1855 
    2100    1.2786815   -5.8165623            0   -3.8990196    5.7325339    4349.4312 
    2200    1.2730419   -5.8057314            0   -3.8966459    5.6386349    4365.2549 
    2300    1.2897539   -5.7837599            0   -3.8496127    5.4897177    4389.4446 
    2400    1.3246928   -5.7437711            0   -3.7572287    5.6998303    4386.9196 
    2500    1.3463406   -5.7261261            0     -3.70712    5.5971858    4408.4746 
    2600    1.3393177   -5.6939449            0   -3.6854706    5.8078228    4402.6563 
    2700    1.3511991   -5.6397311            0   -3.6134392    5.8872168     4420.053 
    2800    1.4069213   -5.6721584            0    -3.562304    5.6452028    4428.9272 
    2900    1.3949561    -5.610222            0   -3.5183109     5.605829    4464.4276 
    3000    1.4132053   -5.6211727            0   -3.5018946    5.6110372    4457.8462 
    3100    1.4318781   -5.5835349            0   -3.4362546    5.7435466    4462.3255 
    3200    1.4593131   -5.5673809            0   -3.3789585     5.808566    4469.8032 
    3300     1.462002   -5.4983376            0   -3.3058829    5.7901438    4500.3115 
    3400    1.5003501   -5.4970483            0   -3.2470857    5.7752934    4506.7648 
    3500    1.4668925   -5.4843722            0   -3.2845836    5.5234481    4534.2469 
    3600    1.5081607   -5.4522043            0   -3.1905287      5.63555    4540.2944 
    3700    1.5446247   -5.4317012            0   -3.1153434    5.7658276    4542.0408 
    3800    1.5670204   -5.4226432            0   -3.0727002    5.6858525    4556.2486 
    3900    1.5748802   -5.4186552            0   -3.0569255    5.6472984    4563.9004 
    4000     1.599663   -5.3869822            0   -2.9880875    5.4378632    4603.3716 
Loop time of 0.629385 on 24 procs for 2000 steps with 4000 atoms

Performance: 549107.029 tau/day, 3177.703 timesteps/s
99.7% CPU use with 24 MPI tasks x no OpenMP threads

MPI task timing breakdown:
Section |  min time  |  avg time  |  max time  |%varavg| %total
---------------------------------------------------------------
Pair    | 0.36546    | 0.37768    | 0.39447    |   1.0 | 60.01
Neigh   | 0.057563   | 0.058628   | 0.059854   |   0.3 |  9.32
Comm    | 0.13058    | 0.14465    | 0.15896    |   1.8 | 22.98
Output  | 0.00041148 | 0.00042376 | 0.00056424 |   0.0 |  0.07
Modify  | 0.03854    | 0.042487   | 0.045705   |   1.1 |  6.75
Other   |            | 0.005517   |            |       |  0.88

Nlocal:        166.667 ave         176 max         158 min
Histogram: 1 3 3 3 2 3 3 4 0 2
Nghost:        1972.75 ave        1989 max        1950 min
Histogram: 2 1 0 1 3 4 5 3 3 2
Neighs:        16552.8 ave       17924 max       15504 min
Histogram: 1 2 4 7 2 2 3 1 0 2

Total # of neighbors = 397266
Ave neighs/atom = 99.316500
Neighbor list builds = 140
Dangerous builds = 0

#############################
# F R E E Z E  S Y S T E M  #
#############################

# Define solid atoms. This closely follows ten Wolde  Ruiz-Montero and Frenkel  Faraday Discuss  1996  104  93-110
# Compute components of the per-atom q6 vector
compute q6 all orientorder/atom degrees 1 6 components 6 nnn NULL cutoff 1.3 # compute the Q6 parameter.
                                                                             # Use all neighbours within 1.3 unit cell.

# get number of connections
compute coord_number all coord/atom orientorder q6 0.5

# An atom is solid if it has 8 or more connections (of a possible 14)
variable is_solid atom c_coord_number>=8
group solid dynamic all var is_solid    # Must be dynamic to update
dynamic group solid defined

# do clustering
compute cluster solid cluster/atom 1.3 # Create a cluster where all atoms within are solid and max 1.3 units from another member

# define chunks one chunk per cluster
compute clus_chunks solid chunk/atom c_cluster nchunk every compress yes  # Says which atoms are in which chunk

# count the size of each chunk
compute size_chunks solid property/chunk clus_chunks count


# Find the maximum entry in the vector of chunk sizes
variable max_n equal max(c_size_chunks)


# Thermo style which includes this variable
thermo_style custom step temp pe vol v_max_n

thermo ${N}  # Print the thermo information every 100 steps
thermo 100  

# Reset the npt fix at a lower temperature (below freezing)
fix 1  all npt temp  ${temp} ${temp}  0.1  iso  5.68  5.68  0.5  mtk yes tchain  5  pchain  5
fix 1  all npt temp  1.6 ${temp}  0.1  iso  5.68  5.68  0.5  mtk yes tchain  5  pchain  5
fix 1  all npt temp  1.6 1.6  0.1  iso  5.68  5.68  0.5  mtk yes tchain  5  pchain  5

dump dmp2 all dcd ${N} traj_${rand}.dcd
dump dmp2 all dcd 100 traj_${rand}.dcd
dump dmp2 all dcd 100 traj_462431.dcd


# fix rnuntil all halt ${N} v_max_n >= 3980 error soft message no   # Stop when solidified


run 100000 # 5000000  # Run for this many steps
Neighbor list info ...
  update every 1 steps, delay 10 steps, check yes
  max neighbors/atom: 2000, page size: 100000
  master list distance cutoff = 3.8
  ghost atom cutoff = 3.8
  binsize = 1.9, bins = 9 9 9
  4 neighbor lists, perpetual/occasional/extra = 1 3 0
  (1) pair lj/cut, perpetual
      attributes: half, newton on
      pair build: half/bin/atomonly/newton
      stencil: half/bin/3d
      bin: standard
  (2) compute orientorder/atom, occasional
      attributes: full, newton on
      pair build: full/bin/atomonly
      stencil: full/bin/3d
      bin: standard
  (3) compute coord/atom, occasional
      attributes: full, newton on
      pair build: full/bin/atomonly
      stencil: full/bin/3d
      bin: standard
  (4) compute cluster/atom, occasional
      attributes: full, newton on
      pair build: full/bin/atomonly
      stencil: full/bin/3d
      bin: standard
Per MPI rank memory allocation (min/avg/max) = 9.458 | 9.464 | 9.468 Mbytes
Step Temp PotEng Volume v_max_n 
    4000     1.599663   -5.3869822    4603.3716            1 
    4100    1.6167087   -5.3343003    4607.7961            1 
    4200    1.5863165   -5.3056309    4597.2414            2 
    4300    1.5792838   -5.3394031    4584.3885            1 
    4400    1.5811326   -5.3287854    4609.3525            2 
    4500    1.5926718   -5.2928428    4626.3641            1 
    4600    1.5997967   -5.3075498    4625.2471            3 
    4700    1.5766929   -5.3061974    4590.5438            2 
    4800    1.6305087   -5.2848161    4598.3236            1 
    4900    1.5920556   -5.2681826    4623.8255            2 
    5000    1.5807235   -5.3183176    4626.9646            1 
    5100    1.5981594    -5.320994    4607.1586            1 
    5200    1.6192182   -5.2919039    4624.5059            1 
    5300     1.588232   -5.2714569    4624.9062            2 
    5400    1.5826538    -5.310272    4580.3124            4 
    5500    1.5764823   -5.2954404    4607.4908            2 
    5600     1.604746   -5.3444496    4627.6943            3 
    5700    1.5746889   -5.3578541    4605.3029            2 
    5800    1.5835035   -5.3036787    4577.0095            2 
    5900    1.6133152   -5.3088103    4597.9508            1 
    6000    1.5638261   -5.3461195    4625.6205            2 
    6100    1.6179595   -5.3231517    4606.6881            3 
    6200    1.6401122   -5.2852281    4600.4672            1 
    6300    1.5860271   -5.3215684    4611.7352            2 
    6400    1.6063203   -5.3003787    4625.7426            1 
    6500    1.6042554   -5.2467008    4661.0102            2 
    6600    1.6544531   -5.3067167    4623.1109            2 
    6700    1.5816712   -5.3200767    4610.5421            1 
    6800    1.6220366   -5.3052621    4598.4901            2 
    6900     1.605639   -5.3199541    4603.0616            1 
    7000    1.5629851    -5.304751     4626.496            1 
    7100    1.6138223   -5.3089794    4634.6252            1 
    7200    1.6276929   -5.3072044    4613.9277            3 
    7300    1.5879746   -5.3199873    4608.0024            3 
    7400    1.5697136   -5.2740481    4639.7369            3 
    7500    1.6116321   -5.3128976    4609.4311            1 
    7600    1.6308813    -5.350809    4594.2918            1 
    7700    1.5710381   -5.3214684    4627.6337            1 
    7800    1.5863826   -5.2853715    4607.5401            1 
    7900    1.6115115   -5.3138998    4587.5529            2 
    8000    1.5695899   -5.3628537    4601.8527            1 
    8100    1.5806609   -5.3097929    4619.5307            1 
    8200    1.6144255   -5.3064048    4632.1962            2 
    8300    1.6051439    -5.309732     4611.384            1 
    8400    1.6302256   -5.3433738    4606.8243            2 
    8500    1.5666467   -5.3277139    4623.9885            1 
    8600    1.6132008   -5.3247257    4604.5458            2 
    8700     1.586763   -5.3096427    4599.9936            3 
    8800    1.6057888   -5.3128245    4616.8434            3 
    8900     1.591775   -5.2651766     4626.577            2 
    9000    1.6164359   -5.3400046    4615.4684            1 
    9100    1.5740341   -5.3042586    4619.1407            2 
    9200    1.5850298   -5.2566923    4616.5126            3 
    9300    1.6116032   -5.2686098    4627.4842            3 
    9400    1.6014457   -5.3165357    4626.6723            5 
    9500    1.5863904   -5.3155578    4596.3776            1 
    9600    1.5964813   -5.2781137    4610.9434            3 
    9700    1.6067514   -5.3139831    4629.1865            1 
    9800    1.5652421   -5.3250095    4605.3395       -1e+20 
    9900    1.6123446   -5.3065506    4604.1152            2 
   10000    1.5990851   -5.2827189    4627.1205            1 
   10100    1.6602001   -5.2853654    4650.4565            2 
   10200    1.5917309   -5.2716678    4621.0577            2 
   10300    1.5712759   -5.2523461    4632.0318            1 
   10400    1.6189824   -5.3072933     4636.151            2 
   10500    1.6160064   -5.3104279    4628.2025            1 
   10600    1.5782577   -5.2830332    4597.0761            2 
   10700    1.5850434    -5.287104    4607.5114            1 
   10800    1.6023706   -5.2936617    4627.6517            1 
   10900    1.5929671   -5.3044596    4606.5234            1 
   11000    1.5959184   -5.3205811    4597.2121            1 
   11100    1.6193522   -5.2851197    4621.6801            1 
   11200    1.5731124   -5.3092104    4609.1802            4 
   11300    1.5768923   -5.3383249    4613.9388            1 
   11400    1.6252249    -5.314621    4588.1174            2 
   11500    1.6292951   -5.2787547    4623.1024            1 
   11600    1.5846743   -5.3009856    4632.4255            2 
   11700    1.6054513   -5.2913488    4624.0509            2 
   11800    1.6167081   -5.2749662    4622.3419            1 
   11900    1.5971798   -5.3205259    4597.8235            2 
   12000     1.605459   -5.3573078    4584.5507            2 
   12100     1.569708   -5.3194752    4613.3957            2 
   12200    1.5875572   -5.3036902    4606.9863            1 
   12300    1.6258521   -5.2659633    4601.1701            2 
   12400    1.6225614    -5.325778    4629.9811            2 
   12500    1.5956496   -5.3372065    4624.9416            2 
   12600    1.6193302   -5.2899048    4607.4198            2 
   12700    1.6210691    -5.305579    4619.5726            2 
   12800    1.5889266    -5.348757    4621.4709            2 
   12900    1.6012812   -5.2889219    4627.7083            3 
   13000    1.6188752    -5.294887    4632.4644            1 
   13100    1.6062481   -5.2954834    4616.3339            1 
   13200    1.5855329   -5.2984512    4614.8753            3 
   13300    1.5682697   -5.3142898    4610.7033            2 
   13400    1.6548821    -5.355906    4580.6469            2 
   13500    1.5920772   -5.3377566    4594.9743            2 
   13600    1.5418689   -5.3667779    4609.9646            1 
   13700     1.596479   -5.3139463      4605.53            2 
   13800    1.6117186   -5.3060303    4602.1844            1 
   13900    1.5671861   -5.3137893    4596.1083            2 
   14000    1.5674721   -5.2470143     4622.453            2 
   14100     1.625648   -5.2791456    4622.0714            1 
   14200    1.6024291   -5.3122554    4602.9812            3 
   14300    1.5778619   -5.3062677    4612.8288            1 
   14400    1.6095091   -5.2880975    4630.1432            1 
   14500    1.6210274   -5.3073966    4607.6265            1 
   14600    1.5980345   -5.3551175    4601.5178            1 
   14700    1.5811418   -5.2973165    4618.1385            1 
   14800    1.6174266   -5.2559046    4634.4401            1 
   14900    1.6368813   -5.3604551    4616.2122            1 
   15000    1.5694841   -5.3406469    4613.5076            1 
   15100    1.6228001   -5.3333105     4596.232            2 
   15200    1.5765018   -5.3303877    4593.8694            3 
   15300    1.5604962     -5.34314    4584.7231            1 
   15400    1.6082074   -5.3174035    4607.1325            2 
   15500    1.6012189   -5.3590801    4613.8706            1 
   15600    1.5723882   -5.3483399    4604.1048            1 
   15700    1.6256482   -5.3133201    4595.4559            2 
   15800    1.5795777   -5.3013573    4611.4539            1 
   15900     1.605112   -5.3674607    4604.9951            2 
   16000    1.5892278   -5.3589178    4599.8143            2 
   16100    1.5973647   -5.2928579    4615.9658            2 
   16200    1.5877339   -5.2740518     4604.149            2 
   16300    1.5989196   -5.3120403    4602.3321            1 
   16400    1.5802876   -5.3013208     4645.148            1 
   16500    1.6186315   -5.3124727    4620.4612            2 
   16600    1.6121691   -5.2983997    4589.5098            2 
   16700    1.5914725   -5.3376446    4613.6809            1 
   16800     1.612295   -5.3039371    4634.1457            1 
   16900    1.5671854   -5.2862073    4625.6712            2 
   17000    1.6371358    -5.282084     4632.094            1 
   17100    1.6062582   -5.2941385    4605.9266            2 
   17200    1.6067778   -5.3196642    4613.5301            1 
   17300    1.6007405    -5.318955    4637.0572       -1e+20 
   17400    1.6002875    -5.307332    4601.6014            2 
   17500    1.5857244   -5.3271104    4605.5586            1 
   17600    1.5890701   -5.2773287    4622.1096            2 
   17700     1.613225   -5.3265056     4597.934            1 
   17800    1.5801772   -5.3154628    4595.2694            2 
   17900    1.6263037   -5.3381023    4618.9782            1 
   18000    1.5869124   -5.3438791    4576.7905            3 
   18100    1.6168278   -5.3633582     4585.803            3 
   18200    1.5884774   -5.2974787    4631.7766            2 
   18300    1.5952386   -5.3203695    4629.4461            1 
   18400    1.6240486   -5.3423416    4608.7033            1 
   18500    1.6027568   -5.3595851    4612.8092            2 
   18600    1.6346836   -5.3237738    4624.9937            2 
   18700    1.5988545   -5.2955281    4589.9349            1 
   18800    1.5989733   -5.3388996    4599.4082            2 
   18900    1.6068933   -5.3284796    4624.9273            3 
   19000    1.6010971   -5.3012748    4614.9715            3 
   19100    1.6129161   -5.3002898    4586.5312            1 
   19200    1.6104975   -5.2560892    4626.1066            1 
   19300    1.6009497   -5.3073701    4630.0838            2 
   19400    1.5846492   -5.2891048    4612.9207            1 
   19500    1.6222966   -5.3149466    4625.8477            3 
   19600    1.6048001   -5.3161464    4611.8868            2 
   19700     1.600849    -5.329491    4584.1518            1 
   19800    1.5911635   -5.3212625    4592.7912            2 
   19900    1.5766875   -5.3035717    4639.8307            1 
   20000    1.6243374   -5.3006316    4621.4761            1 
   20100    1.6104863   -5.3227855    4588.1722            3 
   20200    1.5614084   -5.3770666    4612.0042            1 
   20300    1.6106502   -5.3512743    4605.7699            1 
   20400    1.6373573   -5.3447809    4600.6753            1 
   20500    1.5565779   -5.3386603    4616.7551            2 
   20600    1.6194226   -5.3304634    4599.7726            1 
   20700    1.6236209   -5.3292134    4593.1198            4 
   20800    1.5826794   -5.3672266    4603.6833            2 
   20900    1.5949809   -5.3429562    4614.9348            1 
   21000    1.6181822   -5.3309552    4609.3871            1 
   21100    1.6138755   -5.2985134    4615.7702            2 
   21200    1.5591242   -5.3070282     4636.877            1 
   21300    1.6444061   -5.3251812         4586            1 
   21400    1.6018655    -5.320024    4606.5084            2 
   21500    1.6202297   -5.3313784    4638.7055            1 
   21600    1.5695532   -5.2662754     4604.225            3 
   21700    1.6380709   -5.3307695    4606.3641            2 
   21800    1.5935098   -5.2967147    4633.2276            1 
   21900    1.5880245   -5.3424806    4611.5096            2 
   22000     1.640809   -5.3225451     4629.031            1 
   22100    1.6013458   -5.3086929    4592.6471            2 
   22200    1.5816952   -5.3269065    4581.3992            2 
   22300    1.5947938   -5.3112701    4576.7933            1 
   22400    1.6075779   -5.2840256    4607.5352            3 
   22500    1.6186575   -5.3153922    4635.8696            1 
   22600     1.613164   -5.3485635    4609.9257            2 
   22700    1.6054973   -5.3389263    4602.4483            2 
   22800    1.5807985   -5.2895446    4611.1379            1 
   22900    1.6372278   -5.3213337     4616.073            2 
   23000    1.6024166   -5.3412643    4601.6926            1 
   23100    1.6078118   -5.3257661    4620.7497            2 
   23200    1.5970936   -5.2734267    4635.3268            1 
   23300    1.5816306   -5.2894931    4630.6667            1 
   23400    1.6095839    -5.313171    4613.7056            1 
   23500    1.5752415   -5.3052251     4589.573            2 
   23600    1.5918305   -5.2512781    4627.8233            4 
   23700    1.5963148   -5.2782924    4600.3438            3 
   23800     1.600281   -5.3279273    4609.7671            2 
   23900    1.5836186   -5.3307695    4599.5496            1 
   24000    1.6219187   -5.3569082    4573.3806            3 
   24100    1.6118718   -5.3492683     4588.249            2 
   24200    1.5715861   -5.3383863    4622.5893            1 
   24300     1.604784   -5.3339075    4612.3279            4 
   24400    1.6183463   -5.3241644     4613.495            1 
   24500    1.5881711   -5.2876024    4620.9442            1 
   24600      1.59588   -5.3019905    4596.6579            2 
   24700    1.6400402   -5.2795184    4636.1213            1 
   24800    1.6375394   -5.3012685      4625.14            1 
   24900    1.5677115   -5.3000968    4618.4919            1 
   25000    1.6411118   -5.3386753    4603.7672            1 
   25100    1.6021235   -5.3691069    4596.9354            3 
   25200    1.6252182   -5.3646805    4616.1692            2 
   25300    1.5785608   -5.2818781    4624.5401            4 
   25400    1.6321249    -5.304245    4597.1519            2 
   25500     1.583603   -5.3167472    4602.2934            4 
   25600    1.5995176   -5.2823759    4619.2444            2 
   25700    1.6197291   -5.3014423    4634.6196            1 
   25800    1.6166231   -5.3315574    4613.0866            1 
   25900    1.6099961   -5.3469835    4612.3384            2 
   26000    1.5656334   -5.3497503    4599.5864            1 
   26100    1.6152618   -5.3283716    4585.8069            5 
   26200     1.601957    -5.325896    4601.5137            3 
   26300    1.5791348   -5.3201756    4619.6164            2 
   26400    1.6141458   -5.2998463     4602.759            1 
   26500    1.5952624   -5.3066574    4574.4813            2 
   26600    1.5769312   -5.3570343    4605.0447            1 
   26700    1.6019364   -5.3283812     4624.427            1 
   26800    1.6410098    -5.296779    4617.5423            1 
   26900    1.5843747   -5.2832005    4621.3605            3 
   27000      1.61501    -5.315749    4617.6708            2 
   27100    1.5697347   -5.3250806     4605.402            1 
   27200    1.6102528   -5.3217446    4595.7107            2 
   27300     1.600536   -5.2739846    4634.9645            1 
   27400    1.6416245    -5.336054    4619.1101            1 
   27500    1.5932915   -5.3362162    4617.2698            2 
   27600    1.6219658   -5.2984004    4614.7182            1 
   27700    1.6190026   -5.2552534    4633.4165            1 
   27800    1.6121228   -5.3157562    4608.0668            1 
   27900    1.5736012   -5.3167445    4623.9522            1 
   28000    1.6209657   -5.3351791    4621.4172            1 
   28100    1.5887481   -5.3050912    4600.6447            1 
   28200    1.6207195   -5.2764624    4620.9569            2 
   28300    1.6093408   -5.3302161    4620.9619            3 
   28400    1.5630965   -5.3413206    4602.0994            1 
   28500    1.6161482   -5.3292825    4599.5906            2 
   28600    1.6215713   -5.3155465    4611.7007            1 
   28700    1.5745604   -5.3245812    4637.9042            3 
   28800    1.5688458   -5.3437784    4590.4628            3 
   28900    1.5951009   -5.3158137    4576.5984            2 
   29000    1.6330503   -5.3307446    4617.8672            2 
   29100    1.5923501   -5.3340528    4615.7795            4 
   29200    1.5871528   -5.2934989    4597.5267            1 
   29300    1.6155606   -5.3002651    4605.2381            2 
   29400    1.6117258   -5.3047697    4625.4761            1 
   29500    1.5774332   -5.3099645    4591.2923            3 
   29600    1.5886782   -5.3704565    4594.7669            1 
   29700    1.6275886   -5.3563595    4612.1753            1 
   29800    1.5988717   -5.3485844    4608.8286            1 
   29900    1.6081556   -5.3307442    4587.4191            2 
   30000    1.5868467   -5.2896176      4613.46            2 
   30100    1.6067137   -5.2977515      4625.29            1 
   30200    1.6099987   -5.2916559    4629.7536            2 
   30300    1.6047638     -5.30612    4625.7487            1 
   30400    1.5910429   -5.3416619    4607.5661            1 
   30500    1.6087817   -5.2777171    4610.3231            1 
   30600    1.6027928   -5.3047169    4628.0409            2 
   30700     1.573575   -5.3437073    4617.3476            2 
   30800    1.5890149   -5.3023802    4576.2257            1 
   30900    1.6037185   -5.2799355    4605.4419            1 
   31000    1.5778659   -5.2898983    4638.2717            2 
   31100    1.6133626     -5.26299    4637.9276            3 
   31200    1.6072488   -5.3243638    4608.8513            5 
   31300    1.5975076   -5.3427785    4620.9753            5 
   31400    1.6108721   -5.2794764    4622.7173            2 
   31500     1.594098   -5.2578208    4596.2921            1 
   31600    1.5828465   -5.3294972    4626.6382            1 
   31700    1.5841326   -5.2951099    4623.7988            1 
   31800    1.6172634   -5.2658162     4600.515            1 
   31900    1.6117118   -5.2971602    4620.7069            2 
   32000    1.5601761   -5.3277528    4613.4847            4 
   32100     1.604921   -5.3340224    4607.6519            1 
   32200    1.6407858   -5.2996217    4617.2505            3 
   32300    1.5931534   -5.3412844    4618.1499            2 
   32400     1.597367   -5.3426656    4618.3289            4 
   32500     1.613114    -5.286153    4623.4577            3 
   32600    1.6287907   -5.2872106    4625.9487            1 
   32700    1.6113078   -5.3542707    4624.1084            1 
   32800    1.5800661   -5.3250047    4606.2648            2 
   32900    1.6076981    -5.307629    4598.0204            1 
   33000    1.5974014   -5.2958624     4620.348            2 
   33100    1.6018056   -5.2947201    4645.6039            1 
   33200    1.5776007   -5.3226607    4597.9895            3 
   33300    1.6070483   -5.3005865     4615.054            4 
   33400    1.5788794   -5.2745303     4623.411            2 
   33500    1.6513849   -5.3088775    4609.6211            1 
   33600    1.5845779   -5.3110087    4621.4691            1 
   33700    1.5865409   -5.3213002    4629.4352            3 
   33800    1.6181758   -5.2794233    4608.1438            2 
   33900    1.6131851   -5.3209594    4601.5399            2 
   34000    1.5715267   -5.3332204    4607.6965            1 
   34100    1.5984161   -5.3040359    4609.8636            1 
   34200    1.6097077   -5.3254925    4583.0752            3 
   34300    1.5585465   -5.3249367    4619.2727            2 
   34400    1.5952789   -5.2956666    4614.7909            4 
   34500    1.6008048   -5.2786207    4597.8828            1 
   34600     1.582323   -5.3095607    4595.3386            1 
   34700    1.5732767   -5.2449979    4646.3243            2 
   34800    1.6045103   -5.2707651    4623.6218            1 
   34900    1.6035144   -5.2940513    4610.8565            1 
   35000    1.5690124   -5.3302445    4606.8223            3 
   35100    1.6005728   -5.3240116    4617.4527            2 
   35200    1.6285871   -5.3163343    4627.6873            1 
   35300    1.5880402    -5.313254    4609.7544            1 
   35400    1.5808948    -5.277437    4622.8781            2 
   35500    1.6357978   -5.3171418    4601.4137            2 
   35600     1.570917   -5.2975285    4611.1103            2 
   35700    1.5927766   -5.2873495    4615.5499            3 
   35800     1.591388    -5.272305    4613.1294            3 
   35900    1.5778582   -5.3167008    4618.6336            2 
   36000    1.6100822   -5.3023703    4614.2332            1 
   36100    1.6226282   -5.3179214    4616.6225            2 
   36200    1.5755749   -5.2989161    4620.9926            1 
   36300    1.5946406    -5.281325    4607.0717            1 
   36400    1.6242179   -5.2963567    4608.1166            2 
   36500     1.583181   -5.3368592    4623.0876            2 
   36600    1.5608465   -5.3417297    4628.3242            1 
   36700    1.6150761   -5.3038771    4616.8258            1 
   36800    1.6056019   -5.2864705    4610.9347            1 
   36900    1.5743589   -5.2815686    4612.6781            2 
   37000    1.6000069   -5.3485213    4602.4184            2 
   37100    1.5884967   -5.3469791    4586.4771            1 
   37200    1.6129106   -5.3332285     4619.387            2 
   37300    1.5827244   -5.2810656    4625.6724            1 
   37400    1.6441668    -5.285689    4604.5817            1 
   37500    1.5855368   -5.2912403    4611.6697            2 
   37600    1.5664727   -5.3188314    4632.6041            2 
   37700    1.6471933    -5.319133    4606.2171            2 
   37800    1.5926984   -5.2982469    4599.7045            4 
   37900    1.5891608   -5.3077525    4617.8684            2 
   38000    1.5856535   -5.2997355    4618.2463            2 
   38100    1.5765543   -5.3099411    4591.0175            2 
   38200    1.5949875   -5.2635412    4613.0883            3 
   38300    1.6259691   -5.2943032    4607.2933            1 
   38400    1.5690811   -5.3295685    4628.0517            2 
   38500    1.6111016   -5.3239097    4618.5492            2 
   38600    1.6334841   -5.2883352     4619.337            4 
   38700    1.5789993   -5.2681561    4634.8482            2 
   38800    1.5614319   -5.3170199    4606.0181            1 
   38900    1.6070425   -5.3192275    4598.6754            2 
   39000    1.5807983   -5.3452461    4612.8276            1 
   39100    1.6331705   -5.3389798    4604.0343            1 
   39200    1.5825802   -5.2826602    4610.2596            2 
   39300    1.6041995   -5.3154183    4634.9847            1 
   39400    1.5796288   -5.3357536    4616.2344            1 
   39500    1.6134429   -5.3442313    4584.9702            1 
   39600    1.6202843   -5.2946209    4610.9761            2 
   39700    1.6123808   -5.2948825    4611.9949            2 
   39800    1.5784866   -5.3367754    4600.7097            1 
   39900     1.618659   -5.3462915    4616.7115            5 
   40000    1.6039964   -5.3313839    4622.5848            1 
   40100    1.6242918   -5.3146729    4617.4533            1 
   40200    1.6477649   -5.2722055    4657.4428            2 
   40300    1.6153944    -5.266786    4611.4543            1 
   40400    1.5924563   -5.2887005     4624.023            1 
   40500    1.6348325   -5.2866395    4645.5267            3 
   40600    1.6159234    -5.307383     4627.282            1 
   40700    1.5999467   -5.3255732    4625.2627            1 
   40800    1.6073101   -5.3054947     4621.463            1 
   40900    1.6522993   -5.3050284    4610.1391            1 
   41000     1.600201   -5.3316932    4617.7597            1 
   41100    1.5739682   -5.3342035    4613.6154            4 
   41200    1.6238761   -5.3392621    4579.5002            2 
   41300    1.5904978    -5.307797    4605.7259            1 
   41400    1.5870109   -5.3015791    4630.5421            1 
   41500    1.6221378    -5.331801    4611.8031            3 
   41600     1.630584   -5.3277595    4624.0169            2 
   41700     1.578647   -5.3018455    4634.1083            1 
   41800    1.5799681   -5.3418649    4593.2326            1 
   41900    1.6121531   -5.3147616    4582.5656            2 
   42000    1.6203161   -5.3205029    4627.6276            1 
   42100    1.5621576    -5.287772    4645.9546            1 
   42200    1.6155395   -5.2998481     4599.928            3 
   42300    1.5851354   -5.2771785    4611.8685            1 
   42400    1.5951544   -5.2898228    4638.8971            1 
   42500      1.56523   -5.2702162    4627.5659            1 
   42600    1.6321813   -5.2932808    4592.6151            2 
   42700    1.5740501    -5.275142    4616.6364            3 
   42800    1.5996451   -5.3361995    4599.1401            2 
   42900    1.5622801   -5.3148689    4597.8395            2 
   43000    1.6298886   -5.3407168    4612.1259            2 
   43100    1.5661081   -5.3106902    4608.7728            1 
   43200    1.6495401   -5.3431709     4611.343            2 
   43300    1.5997369   -5.3275449    4612.6867            2 
   43400     1.530786   -5.3061208    4596.3861            1 
   43500    1.6071256   -5.2963305    4579.5036            2 
   43600     1.603356   -5.3316123    4604.7653            1 
   43700    1.5796957    -5.358159    4622.5988            1 
   43800    1.6044803   -5.3222462    4607.2351            1 
   43900    1.6395925   -5.2921606     4609.839            1 
   44000    1.5691053   -5.2724643    4603.6565            3 
   44100    1.6123888   -5.3466589    4612.4615            1 
   44200    1.5650264   -5.3697293    4610.0706            2 
   44300    1.6106191    -5.343368    4583.3825            2 
   44400     1.640583   -5.3473451    4606.5282            1 
   44500    1.5850279   -5.3436513    4624.0358            1 
   44600    1.6201559   -5.3237681    4603.0081            1 
   44700     1.631813   -5.3128945     4608.925            1 
   44800    1.5645939   -5.3116268    4614.0611            2 
   44900    1.5780939   -5.3374833    4596.0766            1 
   45000    1.6115137   -5.3365329    4570.0093            2 
   45100    1.5809995   -5.3342226    4615.1979            2 
   45200    1.6076901   -5.3255179    4623.8765            1 
   45300    1.6072754    -5.293556    4614.1134            1 
   45400    1.5821083   -5.3137701    4610.5462            1 
   45500    1.6394705   -5.3168611     4612.727            2 
   45600    1.5971071    -5.275007    4637.6246            2 
   45700    1.6028569   -5.3092057    4612.5485            2 
   45800    1.5999454    -5.354272    4591.9999            2 
   45900    1.6231451   -5.3163543    4606.2768            2 
   46000    1.5770341   -5.2651821    4630.9878            2 
   46100    1.5770292   -5.2955309    4617.3895            3 
   46200    1.6120462   -5.3396377    4601.9014            2 
   46300    1.6218695   -5.2981015    4616.7588            1 
   46400    1.5790128   -5.3385981    4613.4262            1 
   46500    1.5804033   -5.2960457    4613.3344            2 
   46600    1.6187015   -5.2803834    4629.3088            2 
   46700    1.5896792   -5.2794799    4607.6051            2 
   46800    1.5749741   -5.2969424    4601.4064            2 
   46900    1.5969229   -5.3150809    4603.4189            3 
   47000    1.6279347   -5.3434451    4617.7806            2 
   47100    1.6021155    -5.355631    4616.2328            1 
   47200    1.5955755   -5.3203119    4601.6109            2 
   47300    1.6303594   -5.2999377    4617.7788            1 
   47400    1.5928137   -5.2967041    4634.0438            2 
   47500    1.5735688   -5.3225069    4607.9346            2 
   47600    1.6137915   -5.3105936    4595.0167            5 
   47700    1.5930445   -5.2892163    4605.2195            1 
   47800    1.5982484    -5.331558    4616.4823            1 
   47900    1.5694623   -5.3579563     4609.534            1 
   48000    1.5872322   -5.2936115    4600.1584            1 
   48100    1.6136377    -5.296572    4608.1346            4 
   48200    1.5665461   -5.3014088    4624.7085            1 
   48300    1.6062774   -5.3020179    4610.5695            1 
   48400    1.5882759   -5.2890522    4615.5469            2 
   48500    1.6205607   -5.2999596    4642.7202            2 
   48600    1.6071562   -5.3389745    4610.6939            1 
   48700    1.5824499   -5.3054345     4603.946            2 
   48800    1.6187368   -5.2786499    4617.2177            1 
   48900    1.6036939   -5.3096486    4625.6845            2 
   49000    1.5543372   -5.3394303    4622.1763            2 
   49100    1.6231913    -5.343593    4600.8601            1 
   49200     1.606955   -5.2922131    4612.6933            1 
   49300    1.5871423   -5.2824547    4647.3397            2 
   49400     1.638174   -5.3450427    4587.6477            2 
   49500    1.5839818   -5.3279063    4585.3646            2 
   49600    1.5737742   -5.3055872    4638.4383            1 
   49700    1.5985276   -5.2948926    4602.8419            2 
   49800    1.6314403   -5.3222287    4589.9383            3 
   49900    1.5629563    -5.345249     4618.136            1 
   50000    1.6132522   -5.3540155    4611.3729            3 
   50100    1.5746458   -5.3271158     4597.811            1 
   50200    1.6357832   -5.3380998    4611.2442            1 
   50300    1.5907425   -5.3270935    4611.0982            1 
   50400    1.5867795   -5.3131674    4599.9543            2 
   50500    1.6082232    -5.322447    4589.0686            1 
   50600    1.5905004   -5.3024564    4633.4758            1 
   50700    1.6069508   -5.2824235    4655.8334            2 
   50800    1.5962089   -5.2989708    4604.8896            2 
   50900    1.5817482   -5.2746566    4605.4827            2 
   51000    1.6009584    -5.286013    4620.7532            1 
   51100    1.6007926   -5.3595309    4591.4505            1 
   51200     1.596335   -5.3620897    4595.9377            1 
   51300    1.6026173   -5.3259593    4618.3572            1 
   51400    1.5898428     -5.25988    4615.6735            3 
   51500     1.574938    -5.319328    4589.6063            2 
   51600    1.5954554    -5.332884    4609.8357            2 
   51700    1.6078075   -5.2758136    4638.0452            1 
   51800    1.6099576   -5.3228444    4622.1028            3 
   51900    1.6153771   -5.3242794    4600.8854            2 
   52000    1.5656081   -5.3276558    4608.9905            2 
   52100    1.5973348   -5.3034555    4625.5362            2 
   52200    1.5768733   -5.2564433    4630.5901            1 
   52300     1.635087   -5.2660933     4618.574            2 
   52400    1.6076209   -5.2987304    4607.0475            3 
   52500    1.5722665   -5.3062307    4625.7228            1 
   52600      1.56757   -5.2999018    4615.8131            1 
   52700    1.6277011   -5.3099743    4592.0212            1 
   52800    1.5757884   -5.2918611    4608.6516            2 
   52900    1.6019828   -5.2741426    4620.7146            2 
   53000    1.6143024   -5.2742608    4627.5483            2 
   53100    1.6075922    -5.349825    4607.0525            1 
   53200    1.6056606   -5.3198882    4633.7725            2 
   53300     1.599979   -5.2610122    4632.9894            2 
   53400    1.6110277   -5.3069896     4583.871            1 
   53500    1.5981465   -5.3411675    4605.0364            2 
   53600    1.5981905   -5.3233622    4630.1572            1 
   53700    1.6247016   -5.3057335    4612.4239            1 
   53800    1.5886247   -5.2809997    4589.6799            2 
   53900    1.6143219   -5.2897939    4605.9243            1 
   54000    1.5713376   -5.2672013    4655.1747            1 
   54100    1.5822738   -5.3227203    4590.5097            3 
   54200    1.5837876   -5.2843747      4601.38            1 
   54300     1.587995   -5.3000188    4613.8923            2 
   54400      1.58706   -5.3620292    4604.6684            2 
   54500    1.6040557   -5.3501082    4591.1774            2 
   54600    1.6285263   -5.2811317    4614.8921            2 
   54700    1.5893397   -5.2972386    4610.3684            3 
   54800     1.583637   -5.3185826     4600.043            1 
   54900    1.6058698   -5.3434105    4601.6339            1 
   55000    1.5880322   -5.3145376    4564.6387            5 
   55100    1.6094952   -5.3539776    4631.6875            1 
   55200    1.6041078   -5.3077453    4633.4685            1 
   55300    1.5830668    -5.334564    4597.9053            1 
   55400     1.611223   -5.3366148    4600.5999            2 
   55500    1.6078547   -5.3390253    4612.2247            2 
   55600    1.5611101   -5.3019925    4609.5925            1 
   55700    1.5928672   -5.2980509    4631.9261            2 
   55800    1.6150155   -5.2822816    4607.9112            2 
   55900    1.6081586   -5.3129094    4589.9486            1 
   56000    1.5887181   -5.3199288    4648.2782            1 
   56100    1.5911835   -5.2882401    4637.7813            1 
   56200    1.6024227   -5.2970494    4594.0056            1 
   56300    1.5955005   -5.3291102    4585.2632            3 
   56400    1.5902049   -5.2932958     4621.513            1 
   56500     1.631714   -5.3069865    4618.6834            2 
   56600    1.5983626   -5.3210639    4608.1163            1 
   56700    1.6123242   -5.2841322    4621.3326            1 
   56800    1.5837725    -5.298727    4628.9828            1 
   56900    1.6022512   -5.3207612    4604.2043            1 
   57000    1.6422594   -5.2879547    4607.1051            2 
   57100    1.5857472   -5.2734876    4624.8525            1 
   57200    1.5515869   -5.2929536    4622.3242            4 
   57300    1.6164883   -5.3035286    4595.3616            2 
   57400    1.5782282   -5.3143417     4587.091            1 
   57500    1.5536183   -5.3508068    4601.7773            2 
   57600    1.5816764   -5.3351715    4608.4826            2 
   57700    1.6407011   -5.3214464     4600.021            1 
   57800    1.5896692   -5.2528592    4614.0548            1 
   57900    1.6028839   -5.2795393    4652.3986            2 
   58000    1.5990942   -5.2995141    4613.0798            1 
   58100     1.603918   -5.3033636    4620.3087            2 
   58200    1.5974691    -5.310027    4613.7612            2 
   58300    1.6001491   -5.3082825    4607.2634            1 
   58400    1.6195317   -5.2651273     4617.827            2 
   58500    1.5897521   -5.2917988    4586.5022            1 
   58600    1.6150068   -5.3031125    4624.8003            2 
   58700    1.5795546   -5.3456267    4637.7894            1 
   58800    1.6235331    -5.356749    4601.7432            1 
   58900    1.5982409    -5.379953    4565.9804            1 
   59000     1.567064   -5.3348072    4607.4348            1 
   59100    1.5824723   -5.3227828    4593.7814            1 
   59200    1.6375361    -5.326635     4611.394            4 
   59300    1.6050663   -5.3378608    4612.6934            2 
   59400    1.5697696   -5.3309689    4620.2207            1 
   59500    1.5855782   -5.2645409    4620.7923            2 
   59600     1.644787   -5.2840761    4609.3178            1 
   59700    1.5955108   -5.3226963    4637.2135            2 
   59800    1.5878542   -5.3338887    4622.2101            3 
   59900    1.6117394   -5.3046653    4593.4703            1 
   60000     1.623901    -5.313387    4627.4048            2 
   60100     1.588886   -5.3100696    4635.9893            1 
   60200    1.5807765   -5.2940237    4594.8573            2 
   60300    1.6040108   -5.2969572    4604.9281            2 
   60400     1.610078   -5.2970678     4631.797            2 
   60500    1.5979169   -5.3535303    4589.2249            3 
   60600    1.5851814   -5.3304016    4605.1031            1 
   60700    1.6153634   -5.3268662     4615.296            2 
   60800    1.5856229   -5.3108561      4603.34            2 
   60900     1.618518   -5.3168346    4591.4229            2 
   61000    1.5876943   -5.3098682    4626.6547            2 
   61100    1.6103687   -5.3149899    4629.2841            1 
   61200    1.6317158   -5.3626537    4603.8219            1 
   61300     1.595765   -5.3123897    4617.0972            1 
   61400    1.5944726   -5.2917924    4625.7569            2 
   61500    1.5940534   -5.3135919    4603.9987            1 
   61600    1.5976597    -5.353481    4578.6648            2 
   61700    1.6049424   -5.3409899    4637.9459            2 
   61800    1.5867248   -5.3191163    4600.8341            1 
   61900    1.6064699   -5.2968539      4589.42            1 
   62000    1.6103286   -5.3075658    4612.5655            1 
   62100    1.5760477   -5.3088331    4633.8984            1 
   62200    1.6089043   -5.2742138    4634.1165            2 
   62300    1.6008183   -5.3335065    4602.4966            3 
   62400    1.6069324   -5.3149387    4605.7948            2 
   62500    1.5589648   -5.3386595    4611.2969            1 
   62600    1.6022492   -5.3300531    4592.3954            2 
   62700    1.6267286   -5.3278735      4598.55            1 
   62800    1.5980058   -5.3870664    4588.3143            1 
   62900    1.5921104   -5.3322228    4607.6526            1 
   63000    1.6123417   -5.3275656    4591.8236            3 
   63100    1.5971236   -5.3302137    4615.6526            2 
   63200    1.5694195   -5.3387663    4640.3113            2 
   63300     1.624248   -5.3225599    4599.8317            3 
   63400    1.6017604    -5.309092    4607.6178            1 
   63500    1.5920007   -5.3364133    4625.5682            2 
   63600    1.6391923   -5.3050486    4619.3935            1 
   63700    1.5761707   -5.2910977    4594.8709            1 
   63800    1.6075353   -5.3133186    4599.6498            1 
   63900    1.5979785   -5.3284441    4630.0593            1 
   64000    1.6066614   -5.3231233     4640.962            1 
   64100    1.6186998   -5.3364219     4566.341            3 
   64200    1.5788461   -5.2859015    4598.2978            2 
   64300     1.624662   -5.3667249    4616.9951            3 
   64400    1.5589761   -5.3407568    4601.0827            3 
   64500     1.610437   -5.3202295    4603.0929            2 
   64600    1.6067293   -5.3294926    4595.0372            2 
   64700    1.5969724   -5.3297612     4591.484            4 
   64800     1.591162   -5.3059817    4631.4822            1 
   64900    1.6390535   -5.3460092    4598.8255            1 
   65000    1.5903645   -5.3165861    4603.7566            2 
   65100    1.6023148   -5.3371568     4610.309            2 
   65200    1.5861391   -5.3479929    4591.4626            1 
   65300    1.5928628   -5.2980388    4626.4959            6 
   65400    1.6046069    -5.251758    4622.4969            1 
   65500     1.606447   -5.3295696     4606.668            3 
   65600    1.5832775   -5.3302009    4612.5789            2 
   65700    1.6250713   -5.3012434    4615.0464            1 
   65800    1.5893707   -5.3162561    4593.9565            1 
   65900    1.5906264   -5.3238798    4606.8389            3 
   66000    1.6130855   -5.3243126    4623.3529            1 
   66100    1.6169352    -5.326729    4601.5925            1 
   66200     1.571769   -5.3333235    4604.3882            1 
   66300    1.6135757   -5.3293804    4616.7359            1 
   66400    1.6215233    -5.343187    4622.1843            1 
   66500    1.5790395   -5.3663474    4617.8434            1 
   66600    1.6132152   -5.3081069    4594.4081            2 
   66700    1.6128996   -5.3264626    4590.8932            1 
   66800    1.5933973   -5.3121511     4645.291            3 
   66900    1.6037522   -5.3023469    4629.2339            1 
   67000     1.606703   -5.3347266     4599.047            1 
   67100     1.615396   -5.2869173    4607.2379            2 
   67200    1.6114802    -5.286179     4624.085            1 
   67300    1.5784109    -5.336881    4621.4683       -1e+20 
   67400    1.6073052   -5.3267304    4598.2137            1 
   67500    1.5653095   -5.3293841    4590.2266            2 
   67600    1.6215191   -5.3610078    4599.4186            6 
   67700     1.597378   -5.3453821    4608.1105            1 
   67800    1.5798863   -5.3589491    4594.5219            2 
   67900     1.623378   -5.3473719    4616.0238            1 
   68000    1.6071412   -5.2936911    4631.9743            1 
   68100    1.6205283   -5.2964656    4625.7528            3 
   68200    1.6256221   -5.3355128    4601.8868            4 
   68300    1.5891506   -5.3593048    4614.3289            2 
   68400    1.6306895   -5.3505692    4612.3416            1 
   68500    1.6222756   -5.3392053    4626.9951            2 
   68600     1.595126   -5.3208252    4624.4081            1 
   68700    1.6120795   -5.3408494    4595.2723            2 
   68800    1.5887602    -5.276388    4613.2541            2 
   68900    1.5842719     -5.27647    4615.7712            2 
   69000    1.5928612   -5.3121566    4600.6409            3 
   69100    1.6066087   -5.3640918    4581.2224            2 
   69200    1.5852685    -5.321149    4636.2644            2 
   69300    1.6089746    -5.306214    4620.1351            2 
   69400    1.5902455   -5.2947862    4592.8198            1 
   69500    1.5913303   -5.2866104    4618.1553            1 
   69600    1.6045814   -5.3233911    4611.6271            1 
   69700    1.6017628    -5.312093    4576.4775            1 
   69800    1.5970072   -5.3188087    4610.8884            2 
   69900    1.5789127   -5.3267184    4638.6746            2 
   70000    1.6370726   -5.3291584    4608.3445            3 
   70100    1.5659251   -5.2829417    4603.8911            2 
   70200      1.61818   -5.3143988    4615.1621            3 
   70300    1.5640633   -5.3388808    4605.3874            1 
   70400    1.5999538   -5.3203451    4608.0011            3 
   70500    1.5913762   -5.2726661    4602.0693            3 
   70600    1.5874158   -5.2818039    4622.4992            2 
   70700      1.59828   -5.3113597      4628.68            2 
   70800     1.558791   -5.3169489    4601.7822            2 
   70900    1.5959674    -5.288599    4615.5548            1 
   71000    1.6144738   -5.2797115    4596.0306            2 
   71100    1.5869232   -5.3288454     4602.965            2 
   71200    1.6084528   -5.3760862    4590.4444            1 
   71300    1.5685933   -5.3397574    4606.0162            2 
   71400    1.6063739   -5.2991761    4602.5963            2 
   71500     1.625197   -5.2980305    4607.4505            2 
   71600    1.5825087   -5.3318674    4629.6468            2 
   71700    1.5943546   -5.3085051    4636.4217            2 
   71800    1.6074038   -5.3140719    4619.5842            1 
   71900    1.6063705   -5.2814739    4599.6615            2 
   72000    1.5722413   -5.3175446    4610.7932            1 
   72100    1.6125314   -5.3295723    4611.7813            2 
   72200    1.6212648   -5.3082828     4629.811            1 
   72300    1.5969116   -5.3258029    4604.7531            1 
   72400    1.5630421   -5.3492532    4594.7036            2 
   72500    1.5792911   -5.3229596    4596.6473            1 
   72600    1.6269729   -5.3237479    4597.4054            3 
   72700     1.609918   -5.3376468    4628.6815            1 
   72800    1.5837648   -5.3188296    4626.0982            1 
   72900    1.5446392   -5.3057831    4571.1841            2 
   73000    1.6252793    -5.356073    4598.8487            1 
   73100    1.5494068   -5.3123526    4617.6956            1 
   73200    1.6116503    -5.305636    4611.5593            1 
   73300    1.6077562   -5.2814642    4622.0033            1 
   73400     1.577572    -5.277905    4626.4261            1 
   73500    1.5958204   -5.2980551    4604.1981            1 
   73600    1.6169873   -5.3144194    4606.3374            1 
   73700    1.5972266    -5.358354    4598.4162            1 
   73800    1.5875462   -5.3546877    4589.3269            2 
   73900    1.6147995   -5.3437622    4599.3746            4 
   74000    1.6113454   -5.3302671    4622.3805            1 
   74100    1.5657957   -5.3091803    4630.7753            2 
   74200    1.6362269   -5.3315388    4591.5207            4 
   74300     1.607504   -5.3198078    4604.0835            1 
   74400    1.6053623   -5.3418747    4626.8954            1 
   74500    1.5877032   -5.3461826    4601.3032            2 
   74600    1.6085529   -5.3527218    4581.2185            1 
   74700     1.598226   -5.2926976    4627.1163            1 
   74800    1.6029583   -5.3031092    4624.4683            1 
   74900    1.5995832   -5.3216735    4594.8751            1 
   75000    1.5706595   -5.3304983    4603.1389            1 
   75100    1.5815311   -5.2842468    4611.5552            1 
   75200    1.6163007   -5.2589066    4629.8343            1 
   75300    1.5896632   -5.3008431    4622.0826            2 
   75400    1.6009652   -5.3185367    4603.0834            1 
   75500    1.5784246   -5.3076433    4613.8223            2 
   75600    1.6089851    -5.303688    4636.5616            1 
   75700    1.5777179   -5.3104929    4611.6126            2 
   75800     1.600437   -5.3019811    4594.2359            3 
   75900    1.5687472   -5.2886125    4602.1716            1 
   76000    1.6094517   -5.2879812    4616.2052            1 
   76100      1.59085   -5.3205469    4598.9076            1 
   76200    1.5781299   -5.2875324    4597.7111            1 
   76300    1.6219059   -5.3072241    4642.2225            1 
   76400    1.6102143   -5.3163181    4621.0599            2 
   76500    1.6196613   -5.2942893    4599.4519            2 
   76600    1.6074736    -5.292355    4611.9894            1 
   76700    1.5419137   -5.2961877    4623.2224            1 
   76800    1.6195125   -5.3259549    4601.6026            1 
   76900    1.6062951   -5.3292783    4608.8389            2 
   77000    1.5819053   -5.3293009    4610.3702            2 
   77100    1.6176222   -5.3459245    4600.9201            2 
   77200    1.6112284   -5.3146186    4623.2432            2 
   77300    1.5895897   -5.3498586    4619.9796            2 
   77400    1.6129869   -5.3358599    4586.6024            2 
   77500    1.6106087   -5.3176809    4588.1825            1 
   77600    1.6181738   -5.3458066    4643.6713            1 
   77700    1.6216115   -5.3360065    4631.2195            2 
   77800    1.5940311   -5.2822183    4621.1469            2 
   77900    1.6255077   -5.3043169    4610.4328            1 
   78000    1.6004296   -5.3273687    4616.7222            1 
   78100    1.5819919   -5.3420514    4603.3488            3 
   78200    1.5676913    -5.315004     4602.262            2 
   78300     1.601056   -5.3025128    4593.2813            1 
   78400    1.6198722   -5.2878831    4618.8967            1 
   78500    1.5996679   -5.2992603    4613.6724            1 
   78600    1.5998841   -5.3310273    4602.1581            2 
   78700    1.5648293   -5.3645384    4599.2346            1 
   78800    1.5770876    -5.294398    4602.9252            3 
   78900    1.6175421   -5.3151877    4607.8973            4 
   79000    1.5904755    -5.339168    4598.7166            1 
   79100    1.5908591   -5.3940501     4577.042            3 
   79200    1.5640556   -5.3335013    4602.9319            2 
   79300    1.6176428   -5.3443515    4602.9635            1 
   79400    1.5745735   -5.2872984    4593.8949            1 
   79500    1.6306911   -5.3359038    4600.8291            1 
   79600    1.5446093   -5.3008967    4624.5696            1 
   79700    1.6004947   -5.3078728    4592.8159            2 
   79800    1.6029841   -5.3468362    4605.0703            1 
   79900    1.6083529   -5.3175527    4629.9502            2 
   80000    1.5826889   -5.3158667    4571.3712            2 
   80100    1.6097144   -5.3012603    4599.8413            3 
   80200    1.5817443     -5.32754     4621.731            3 
   80300    1.6076155   -5.3124182    4607.2807            2 
   80400    1.6243723   -5.3215005    4598.4397            2 
   80500    1.5890887   -5.3696895    4601.2871            2 
   80600    1.5880594    -5.360463    4588.9122            1 
   80700     1.617424   -5.3337776    4578.9244            2 
   80800    1.5960455     -5.34507    4609.2583            1 
   80900    1.6256664   -5.3427675    4621.6806            3 
   81000    1.5768306   -5.3135073    4609.5799            2 
   81100    1.6202809   -5.2931028    4599.1019            1 
   81200    1.5902173   -5.3047432    4609.2946            2 
   81300    1.5711506   -5.3237621    4619.3006            4 
   81400    1.6115721   -5.3011678    4608.9812            1 
   81500     1.609448   -5.2895036    4621.4363            2 
   81600    1.5893292   -5.2817362    4644.0373            1 
   81700    1.5861213   -5.3156247    4604.6709            2 
   81800    1.5827337   -5.2729749    4605.5566            1 
   81900    1.6515721   -5.2972404    4631.7057            2 
   82000    1.6032466   -5.3146263    4612.2621            1 
   82100    1.5599349   -5.3023759    4607.3869            2 
   82200    1.6268603   -5.3003269    4604.3969            1 
   82300    1.6217962    -5.326229    4602.9469            1 
   82400    1.5637876   -5.3243969    4622.1513            2 
   82500    1.6145156   -5.3307128    4632.6127            4 
   82600     1.582656   -5.3209625    4602.9687            2 
   82700    1.5963922   -5.3538817    4575.8397            3 
   82800    1.6099522   -5.3452418    4592.7244            1 
   82900    1.6113708   -5.3045845    4623.6394            1 
   83000    1.5990669   -5.3046174    4630.2924            1 
   83100    1.6434219   -5.3207971      4617.84            1 
   83200    1.5896762    -5.329582    4615.4277            1 
   83300    1.5876295   -5.2620042    4631.7205            1 
   83400    1.6015348   -5.2695568    4625.1465            1 
   83500    1.6064461   -5.3490793    4616.1499            1 
   83600    1.5638675   -5.3401423    4601.0633            1 
   83700    1.6135479   -5.3157918    4590.9161            2 
   83800    1.5888071   -5.2844315     4613.979            3 
   83900    1.6207058   -5.3099285    4624.7403            1 
   84000    1.5953798   -5.3249179    4604.8993            2 
   84100    1.6472263   -5.3149192    4613.3408            2 
   84200     1.569269   -5.2894835    4605.7609            1 
   84300    1.5952867   -5.3170069    4609.7876            3 
   84400    1.6137313   -5.2904641    4617.2878            1 
   84500    1.5877298   -5.3054098    4619.1674            1 
   84600    1.6124993   -5.3397739    4605.2926            3 
   84700     1.607057   -5.3103331    4635.6207            1 
   84800    1.6180254   -5.3271817    4621.1421            1 
   84900    1.5983327   -5.3169243    4590.4072            1 
   85000    1.5775123   -5.3307915    4606.6169            2 
   85100    1.6054126   -5.3507963    4616.2647            1 
   85200    1.6086069   -5.3137224     4569.256            1 
   85300    1.5830636   -5.3349296    4592.1946            3 
   85400    1.5708873   -5.2918484    4627.3268            2 
   85500     1.620969   -5.2953081    4628.2568            1 
   85600    1.5853387   -5.3050251    4612.5186            2 
   85700    1.6359312   -5.3098779    4618.8257            1 
   85800    1.5977099   -5.2961815    4635.1211            2 
   85900    1.6094441   -5.3013204    4611.2571            2 
   86000    1.5875729   -5.3299997    4607.0523            1 
   86100    1.6047732   -5.3179605    4619.1662            1 
   86200    1.6234106    -5.309184     4613.518            1 
   86300      1.55676   -5.2841991    4624.9058            1 
   86400    1.6076675    -5.283169    4632.6933            2 
   86500    1.6103623   -5.3008173      4600.87            6 
   86600    1.5895656   -5.3018819    4612.3444            2 
   86700    1.5926979   -5.2687032    4627.2997            2 
   86800    1.6007311   -5.3254652    4612.0089            1 
   86900    1.5836738   -5.3392316     4591.801            2 
   87000     1.611403   -5.3133876    4601.2914            1 
   87100     1.569952   -5.2672265    4633.7276            1 
   87200    1.6141419   -5.2772597    4620.3244            3 
   87300     1.621675   -5.3120021    4617.8642            1 
   87400    1.5622146   -5.3186396    4631.0801            1 
   87500    1.6007973   -5.2882667     4619.505            2 
   87600    1.6153372   -5.2969832    4607.8667            1 
   87700    1.5917956   -5.3277829    4608.7234            2 
   87800    1.5900211   -5.3606594    4610.1932            1 
   87900    1.5914533   -5.2914853    4610.3659            3 
   88000    1.6195789   -5.2893868    4607.6884            2 
   88100     1.586502   -5.3000078     4597.158            2 
   88200    1.5865052   -5.3248059    4618.2436            2 
   88300    1.5849592     -5.35525    4576.1919            3 
   88400    1.5961551   -5.3206007    4618.4832            1 
   88500    1.6121382   -5.3014915    4625.6115            2 
   88600    1.5845963   -5.2555954    4623.4848            3 
   88700    1.5973715   -5.3060248    4621.4986            1 
   88800    1.5808216   -5.3352904    4607.3534            1 
   88900    1.6386216   -5.3398999    4608.2848            2 
   89000    1.6053837   -5.2735352    4630.9537            1 
   89100    1.5821144   -5.3230127    4623.2018            1 
   89200    1.5878098   -5.3021318    4599.9947            2 
   89300    1.5994617   -5.2556377    4607.5462            1 
   89400    1.6226073   -5.3280206    4633.7455            1 
   89500      1.59588   -5.3293692    4612.0486            3 
   89600    1.6199545   -5.3756243    4586.1079            2 
   89700    1.5957867   -5.3441054    4584.8617            2 
   89800    1.5746513   -5.3003286    4616.8966            3 
   89900     1.611239   -5.2969992    4625.7219            3 
   90000    1.5911538   -5.3097422    4602.5837            1 
   90100    1.6132492   -5.3051695    4600.5362            1 
   90200    1.5956714   -5.3224517    4633.5635            1 
   90300    1.6006624    -5.352409    4596.8365            1 
   90400    1.6119532   -5.3333577    4585.3174            2 
   90500    1.5975232   -5.3228805    4611.0201            5 
   90600    1.6260683   -5.3225361    4646.2735            1 
   90700    1.5809403   -5.3124644    4607.4279            1 
   90800    1.6231564   -5.3151431    4607.3075            2 
   90900    1.6065901   -5.3156686    4622.6663            1 
   91000    1.5621582   -5.3190959    4600.4987            2 
   91100    1.5969911   -5.3456022     4590.756            1 
   91200    1.6277489   -5.3196427    4606.7465            2 
   91300    1.5736775   -5.3170686     4626.917            1 
   91400    1.5734946   -5.3486013    4606.6581            2 
   91500    1.6365014   -5.3190164    4585.2263            2 
   91600    1.6046399   -5.3421104    4592.2515            4 
   91700    1.5588056   -5.3267815     4625.823            1 
   91800     1.610051   -5.3109441    4624.6474            1 
   91900    1.6234951   -5.3125455    4616.3297            1 
   92000    1.6053081   -5.2911962     4628.582            2 
   92100    1.5842913   -5.3314104    4624.4858            1 
   92200    1.6136277   -5.3437221    4591.3723            2 
   92300    1.6087443   -5.3452682    4598.6308            2 
   92400    1.5894131   -5.2938747    4638.9948            2 
   92500    1.6362275   -5.2640269    4650.6054            1 
   92600    1.6077537   -5.2809158    4624.7454            2 
   92700    1.5767543   -5.2609799    4633.9527            1 
   92800    1.5812634     -5.29553    4621.4344            1 
   92900    1.5976002    -5.305786    4593.2944            1 
   93000    1.6102977   -5.3255593    4593.5514            2 
   93100    1.5596007   -5.2798364    4619.9978            3 
   93200    1.6184095   -5.3058546    4645.7294            2 
   93300    1.5985076   -5.3227794    4604.9673            1 
   93400    1.6003948   -5.3028496    4589.9836            1 
   93500    1.6134666   -5.2841476    4642.9488            2 
   93600    1.5839068   -5.2940494    4646.6963            1 
   93700    1.6457587   -5.2855003    4627.4561            2 
   93800    1.6168495   -5.2903482    4626.6466            2 
   93900    1.5938953   -5.3301328    4619.9344            1 
   94000    1.6222192   -5.3193724    4617.2901            2 
   94100    1.6345917   -5.2920219    4634.1533            1 
   94200     1.596919   -5.2894366    4622.6506            1 
   94300    1.5922772   -5.3218547    4613.3721            2 
   94400    1.5878277   -5.3142474    4586.5136            1 
   94500     1.634006   -5.3206057    4573.8617            2 
   94600    1.5848705   -5.3423147     4624.922            1 
   94700      1.58003   -5.2990437    4623.4492            2 
   94800    1.6098649   -5.2824971    4614.6998            2 
   94900    1.6070319    -5.307467    4605.1755            1 
   95000    1.5778182   -5.3434228    4597.2848            2 
   95100     1.594293   -5.3253402    4613.6665            1 
   95200    1.5953005   -5.3006414    4599.3625            3 
   95300    1.5570365   -5.2733341    4596.5369            3 
   95400    1.6227937   -5.3149353    4623.2637            1 
   95500    1.5829507    -5.320782    4606.4355            1 
   95600    1.5860236   -5.2809003    4581.1794            1 
   95700     1.628379   -5.2916845    4606.1034            4 
   95800    1.5811776   -5.3447654    4638.8356            1 
   95900    1.5931973   -5.3561499    4623.0922            1 
   96000    1.6423877   -5.3366608    4585.4554            1 
   96100    1.5665026   -5.3235262    4612.8561            2 
   96200    1.6076293   -5.3490043    4618.0659            1 
   96300    1.6056863   -5.2732303    4635.8251            4 
   96400    1.5841907   -5.2671146    4605.1859            1 
   96500     1.624615    -5.333309    4603.2588            2 
   96600    1.5885101   -5.3040925     4634.229            2 
   96700    1.6073991   -5.2972325    4614.9711            2 
   96800    1.6057281   -5.3165649     4599.028            1 
   96900    1.5757215   -5.3203648    4629.7919            2 
   97000     1.623434   -5.3526265    4600.3375            1 
   97100    1.5864386   -5.3313352    4599.5795            1 
   97200    1.6017013   -5.3212962    4627.3741            1 
   97300    1.6248052   -5.2762917      4619.43            1 
   97400    1.5915416   -5.3006691     4591.666            2 
   97500    1.5785708    -5.299849    4620.2625            1 
   97600    1.6077812   -5.3186802    4632.4006            2 
   97700    1.6097493   -5.3362084     4598.225            1 
   97800    1.5695204   -5.3514125     4588.242            5 
   97900     1.604873   -5.3318743    4604.2948            1 
   98000    1.6060357   -5.3118999    4597.0394            2 
   98100    1.5578163   -5.3291299    4591.7301            2 
   98200    1.5598132   -5.2849132    4598.7138            1 
   98300    1.6329021   -5.3308094    4610.2738            1 
   98400    1.5964316   -5.3312218    4622.2156            2 
   98500    1.5692405   -5.3403889    4587.4656            1 
   98600    1.5937849   -5.3305538    4610.8554            2 
   98700    1.5983574    -5.293902    4614.4586            2 
   98800    1.5848409   -5.3027455    4618.9363            3 
   98900    1.5300323   -5.2783715    4602.9351            1 
   99000    1.6281823   -5.3268956    4605.8847            1 
   99100    1.5746033   -5.2770155    4611.5661            2 
   99200    1.6133094   -5.2820035    4627.3494            1 
   99300    1.5884667   -5.3051481    4595.3087            2 
   99400     1.591988   -5.3380298     4615.333            4 
   99500    1.5980915   -5.3190843     4624.284            2 
   99600    1.5931384   -5.3004741    4615.2962            2 
   99700    1.5941858   -5.2989382    4598.7172            1 
   99800    1.5808002   -5.3351406    4599.3922            3 
   99900    1.5824973   -5.2744709     4626.394            1 
  100000    1.6458325   -5.3131017    4608.6838            1 
  100100    1.5846228   -5.3420465    4599.4535            1 
  100200      1.62056   -5.3508633    4587.8543            3 
  100300     1.594532   -5.3676645    4589.4512            2 
  100400    1.5739047   -5.3520081    4590.0952            2 
  100500    1.6110793   -5.3301598    4624.2803            3 
  100600    1.6177894   -5.3218754    4625.3533            3 
  100700     1.605336   -5.2664913    4639.7081            5 
  100800    1.5747729   -5.2756447    4626.9284            2 
  100900    1.6106692   -5.3060592    4608.9092            1 
  101000    1.6235172   -5.2939462     4641.469            2 
  101100     1.589648   -5.2958545    4613.4847            1 
  101200    1.6316088   -5.3055351    4600.7633            1 
  101300    1.5672286   -5.3303522    4621.9083            2 
  101400    1.5924001   -5.3412085    4610.9031            2 
  101500    1.6091191   -5.3006241    4603.3835            2 
  101600    1.5945591   -5.3082159    4614.6104            2 
  101700    1.5635022   -5.3027388    4610.4326            1 
  101800    1.6344552   -5.3075221    4591.8888            1 
  101900    1.5920156    -5.272772    4607.7032            1 
  102000    1.5663553   -5.3351718    4620.5514            1 
  102100    1.6153503   -5.3372455    4615.0397            2 
  102200    1.5981962   -5.2772664    4608.4535            1 
  102300     1.579525   -5.2939855    4614.7456            3 
  102400    1.5933495   -5.3345198    4571.2924            2 
  102500     1.592959   -5.3169647    4620.9122            3 
  102600    1.5994086   -5.2987636    4639.1396            3 
  102700    1.5811023   -5.3121566    4598.7458            2 
  102800    1.6124298   -5.3302001     4584.266            3 
  102900    1.6017623    -5.317966    4605.0418            2 
  103000    1.5866424   -5.2959951     4634.335            3 
  103100     1.575055   -5.3091174    4586.6946            1 
  103200    1.6044985   -5.3150074    4594.9086            2 
  103300    1.5831768   -5.3141079    4624.2794            1 
  103400    1.6215364    -5.296879    4612.5148            3 
  103500    1.6265018   -5.3377992    4602.6386            2 
  103600     1.532003   -5.3196901     4616.555            2 
  103700    1.6058692   -5.3332645    4612.3432            3 
  103800     1.596849    -5.269358     4623.358            2 
  103900    1.5919981     -5.24252    4629.3118            2 
  104000    1.6213815   -5.3094619    4604.8336            1 
Loop time of 164.128 on 24 procs for 100000 steps with 4000 atoms

Performance: 105283.636 tau/day, 609.280 timesteps/s
99.7% CPU use with 24 MPI tasks x no OpenMP threads

MPI task timing breakdown:
Section |  min time  |  avg time  |  max time  |%varavg| %total
---------------------------------------------------------------
Pair    | 18.341     | 18.673     | 19.195     |   5.1 | 11.38
Neigh   | 3.1139     | 3.1422     | 3.183      |   1.1 |  1.91
Comm    | 9.2942     | 9.9498     | 10.555     |  11.7 |  6.06
Output  | 3.9669     | 3.9678     | 3.9799     |   0.1 |  2.42
Modify  | 125.96     | 126.75     | 127.3      |   3.2 | 77.23
Other   |            | 1.642      |            |       |  1.00

Nlocal:        166.667 ave         175 max         159 min
Histogram: 2 2 1 6 3 0 6 0 2 2
Nghost:        1968.38 ave        1984 max        1955 min
Histogram: 2 2 4 2 3 4 4 0 2 1
Neighs:        16502.7 ave       17556 max       15397 min
Histogram: 2 2 1 2 4 5 3 0 3 2
FullNghs:      33005.0 ave       35201 max       31093 min
Histogram: 2 1 3 4 4 4 2 2 0 2

Total # of neighbors = 792121
Ave neighs/atom = 198.03025
Neighbor list builds = 7501
Dangerous builds = 15

#clear
#
#next RN
#
#jump SELF
Total wall time: 0:02:45
