
units lj                  # Use reduced LJ style units
atom_style atomic         # Uncharged point particles
atom_modify map hash      # Needed for indexing of clusters etc
                          # Used to be able to find where atoms are in relation to each other.

# Define a lattice with which to populate the simulation cell. With units
# set to 'lj' the second argument to the lattice command is the reduced
# density rho* and the spacings are multiples of that required to acheive
# that density. Also define a simulation cell called 'box' in lattice units
# and fill it with atoms. Here we're creating a box which is ten lattice
# constants in each direction.
lattice fcc 1.0 spacing 1 1 1                 # All equal sizes - gives the right reduced density.
Lattice spacing in x,y,z = 1.5874011 1.5874011 1.5874011

region box block 0 10 0 10 0 10 units lattice # Defines a region, "box", in lattice units
create_box 1 box                              # Creates a simulation box as specified above,
Created orthogonal box = (0.0000000 0.0000000 0.0000000) to (15.874011 15.874011 15.874011)
  2 by 3 by 3 MPI processor grid
                                              # with one type of atom
create_atoms 1 box                            # Creates particles on lattice points
Created 4000 atoms
  using lattice units in orthogonal box = (0.0000000 0.0000000 0.0000000) to (15.874011 15.874011 15.874011)
  create_atoms CPU = 0.002 seconds


# Set the mass of the first (and only) atom type.
mass 1 1.0

# Lennard-Jones interactions between particles, 3.5 sigma cut-off. Apply
# long range tail corrections to energy and pressure and set all coefficients
# to unity since we work in reduced units here. Note that this doesn't shift
# the potential such that it goes to zero at the cutoff. That would require
# pair_modify('shift', 'yes').
pair_style lj/cut  3.5      # non-GPU version
pair_modify tail  yes
pair_coeff 1  1  1.0  1.0   # Intearaction between 1 and 1 set with epsilon = 1 and sigma = 1

write_data data.*
System init for write_data ...
Neighbor list info ...
  update every 1 steps, delay 10 steps, check yes
  max neighbors/atom: 2000, page size: 100000
  master list distance cutoff = 3.8
  ghost atom cutoff = 3.8
  binsize = 1.9, bins = 9 9 9
  1 neighbor lists, perpetual/occasional/extra = 1 0 0
  (1) pair lj/cut, perpetual
      attributes: half, newton on
      pair build: half/bin/atomonly/newton
      stencil: half/bin/3d
      bin: standard

#############################
#   M E L T   S Y S T E M   #
#############################

velocity all create 2.4 8172548 mom yes dist gaussian # Assign velocities
                                                    # Temperature 2.4, random number seed, zero linear momentum
						                                                        # Gaussian distribution

timestep 0.002   # simulation timestep
thermo 100       # output thermodynamic data every 100 steps

# Define a fix  in this case with index 1 applied to all
# particles in the simulation. This fix is for simulations
# in the anisotropic NPT ensemble. Note that we use the MTK
# correction.
fix 1 all npt temp 2.4 2.4 0.1 iso 5.68 5.68 0.5 mtk yes tchain 5 pchain 5 # Use NPT ensemble
                                                                         # Set temperature and pressure and damping
                                                                         # Numbers of thermostats in chain and in barostat
run 1000         # run for 10000 steps
Per MPI rank memory allocation (min/avg/max) = 3.680 | 3.683 | 3.691 Mbytes
Step Temp E_pair E_mol TotEng Press Volume 
       0          2.4   -8.3859253            0   -4.7868253   -2.2405722         4000 
     100    1.2521358   -6.5115055            0   -4.6337712    5.4508644    4089.6042 
     200    1.4689284   -6.2983762            0   -4.0955344    6.0837578    4137.2801 
     300    1.5740251   -6.0110759            0   -3.6506285    5.8428293    4272.3887 
     400    1.7007621   -5.7248177            0   -3.1743123    5.9311621    4395.3486 
     500    1.8066394   -5.4467078            0   -2.7374262    5.7861894     4545.589 
     600    1.8844107   -5.1406616            0   -2.3147521    5.8323888    4700.1474 
     700    2.0254849   -4.9242047            0    -1.886737    5.8268404    4833.6959 
     800    2.1385093   -4.7031284            0   -1.4961664    5.8326966    4964.1584 
     900    2.2562357   -4.5439597            0   -1.1604522    5.8538779    5071.7859 
    1000    2.3669211   -4.4724005            0  -0.92290647    5.7399528    5154.5285 
Loop time of 0.557215 on 18 procs for 1000 steps with 4000 atoms

Performance: 310113.775 tau/day, 1794.640 timesteps/s
99.6% CPU use with 18 MPI tasks x no OpenMP threads

MPI task timing breakdown:
Section |  min time  |  avg time  |  max time  |%varavg| %total
---------------------------------------------------------------
Pair    | 0.32016    | 0.34381    | 0.36511    |   2.2 | 61.70
Neigh   | 0.061754   | 0.064697   | 0.067564   |   0.7 | 11.61
Comm    | 0.099571   | 0.12059    | 0.14418    |   3.7 | 21.64
Output  | 0.0002242  | 0.00023177 | 0.00028863 |   0.0 |  0.04
Modify  | 0.021827   | 0.024953   | 0.028995   |   1.4 |  4.48
Other   |            | 0.002928   |            |       |  0.53

Nlocal:        222.222 ave         234 max         214 min
Histogram: 2 3 0 3 1 4 2 2 0 1
Nghost:        2030.39 ave        2051 max        2008 min
Histogram: 1 1 1 2 3 4 3 1 1 1
Neighs:        19703.8 ave       21135 max       18594 min
Histogram: 1 3 3 1 1 4 2 2 0 1

Total # of neighbors = 354669
Ave neighs/atom = 88.667250
Neighbor list builds = 86
Dangerous builds = 10

# Equilibrate just above the melting temperature to avoid step fn in T

fix 1 all npt temp 1.25 1.25 0.1 iso 5.68 5.68 0.5 mtk yes tchain 5 pchain 5
run 1000
Per MPI rank memory allocation (min/avg/max) = 3.680 | 3.684 | 3.691 Mbytes
Step Temp E_pair E_mol TotEng Press Volume 
    1000    2.3669211   -4.4724005            0  -0.92290647    5.7399528    5154.5285 
    1100    1.9578949   -4.6918684            0   -1.7557603    5.6487477    4991.6913 
    1200    1.7396677   -4.9813711            0   -2.3725219    5.5906411    4811.1244 
    1300    1.5731527   -5.2038437            0   -2.8447047    5.7283734     4660.157 
    1400    1.4617969   -5.4064956            0   -3.2143485    5.7429155    4548.2287 
    1500    1.3856267   -5.5768053            0   -3.4988849    5.5616911    4480.7352 
    1600    1.2965183   -5.6686791            0   -3.7243878    5.5183337    4437.4897 
    1700    1.2706454   -5.7482266            0   -3.8427351     5.587581    4391.7293 
    1800    1.2485176   -5.8146125            0   -3.9423043    5.4355018     4375.335 
    1900    1.2452702    -5.820016            0   -3.9525776    5.6724499    4352.6927 
    2000     1.271515   -5.8429821            0   -3.9361864    5.6243904    4346.3347 
Loop time of 0.538912 on 18 procs for 1000 steps with 4000 atoms

Performance: 320645.863 tau/day, 1855.589 timesteps/s
99.7% CPU use with 18 MPI tasks x no OpenMP threads

MPI task timing breakdown:
Section |  min time  |  avg time  |  max time  |%varavg| %total
---------------------------------------------------------------
Pair    | 0.33112    | 0.34377    | 0.35459    |   1.2 | 63.79
Neigh   | 0.055186   | 0.056802   | 0.05843    |   0.4 | 10.54
Comm    | 0.09901    | 0.10931    | 0.12236    |   2.0 | 20.28
Output  | 0.00022214 | 0.00023051 | 0.00029237 |   0.0 |  0.04
Modify  | 0.022716   | 0.025521   | 0.03066    |   1.5 |  4.74
Other   |            | 0.003281   |            |       |  0.61

Nlocal:        222.222 ave         228 max         215 min
Histogram: 1 0 1 3 2 3 5 0 0 3
Nghost:        2236.78 ave        2249 max        2225 min
Histogram: 2 1 1 2 2 5 1 1 2 1
Neighs:        23340.2 ave       24347 max       22415 min
Histogram: 1 1 3 2 3 2 3 1 0 2

Total # of neighbors = 420123
Ave neighs/atom = 105.03075
Neighbor list builds = 75
Dangerous builds = 7


# Small amount of linear quench

fix 1 all npt temp 1.25 ${temp} 0.1 iso 5.68 5.68 0.5 mtk yes tchain 5 pchain 5
fix 1 all npt temp 1.25 2 0.1 iso 5.68 5.68 0.5 mtk yes tchain 5 pchain 5
run 2000
Per MPI rank memory allocation (min/avg/max) = 3.680 | 3.684 | 3.691 Mbytes
Step Temp E_pair E_mol TotEng Press Volume 
    2000     1.271515   -5.8429821            0   -3.9361864    5.6243904    4346.3347 
    2100    1.2381364   -5.8372102            0     -3.98047    5.6202127    4351.0382 
    2200    1.3066463    -5.800176            0   -3.8406966    5.6463489    4368.1166 
    2300     1.319054   -5.7421076            0   -3.7640213    5.4867669    4407.2342 
    2400    1.3602361   -5.7145128            0   -3.6746688    5.3305485    4436.5734 
    2500    1.4017465    -5.646136            0   -3.5440419    5.6265295    4443.3874 
    2600    1.4431518   -5.5829634            0   -3.4187769    5.8192763    4458.6179 
    2700    1.4913046     -5.53619            0   -3.2997923     5.841841    4478.9739 
    2800    1.4924923   -5.4556026            0   -3.2174239    5.7150301    4527.6189 
    2900    1.5528105   -5.4373581            0   -3.1087246    5.5171135    4561.9927 
    3000     1.580299   -5.3520403            0   -2.9821845    5.6216493    4594.0567 
    3100    1.5924539    -5.275623            0   -2.8875394    5.5835789      4640.33 
    3200    1.6532195   -5.2447973            0   -2.7655879    5.5564441    4664.0919 
    3300    1.7255124   -5.2153458            0   -2.6277243    5.5364582    4685.7992 
    3400    1.7340439     -5.11622            0   -2.5158044    5.8018923    4704.7156 
    3500    1.7622034   -5.0912178            0   -2.4485735    5.5339721    4754.7677 
    3600     1.826785   -5.0435525            0   -2.3040601    5.8158333    4754.5604 
    3700    1.8659025   -4.9621974            0   -2.1640434     6.104496    4764.5915 
    3800     1.898557   -4.9436551            0   -2.0965316    5.7779284    4815.1365 
    3900    1.9085486   -4.9015137            0   -2.0394064     5.696529    4849.7811 
    4000    1.9859592   -4.8728719            0   -1.8946779    5.6923913    4873.5687 
Loop time of 1.07909 on 18 procs for 2000 steps with 4000 atoms

Performance: 320268.992 tau/day, 1853.409 timesteps/s
99.7% CPU use with 18 MPI tasks x no OpenMP threads

MPI task timing breakdown:
Section |  min time  |  avg time  |  max time  |%varavg| %total
---------------------------------------------------------------
Pair    | 0.65962    | 0.68414    | 0.73235    |   2.1 | 63.40
Neigh   | 0.11265    | 0.11525    | 0.11871    |   0.5 | 10.68
Comm    | 0.17798    | 0.22183    | 0.24269    |   3.2 | 20.56
Output  | 0.00044058 | 0.00045434 | 0.00056716 |   0.0 |  0.04
Modify  | 0.043138   | 0.050894   | 0.063166   |   2.7 |  4.72
Other   |            | 0.006523   |            |       |  0.60

Nlocal:        222.222 ave         229 max         214 min
Histogram: 1 1 1 1 5 1 3 1 2 2
Nghost:        2091.17 ave        2109 max        2072 min
Histogram: 2 2 2 1 2 0 2 2 3 2
Neighs:        20807.4 ave       22198 max       19582 min
Histogram: 1 0 1 5 4 4 1 1 0 1

Total # of neighbors = 374534
Ave neighs/atom = 93.633500
Neighbor list builds = 150
Dangerous builds = 1

#############################
# F R E E Z E  S Y S T E M  #
#############################

# Define solid atoms. This closely follows ten Wolde  Ruiz-Montero and Frenkel  Faraday Discuss  1996  104  93-110
# Compute components of the per-atom q6 vector
compute q6 all orientorder/atom degrees 1 6 components 6 nnn NULL cutoff 1.3 # compute the Q6 parameter.
                                                                             # Use all neighbours within 1.3 unit cell.

# get number of connections
compute coord_number all coord/atom orientorder q6 0.5

# An atom is solid if it has 8 or more connections (of a possible 14)
variable is_solid atom c_coord_number>=8
group solid dynamic all var is_solid    # Must be dynamic to update
dynamic group solid defined

# do clustering
compute cluster solid cluster/atom 1.3 # Create a cluster where all atoms within are solid and max 1.3 units from another member

# define chunks one chunk per cluster
compute clus_chunks solid chunk/atom c_cluster nchunk every compress yes  # Says which atoms are in which chunk

# count the size of each chunk
compute size_chunks solid property/chunk clus_chunks count


# Find the maximum entry in the vector of chunk sizes
variable max_n equal max(c_size_chunks)


# Thermo style which includes this variable
thermo_style custom step temp pe vol v_max_n

thermo ${N}  # Print the thermo information every 100 steps
thermo 100  

# Reset the npt fix at a lower temperature (below freezing)
fix 1  all npt temp  ${temp} ${temp}  0.1  iso  5.68  5.68  0.5  mtk yes tchain  5  pchain  5
fix 1  all npt temp  2 ${temp}  0.1  iso  5.68  5.68  0.5  mtk yes tchain  5  pchain  5
fix 1  all npt temp  2 2  0.1  iso  5.68  5.68  0.5  mtk yes tchain  5  pchain  5

dump dmp2 all dcd ${N} traj_${rand}.dcd
dump dmp2 all dcd 100 traj_${rand}.dcd
dump dmp2 all dcd 100 traj_462431.dcd


# fix rnuntil all halt ${N} v_max_n >= 3980 error soft message no   # Stop when solidified


run 100000 # 5000000  # Run for this many steps
Neighbor list info ...
  update every 1 steps, delay 10 steps, check yes
  max neighbors/atom: 2000, page size: 100000
  master list distance cutoff = 3.8
  ghost atom cutoff = 3.8
  binsize = 1.9, bins = 9 9 9
  4 neighbor lists, perpetual/occasional/extra = 1 3 0
  (1) pair lj/cut, perpetual
      attributes: half, newton on
      pair build: half/bin/atomonly/newton
      stencil: half/bin/3d
      bin: standard
  (2) compute orientorder/atom, occasional
      attributes: full, newton on
      pair build: full/bin/atomonly
      stencil: full/bin/3d
      bin: standard
  (3) compute coord/atom, occasional
      attributes: full, newton on
      pair build: full/bin/atomonly
      stencil: full/bin/3d
      bin: standard
  (4) compute cluster/atom, occasional
      attributes: full, newton on
      pair build: full/bin/atomonly
      stencil: full/bin/3d
      bin: standard
Per MPI rank memory allocation (min/avg/max) = 9.449 | 9.453 | 9.459 Mbytes
Step Temp PotEng Volume v_max_n 
    4000    1.9859592   -4.8728719    4873.5687            1 
    4100    1.9729264   -4.7972363    4927.8294            1 
    4200     2.024288   -4.7814486    4904.4122            1 
    4300    1.9490705   -4.8013859    4922.5562       -1e+20 
    4400     1.994797   -4.8024824    4916.8263            1 
    4500    2.0169471   -4.7584248    4907.2111            1 
    4600    1.9760728   -4.7908108    4946.0739            1 
    4700    2.0094715    -4.829926    4907.1948            1 
    4800    1.9903493    -4.793702    4905.0514       -1e+20 
    4900    2.0148799   -4.8080326    4932.7861       -1e+20 
    5000    1.9856415   -4.7868239    4935.7206            1 
    5100    2.0231079   -4.7790922    4960.1859            1 
    5200    1.9936368    -4.814498    4902.7666            1 
    5300    1.9720248   -4.8335619     4897.526            1 
    5400    2.0158046   -4.7921734    4903.8895       -1e+20 
    5500    2.0025118   -4.8070295    4942.3372            1 
    5600    1.9369356   -4.7445512    4948.5697       -1e+20 
    5700    2.0399191   -4.7705998    4909.0544            1 
    5800    1.9842145   -4.7746583    4957.6919            1 
    5900    2.0373039   -4.7979801     4944.398            1 
    6000    1.9940541    -4.755713    4940.3474            1 
    6100    1.9669449   -4.8052836    4911.6559            1 
    6200    1.9959096   -4.7980829    4927.1526            1 
    6300    2.0252222   -4.7956481    4937.1498            2 
    6400    1.9257853   -4.7521803    4921.0429            1 
    6500    2.0328612   -4.8069305     4921.325            1 
    6600    1.9775038   -4.8090332    4909.7195            1 
    6700    2.0166035   -4.8070817    4900.0862            2 
    6800    1.9598731   -4.7893104    4919.1657            1 
    6900    2.0382499   -4.8107702    4921.7907            1 
    7000    1.9716755   -4.8203354    4920.8011       -1e+20 
    7100    1.9848495   -4.8080652    4916.3666            1 
    7200     2.002207   -4.7754793    4936.0546            1 
    7300     1.990575   -4.7510431    4936.9146       -1e+20 
    7400     1.981295   -4.7800604    4917.8881            1 
    7500    1.9600731   -4.8221892    4907.6849            1 
    7600    1.9908359   -4.7668559    4919.3729       -1e+20 
    7700    2.0324413   -4.7985677    4929.0787            1 
    7800    1.9871471   -4.7972323    4956.3115            1 
    7900    2.0138194   -4.7956063    4900.7722            1 
    8000    2.0361654   -4.8188299    4935.8359       -1e+20 
    8100    1.9554495   -4.8217495    4946.9168            2 
    8200    2.0157062   -4.8115038    4890.2816            1 
    8300    2.0127248   -4.7988343    4911.2107            1 
    8400    1.9999065   -4.8275208    4944.5116            1 
    8500    1.9716102   -4.7826719    4872.4105       -1e+20 
    8600    2.0306611   -4.7718857    4907.7646            1 
    8700    1.9889906   -4.8144071    4934.4714            2 
    8800    1.9754973   -4.7817145    4918.3835            1 
    8900    2.0307682   -4.8181274     4904.009            2 
    9000    1.9652494   -4.8185173    4904.3993            2 
    9100     2.002684   -4.7997566    4907.5987            1 
    9200    2.0409443   -4.8091735    4920.1846            1 
    9300      1.97153   -4.8010468     4939.507            2 
    9400    2.0132911   -4.7905675    4905.5593            2 
    9500    1.9978468   -4.7880016    4946.3264            1 
    9600     1.983529   -4.7840253    4954.1997            1 
    9700    2.0395432   -4.7870445    4904.6017            1 
    9800    1.9581552   -4.7727133    4952.3123            1 
    9900     2.002839   -4.7799037    4931.0538            1 
   10000    2.0239119    -4.754247    4922.9094            2 
   10100    1.9803795   -4.7871199     4953.239            1 
   10200    2.0115825   -4.8086072    4921.2948            3 
   10300    2.0125709   -4.8004517    4919.6672            1 
   10400    1.9984763   -4.7884464    4916.9547            1 
   10500    2.0019821   -4.8192272    4900.2712       -1e+20 
   10600    2.0090387    -4.858109    4919.1838            1 
   10700     2.026412   -4.8428187    4901.9659            2 
   10800    1.9961373   -4.8251789    4923.6441            1 
   10900     2.001885    -4.779406    4932.1772            1 
   11000    2.0401988   -4.8192735    4915.8676            1 
   11100     1.991546   -4.8684443    4921.3876            1 
   11200    2.0031529   -4.7807826    4906.7618            1 
   11300    2.0295215   -4.7480571    4940.0557            1 
   11400    1.9852651   -4.7761973    4946.3089       -1e+20 
   11500    1.9911182   -4.7890355    4901.7078            1 
   11600    2.0071556   -4.8486096    4876.5539            1 
   11700    1.9370327   -4.8593253    4895.3422            1 
   11800    1.9949935   -4.8406614      4912.32            3 
   11900    2.0096578   -4.7621611    4926.3289            1 
   12000    1.9764977   -4.7635434    4939.1243            1 
   12100    1.9744411   -4.8347618    4922.3349            1 
   12200     2.016261   -4.7796215    4925.1777       -1e+20 
   12300      2.01448   -4.7905414    4914.2375            1 
   12400    1.9707356   -4.8153534    4906.2074       -1e+20 
   12500    2.0129321   -4.8166243    4904.6963            1 
   12600    1.9783062   -4.8025827    4938.0378       -1e+20 
   12700    2.0045714    -4.748914    4963.1688            1 
   12800    2.0146957   -4.7663143    4939.6185            1 
   12900    2.0183178   -4.8535163    4908.6545            1 
   13000    1.9960362   -4.8235508    4902.6611            1 
   13100    1.9907518   -4.8149856    4913.9252            1 
   13200    1.9612732   -4.7710407    4921.8358            2 
   13300    2.0454654   -4.7945598     4901.131            1 
   13400    1.9601981   -4.7900751    4948.4937            1 
   13500    2.0291963   -4.7682918    4909.7881       -1e+20 
   13600    1.9843944   -4.7943546    4915.7863            1 
   13700    2.0039716   -4.8093322    4943.4376            1 
   13800    2.0596646   -4.7851082    4948.8067            1 
   13900    1.9693905   -4.7395844    4906.5017            1 
   14000    2.0268977   -4.8439751    4908.2385            1 
   14100    1.9618718   -4.8170688    4943.7951            2 
   14200    2.0360645    -4.761212    4897.7083            1 
   14300    1.9750493   -4.7676214    4947.0174            1 
   14400    1.9870274   -4.8020264    4901.8925            1 
   14500    2.0012107   -4.7978261    4904.9013            1 
   14600    1.9940316    -4.799729    4940.6523            2 
   14700    2.0264672   -4.7659538    4936.0464       -1e+20 
   14800    1.9904069    -4.797171    4916.8522            1 
   14900    1.9920128   -4.8517403    4934.4721       -1e+20 
   15000     2.050235   -4.8095878     4903.571            1 
   15100    1.9808198   -4.7923407    4927.6419            1 
   15200    1.9866219   -4.7978098    4942.1165            1 
   15300    2.0292079   -4.7851643    4901.0015            2 
   15400    1.9764118   -4.7742266    4938.3132            1 
   15500    2.0261483   -4.8098873    4934.9226            1 
   15600    2.0117127   -4.8199013    4904.8116            1 
   15700    2.0096903   -4.8163929    4933.7503            1 
   15800    2.0079466   -4.8180182    4943.7726            2 
   15900    2.0237806    -4.819545    4875.2762            1 
   16000    1.9695376   -4.8485074    4933.9929            1 
   16100    1.9995669   -4.7909235     4919.968            1 
   16200    2.0154845   -4.7818728     4896.409            1 
   16300    1.9834378   -4.7908788    4947.8741       -1e+20 
   16400    2.0539963   -4.8199822    4921.4984            1 
   16500    1.9946473   -4.8349094    4910.0217            1 
   16600    2.0056821   -4.8252312    4911.0301            1 
   16700    2.0311796   -4.7884314    4914.4836            1 
   16800     1.977106   -4.8107271    4896.6534            1 
   16900    1.9542801    -4.781807    4911.2888            1 
   17000    2.0369039   -4.7752897    4899.1188            2 
   17100    1.9592596   -4.7809639    4941.3788            2 
   17200    2.0361346   -4.7947756    4929.8957            2 
   17300      2.01412   -4.8303408    4940.5826       -1e+20 
   17400    1.9967623   -4.8523412    4889.5644            1 
   17500    2.0368148   -4.8208667    4904.6341            1 
   17600    1.9983402   -4.8136023    4924.9788            2 
   17700     1.964617   -4.8536992    4898.6151            2 
   17800    1.9598654   -4.7896068    4901.2364            1 
   17900     2.020357   -4.8025669    4915.3771            1 
   18000     1.967043   -4.7632106    4945.1694            2 
   18100    2.0072865   -4.7588036    4927.9044            1 
   18200     2.050956   -4.7718153    4948.1069            1 
   18300    2.0130085   -4.8161946    4936.1439            1 
   18400    2.0240382   -4.8227271    4904.1129            1 
   18500    1.9418234   -4.7895721     4920.069            1 
   18600     2.023893   -4.8063415     4927.281            1 
   18700    1.9914886   -4.8339553    4900.1231            1 
   18800     2.007894   -4.8118119    4912.5462       -1e+20 
   18900    1.9831189    -4.762739    4965.8344            1 
   19000    2.0119541   -4.7618032    4938.1213            1 
   19100    2.0388675   -4.8023512    4931.4283            2 
   19200    1.9721321   -4.7879234    4931.0135            1 
   19300     1.995808   -4.7787053    4944.1813            1 
   19400    2.0167138   -4.7998811    4915.1783            1 
   19500    2.0057207   -4.8126725    4937.4714            1 
   19600    2.0052986   -4.7850978    4938.7619            1 
   19700      2.00812   -4.7774319    4911.8886            1 
   19800    1.9697814   -4.8240433    4896.0566            1 
   19900    1.9952544   -4.8365675    4912.6699            1 
   20000    2.0322926   -4.8386704    4920.7445       -1e+20 
   20100    1.9935868   -4.8164439    4908.1074            1 
   20200    1.9620042   -4.7704712    4931.2521       -1e+20 
   20300    2.0318477   -4.7584577    4932.8556            1 
   20400    1.9751689   -4.7631689    4937.9098            1 
   20500    2.0392791   -4.7565255    4935.4273            1 
   20600    2.0004221   -4.7767762    4966.1711            1 
   20700    1.9632807   -4.8103321    4934.1667            1 
   20800    2.0476446   -4.7844182    4899.6833            1 
   20900    1.9972676   -4.7897189     4929.547            2 
   21000    1.9774545   -4.7770197    4931.3947       -1e+20 
   21100    2.0283304   -4.7944075    4901.5859            1 
   21200    1.9558184   -4.7971494    4922.9919            1 
   21300    2.0263064    -4.817914    4913.6047            1 
   21400    1.9919011   -4.8284942    4898.3706            1 
   21500    1.9882438   -4.7783174    4938.0589            2 
   21600    1.9998116   -4.7250415     4944.079       -1e+20 
   21700     1.944561   -4.7533636    4935.6198            1 
   21800     2.018827   -4.8339454    4902.5214            1 
   21900    2.0023369   -4.8427868    4925.5453       -1e+20 
   22000    1.9929423   -4.7672556    4947.4491            1 
   22100    1.9852292   -4.8197085    4922.1349            1 
   22200    2.0214166   -4.8372015    4904.5035            1 
   22300    2.0366066   -4.8203539    4919.0178            1 
   22400    1.9730178   -4.8403896    4921.3462            1 
   22500    2.0095109    -4.790471    4877.5849            1 
   22600     1.984337   -4.8454617    4885.8541            1 
   22700    1.9774949   -4.8467998    4926.6994            1 
   22800    2.0255346   -4.7997566    4903.4861            1 
   22900    2.0020252   -4.7993341    4935.9568            1 
   23000    1.9892292   -4.8296947    4898.8149            1 
   23100    1.9905162   -4.8171898    4901.2796            1 
   23200     2.041148   -4.8182697    4931.2088            2 
   23300    2.0143996   -4.8051806    4932.5804       -1e+20 
   23400    1.9809357   -4.7959162    4896.3548            1 
   23500    2.0251139   -4.7928954    4931.9951            1 
   23600     1.993405   -4.7899439    4957.0125       -1e+20 
   23700    2.0415163   -4.7334991    4956.7494            1 
   23800    2.0095153   -4.7576386    4933.4575            1 
   23900    1.9749105   -4.8278022    4935.1379            1 
   24000    2.0031495   -4.7691576    4892.5843            1 
   24100    2.0320479    -4.827335    4918.0022            1 
   24200    1.9623777   -4.7793991    4958.1136            1 
   24300    2.0453805   -4.7874774    4907.8633            1 
   24400    1.9994481   -4.8313309    4912.2031            2 
   24500    2.0068286   -4.8493538      4935.81            1 
   24600    2.0253676   -4.7682615    4913.9532            1 
   24700    1.9739045   -4.7806499    4925.0866            1 
   24800    1.9975739    -4.860288    4909.6914            1 
   24900    2.0305446    -4.823733    4918.2529            2 
   25000    1.9929481   -4.7942275    4937.0597            1 
   25100    2.0229353   -4.7782621    4930.4289            1 
   25200    2.0255939   -4.7910921    4942.5776            1 
   25300    1.9728653   -4.8050535    4907.3367            1 
   25400    2.0031544   -4.7802691    4918.2694            1 
   25500    2.0096793   -4.7656163    4944.5209            1 
   25600    1.9858094   -4.8050005    4907.5575            1 
   25700    1.9956298   -4.7984888    4912.7504            1 
   25800    2.0460648   -4.7622875    4951.5395            1 
   25900    2.0300693   -4.7939549    4949.7502            1 
   26000    1.9885171   -4.8044521    4909.1883            1 
   26100    1.9822207    -4.790998    4910.6755            1 
   26200    2.0000257   -4.7612975    4931.5019            1 
   26300    1.9887051   -4.8185703    4900.6269            1 
   26400    2.0040266   -4.8779808    4885.5595            2 
   26500    1.9830927   -4.7980073    4910.8883            2 
   26600    1.9818751   -4.7813383    4896.5323       -1e+20 
   26700    1.9685085   -4.8130588    4899.1593       -1e+20 
   26800    1.9781138   -4.7694482    4906.1535            1 
   26900    1.9826671   -4.7523643    4933.6007            1 
   27000     1.990085   -4.7596385    4931.2912            1 
   27100    1.9837083   -4.7648315    4916.8661            1 
   27200    1.9914785   -4.7935918    4932.5836       -1e+20 
   27300    2.0075841   -4.8267453    4863.0577            1 
   27400    1.9459728   -4.8484581    4934.7262            1 
   27500    1.9964305   -4.8028086    4931.2646       -1e+20 
   27600    2.0094546   -4.7211665    4922.3024            1 
   27700    1.9865378   -4.7860364    4933.0993            1 
   27800    2.0085413   -4.7814496    4922.7571            1 
   27900    2.0332754   -4.7773777    4954.2879            1 
   28000     1.978699   -4.7801595    4932.1655            1 
   28100    2.0013651   -4.8442264     4887.592            1 
   28200    1.9872679   -4.8284201    4888.9843            3 
   28300     1.978605   -4.7891169    4934.1593            1 
   28400    1.9973305   -4.7892756     4900.269       -1e+20 
   28500    1.9529437   -4.7489269    4891.5543            1 
   28600    1.9980447   -4.8260234    4920.9786            1 
   28700    1.9967129   -4.7761529    4941.7392            1 
   28800    2.0420563   -4.7850763    4931.9188            1 
   28900    1.9841192   -4.7952932    4941.7715            1 
   29000    2.0046414   -4.7897867    4936.5632            1 
   29100    2.0301263   -4.7458172    4907.5644       -1e+20 
   29200    1.9685411   -4.7993543    4947.5476            1 
   29300    1.9934044   -4.8084646    4917.9074            1 
   29400     2.011653   -4.7987967    4894.5266            1 
   29500    1.9850653   -4.8129143    4933.3651       -1e+20 
   29600    2.0084248    -4.758951    4925.2029            1 
   29700    2.0268948   -4.8426758    4914.1475            1 
   29800     1.943044   -4.8309193    4919.6367            2 
   29900    2.0268132   -4.8162838    4900.6085            1 
   30000    2.0148915   -4.8194373    4919.0378            1 
   30100    1.9996381   -4.8130093    4936.3302            3 
   30200    2.0158128   -4.7363328    4937.0552            1 
   30300    1.9599853   -4.7558473    4955.5845            1 
   30400    2.0125005   -4.8085853    4914.5308            1 
   30500    2.0023194   -4.7582967    4925.2397       -1e+20 
   30600    1.9868228   -4.8192624    4900.0848       -1e+20 
   30700    1.9424125   -4.8247123    4904.6763            1 
   30800    2.0052503   -4.8072974     4912.883            1 
   30900    2.0264459   -4.8167245    4914.4864            1 
   31000     1.950328   -4.8189337    4909.4237       -1e+20 
   31100    2.0217997   -4.8139402    4925.6072       -1e+20 
   31200    1.9791281   -4.8033323    4916.6872            1 
   31300    2.0275613   -4.7716746    4917.2393            2 
   31400     1.990083    -4.810077     4930.014            1 
   31500    1.9640912   -4.7996657    4906.4639            2 
   31600    2.0017247   -4.8049492    4868.2466            1 
   31700     1.969075     -4.82202    4936.2132            1 
   31800    2.0138142   -4.7843947    4933.6549            1 
   31900    2.0527233   -4.8738095    4908.4322            1 
   32000    1.9743819   -4.8439545     4914.257            1 
   32100    2.0129504    -4.793019    4901.2607            1 
   32200     1.993456   -4.8208212    4913.4784            1 
   32300    2.0436908   -4.8470367    4928.0156            1 
   32400    1.9696329   -4.7807996    4925.9359       -1e+20 
   32500    2.0037914    -4.725353    4917.0552            1 
   32600    1.9991942   -4.7859444    4930.6606            2 
   32700    2.0031127   -4.8049395    4930.2722            1 
   32800    2.0400783   -4.7687193    4942.2138            1 
   32900    1.9880919   -4.7728196    4946.9537            1 
   33000     1.996044   -4.8147765    4907.4888            1 
   33100     1.993905   -4.8685595     4877.827            1 
   33200    2.0072071   -4.8137935    4930.8983            1 
   33300    2.0495412   -4.7890713    4938.1055            1 
   33400    2.0052649   -4.8428234    4939.2476            1 
   33500     1.999965   -4.7853447    4917.5268            1 
   33600    2.0166469   -4.7842754    4942.7517            1 
   33700    2.0082932   -4.7508883    4958.3745            1 
   33800    1.9875092   -4.7881911    4909.4484       -1e+20 
   33900    2.0007245   -4.7805219    4942.3256            1 
   34000    2.0424684   -4.7760389     4960.453            1 
   34100    2.0092999   -4.7792499    4940.1442            1 
   34200    1.9947624   -4.7969577    4908.3529            1 
   34300    1.9848291    -4.826268      4905.13       -1e+20 
   34400    2.0167353   -4.8211259    4936.0096            1 
   34500    2.0276646   -4.7897276    4933.3999            1 
   34600    1.9790634   -4.8083952    4913.6404            1 
   34700    1.9897327   -4.7837058    4918.4738            2 
   34800     2.006387   -4.8267917    4923.6413       -1e+20 
   34900    1.9544433   -4.8053923    4902.0626            2 
   35000    2.0035616   -4.7742186    4916.2446            2 
   35100    1.9874125   -4.8002129    4912.8257            1 
   35200    1.9858806   -4.8160749    4924.0139            1 
   35300     2.029151   -4.8023305    4897.6225       -1e+20 
   35400    2.0046055   -4.8371777    4907.9086            1 
   35500    1.9924879   -4.7955778    4943.8097            1 
   35600    2.0489377   -4.7965808    4897.8915            1 
   35700    1.9850601   -4.8041258    4919.7338       -1e+20 
   35800     2.006438   -4.7954412     4953.757            1 
   35900    2.0075712   -4.8056244    4912.8664            1 
   36000    2.0082363   -4.8219776    4895.0309            1 
   36100    2.0254902   -4.7963138     4953.597            1 
   36200    1.9934013   -4.7547625    4963.1384            1 
   36300    2.0256648   -4.8113223    4896.5629       -1e+20 
   36400    1.9671347   -4.8002606    4900.9477            1 
   36500    2.0132123   -4.8028703    4937.0503            1 
   36600    2.0046774    -4.779908    4924.3705            1 
   36700    2.0041543   -4.8118286    4913.1724            2 
   36800    1.9441798   -4.8169932    4920.2561            1 
   36900    2.0034729   -4.7880486    4927.3492            1 
   37000     2.006985   -4.8056717    4927.8579            1 
   37100    1.9950655   -4.7789615    4929.9916       -1e+20 
   37200    2.0109962   -4.7603573    4944.8584            1 
   37300    1.9793296   -4.7881023    4914.6715            1 
   37400    2.0024139   -4.7917226    4930.4831            1 
   37500    1.9896223   -4.8289275    4918.5558            1 
   37600    2.0236969   -4.8492764    4892.5365            1 
   37700    1.9931902   -4.8065372    4931.5609            2 
   37800     2.047711   -4.8132323    4944.6959            1 
   37900    2.0153547   -4.8108634    4905.4665       -1e+20 
   38000    1.9836347   -4.7935708    4900.8128            1 
   38100    2.0088289   -4.8080411    4952.3472            1 
   38200     2.004767   -4.7469681     4908.925            1 
   38300    2.0009943    -4.772825    4943.5687            1 
   38400    2.0084765   -4.7954918    4937.2977       -1e+20 
   38500     2.016235   -4.7998169    4911.8894            1 
   38600     1.945308   -4.7708731    4925.6075            1 
   38700    2.0427242   -4.8200756    4895.5471            1 
   38800    2.0001022   -4.8119487    4932.5408            1 
   38900    1.9493522    -4.806945    4887.5064            1 
   39000    2.0281522   -4.8403881    4917.0553            1 
   39100    1.9483942   -4.7830897    4920.4754            1 
   39200    2.0167827   -4.7480066     4909.714            1 
   39300    2.0091344    -4.782702    4950.8837            3 
   39400     1.986985   -4.8298604    4934.1978            1 
   39500    2.0212258   -4.7941975    4885.8069            2 
   39600    1.9841839   -4.8641587    4919.7094            1 
   39700    2.0010183   -4.8790638    4901.4341            1 
   39800    1.9949042   -4.7672577    4903.6443            1 
   39900    1.9935079   -4.7771469    4928.1236            1 
   40000    1.9933891   -4.7860476     4913.954       -1e+20 
   40100    1.9993185   -4.8613367    4889.2575            1 
   40200    1.9903376   -4.8167227    4913.3383            1 
   40300    2.0125943   -4.7897076    4940.6872            1 
   40400    2.0270383   -4.8092856    4935.1131            2 
   40500    1.9741702   -4.8108776    4913.4152            1 
   40600    1.9881998   -4.7576574    4941.5738       -1e+20 
   40700    1.9880203   -4.7738365    4931.1437            1 
   40800       2.0611   -4.8156219    4898.4451            1 
   40900    1.9742927   -4.8511989    4933.0008            1 
   41000    2.0247409    -4.796789    4912.2774            1 
   41100     1.999199   -4.7676359    4935.4518       -1e+20 
   41200    1.9691622   -4.7756938    4935.1045            2 
   41300    1.9921619   -4.7964513    4893.1306            1 
   41400     1.982207   -4.8401907    4897.2771            2 
   41500    1.9932317    -4.809318    4921.1571            1 
   41600     2.013106   -4.7413477    4923.6851       -1e+20 
   41700    1.9717206     -4.80402    4935.0385            1 
   41800    2.0261018   -4.8564632    4914.8793            1 
   41900     2.031878   -4.7871744    4914.9454            1 
   42000    1.9822474   -4.7951323    4929.9331            1 
   42100    2.0154567   -4.8195475    4916.6699            1 
   42200    1.9604271   -4.8050879    4890.9245            1 
   42300    2.0040223   -4.8178984    4904.7101            1 
   42400    1.9780185   -4.8146398    4929.7779            1 
   42500    2.0469305   -4.7673561    4901.7865            1 
   42600    1.9863258   -4.8097006    4929.5542       -1e+20 
   42700    1.9986178   -4.8612351    4923.6783       -1e+20 
   42800    2.0230402   -4.7966159    4893.5158            1 
   42900    1.9966293   -4.8164802    4936.9796       -1e+20 
   43000    2.0124498   -4.7995791     4947.391       -1e+20 
   43100    2.0225211   -4.7939743     4902.814       -1e+20 
   43200    1.9860463   -4.7953303    4941.5957            1 
   43300     2.015938   -4.8022284    4915.7488            1 
   43400    1.9848309   -4.8012083    4907.8729            3 
   43500    2.0210024   -4.7761345    4946.1428            1 
   43600    2.0238337   -4.8238682    4927.0653            1 
   43700    1.9795837    -4.791645    4909.9229            1 
   43800    2.0412034   -4.7892359    4894.8574            2 
   43900    1.9449483   -4.8126454    4947.2097            1 
   44000    2.0390737   -4.8242098    4889.0292            3 
   44100    1.9846581   -4.8131434    4907.1329            1 
   44200    1.9938088    -4.802646    4931.2824            1 
   44300    2.0611973   -4.7816245    4918.8687            1 
   44400    2.0046072   -4.8377438    4919.2539            1 
   44500    1.9848061    -4.818076    4900.5148            2 
   44600    2.0020419   -4.8772721    4865.0364            1 
   44700     2.025166   -4.8474981    4909.7328            1 
   44800    2.0365413   -4.8059814    4926.9354            1 
   44900    1.9932615   -4.7723605     4934.131            1 
   45000    2.0051653   -4.8245309    4910.3318            1 
   45100    1.9614258    -4.847875    4874.3029            1 
   45200    1.9592986   -4.7962608    4918.1151            1 
   45300    2.0396152   -4.8406773     4902.319            1 
   45400    1.9948861   -4.8583594    4891.1158            1 
   45500    1.9582928   -4.8223997    4918.5845       -1e+20 
   45600    2.0220141   -4.7836626    4913.4133            1 
   45700    2.0312146   -4.8671567    4897.8499            1 
   45800    1.9614282   -4.8133736    4897.8937            1 
   45900    2.0378239   -4.8320408    4897.0996            1 
   46000     2.052788   -4.7790597    4947.1448            2 
   46100    1.9881387   -4.7642372    4934.3355       -1e+20 
   46200    1.9945314   -4.7854001    4902.5248            1 
   46300    1.9989291   -4.8040356    4914.8069            1 
   46400    2.0067816   -4.8542534    4948.2719       -1e+20 
   46500    2.0281751   -4.8056535    4885.6393            1 
   46600    1.9536166   -4.8109972    4907.3997            1 
   46700    1.9837811    -4.815743    4919.1038            1 
   46800    2.0149386   -4.7752771     4920.366            2 
   46900    2.0007996   -4.7891297    4921.9637            2 
   47000    1.9743448   -4.8253448    4900.3033            1 
   47100    1.9863559   -4.7890828    4912.1463            1 
   47200    2.0125003   -4.7606764    4921.9844            1 
   47300    1.9802625   -4.8017858    4949.3307            1 
   47400     1.988964   -4.8363543    4883.0527            1 
   47500    1.9916463   -4.8106617    4901.8612            1 
   47600    2.0000211   -4.8124986     4917.182            2 
   47700     1.998424    -4.829934    4917.5487       -1e+20 
   47800    1.9941196   -4.8439464    4906.9943            1 
   47900    2.0047149   -4.8108821    4902.4707            1 
   48000    2.0072921    -4.803661      4961.91            1 
   48100     2.017763   -4.7683598     4934.241            1 
   48200    1.9893122   -4.7866054    4914.2096            2 
   48300    1.9742739   -4.8194745    4919.4329            1 
   48400    2.0227443   -4.8099244    4921.9651            1 
   48500    1.9458958   -4.7527549    4926.6128            1 
   48600    2.0187929   -4.8227586    4895.2824       -1e+20 
   48700    2.0119689   -4.8153074    4967.0878            2 
   48800    2.0289977   -4.8129157    4930.2332       -1e+20 
   48900    2.0232692   -4.8216441    4897.8027            1 
   49000    1.9497629   -4.8318473    4907.6237            1 
   49100    1.9723192   -4.7675599    4933.0495       -1e+20 
   49200     2.020182   -4.7346926    4915.8875            1 
   49300    1.9817541    -4.796148    4909.3566       -1e+20 
   49400    1.9720842   -4.8458093    4922.8551            2 
   49500    2.0645837   -4.8176652    4894.4567            1 
   49600    1.9883184   -4.7898089    4927.0649       -1e+20 
   49700    2.0180822   -4.8016542    4945.7149            2 
   49800    1.9914517   -4.8116473    4882.6873            1 
   49900    2.0292932   -4.8166645    4927.3865            1 
   50000    2.0000713   -4.8350475    4928.3427            1 
   50100    1.9980735   -4.7478171    4930.1379            2 
   50200    1.9676514   -4.7408128     4921.166            1 
   50300    1.9702432   -4.7987052    4891.4015            2 
   50400    2.0093671   -4.8575786     4898.612            4 
   50500    1.9717222   -4.7569291    4927.1305            1 
   50600    2.0555928   -4.7772316    4911.7605            1 
   50700    1.9766678   -4.7873068    4918.0136            1 
   50800    1.9724819   -4.7848624    4926.2549            1 
   50900     2.004878   -4.7720876    4882.5895            1 
   51000    1.9859116   -4.7844829    4941.2887            1 
   51100    1.9800383   -4.8550091    4917.2905            1 
   51200    2.0041895   -4.8602197    4861.5359            2 
   51300    2.0017833   -4.8654422    4901.4851            1 
   51400    1.9862889   -4.8312195    4918.0501            1 
   51500    2.0362688   -4.8212605    4907.7816            1 
   51600    2.0002645     -4.77967    4943.4075            1 
   51700    2.0348273   -4.7921114    4944.4493            1 
   51800    2.0061682   -4.8316492    4920.4416            1 
   51900    2.0227432   -4.8246383    4912.3363            1 
   52000    1.9799464    -4.790786    4924.2711            1 
   52100    2.0280906   -4.7862003    4943.9111            1 
   52200    2.0078826   -4.7977588    4905.7722            1 
   52300    2.0032725   -4.8457554    4911.9574            1 
   52400    1.9700559   -4.8138671    4902.6741            1 
   52500    2.0272907   -4.7909587    4920.8727            2 
   52600    1.9913578   -4.8009629    4970.6579            1 
   52700    2.0353057   -4.7571233     4933.987       -1e+20 
   52800    2.0321092   -4.7786444    4903.5621            1 
   52900     1.961654   -4.8317406    4928.8845            2 
   53000    2.0278478   -4.8294626    4905.1031            1 
   53100    2.0300174   -4.7531934    4929.8376            1 
   53200    1.9889113   -4.7451214    4960.5557            1 
   53300     2.028213   -4.8532671    4907.4717            1 
   53400    1.9986328   -4.8577556    4898.7353            1 
   53500    2.0146966   -4.8198786    4897.3881            1 
   53600    1.9322806   -4.7912362    4929.2345            1 
   53700    2.0121596   -4.7914659    4899.1607            1 
   53800    2.0252345   -4.7965915    4922.8271            1 
   53900    1.9841803   -4.8031276    4936.1878            2 
   54000    2.0093542   -4.7958484    4901.1775            1 
   54100    2.0088278   -4.7996227    4917.3663            4 
   54200    1.9851944   -4.8139847    4933.2263            2 
   54300    2.0311999   -4.8266322    4896.9973            1 
   54400    1.9559228   -4.7676843    4917.3414            1 
   54500     2.010333   -4.7673343    4927.8016            1 
   54600    1.9752613   -4.8309415    4935.5692            1 
   54700    1.9701217    -4.814917    4895.7716            3 
   54800    2.0238054   -4.7909482    4925.2371       -1e+20 
   54900    1.9766765   -4.8113415    4919.9945            1 
   55000    2.0083081   -4.8751834    4897.5054            1 
   55100    2.0302789   -4.7815183    4880.1603            1 
   55200     1.982687   -4.8152893    4951.6997            1 
   55300    2.0196232   -4.8254591    4925.8641            2 
   55400    2.0145276   -4.8123834    4892.5073            1 
   55500    1.9473042   -4.8045277    4906.5308            3 
   55600    2.0501113   -4.8559176    4921.1379            1 
   55700    1.9789079   -4.8181633    4907.9991            1 
   55800    2.0364452   -4.8131777    4904.6005            1 
   55900    1.9642917   -4.7744981    4919.7546            1 
   56000    2.0705812    -4.803218    4908.4722            1 
   56100    1.9267538   -4.7888265    4986.9485            1 
   56200    2.0202723   -4.7735784    4913.9578       -1e+20 
   56300    2.0240489   -4.7896494    4919.6226            1 
   56400     1.947993   -4.8143577    4922.2108            2 
   56500    2.0087085   -4.7978799    4922.2786       -1e+20 
   56600    2.0395283    -4.812378    4926.2152       -1e+20 
   56700    1.9719619   -4.7763148    4922.8727            1 
   56800    2.0405864   -4.7736982    4930.8265            1 
   56900     1.981992   -4.7496361    4965.4876            1 
   57000    2.0046885   -4.8008651    4909.7836            1 
   57100     1.998488   -4.8254084    4906.8016            1 
   57200    2.0368304   -4.8318668    4911.7099            1 
   57300    1.9593033   -4.8025199    4944.3974            1 
   57400    2.0235729   -4.7545463    4923.9708            2 
   57500    2.0345877   -4.8001916    4914.7295            1 
   57600    1.9805492   -4.8250308     4908.147            1 
   57700    2.0214216   -4.8210458    4919.7059            1 
   57800    2.0243735   -4.8216846    4920.6854            1 
   57900    2.0165415   -4.7918903    4940.9745            1 
   58000    2.0109605   -4.7771966    4957.1646            2 
   58100    2.0020954    -4.798647    4905.0282       -1e+20 
   58200    1.9630711   -4.8595975    4918.6564            1 
   58300    2.0116206   -4.8059814    4911.5841            1 
   58400    2.0244985   -4.7997426    4933.4875            1 
   58500    2.0082924     -4.83777     4929.398            1 
   58600     1.978169   -4.7916069    4893.5248            1 
   58700    2.0042822   -4.7746911    4909.4692            1 
   58800    2.0118355   -4.7877523    4944.2695            1 
   58900    1.9772432    -4.805135    4912.9306            1 
   59000    2.0096939   -4.8094599    4905.1593       -1e+20 
   59100    2.0095179   -4.8047647    4925.0862            1 
   59200    1.9833326   -4.8218906     4883.333            1 
   59300    2.0198902   -4.8590487     4911.858            2 
   59400    2.0308341   -4.8424216    4921.7853            1 
   59500    1.9790229   -4.8095991    4904.1436            1 
   59600    2.0074677   -4.7877658    4929.5609            1 
   59700    2.0022337   -4.7935618    4945.4496            1 
   59800    2.0393818    -4.789098    4943.4078            1 
   59900    1.9814238    -4.798509    4934.7561            1 
   60000    2.0088515    -4.775864    4924.4537       -1e+20 
   60100    2.0590251   -4.7357241    4953.1051            1 
   60200    2.0148412   -4.7734621    4939.0183            2 
   60300    1.9920636   -4.8205149    4923.9042       -1e+20 
   60400    2.0096664   -4.7899975    4906.7808            1 
   60500    2.0169895   -4.7766616    4945.1784            1 
   60600    1.9817815    -4.771011    4928.6593            1 
   60700    2.0190452   -4.8220487    4905.2291            1 
   60800    1.9901103   -4.8187669    4929.1294       -1e+20 
   60900    2.0168092    -4.798933    4940.3517            2 
   61000    2.0239974   -4.7826244    4921.7466       -1e+20 
   61100    1.9836745    -4.767187    4984.1509       -1e+20 
   61200    2.0012107   -4.8328794    4903.6852       -1e+20 
   61300    2.0118673   -4.8288391     4924.362            3 
   61400    1.9939678   -4.7984796     4918.248            1 
   61500     1.919878   -4.7825894    4879.8457       -1e+20 
   61600       2.0062   -4.8582249     4909.777            1 
   61700    2.0030953   -4.7961862    4927.6092       -1e+20 
   61800    2.0161074   -4.7340618    4947.6118            2 
   61900    1.9737223   -4.7654825    4913.5368            1 
   62000    1.9800768   -4.7974053    4918.6783            1 
   62100    2.0284728   -4.7754844    4916.2969            1 
   62200    1.9788027   -4.7942112    4924.8647            1 
   62300     1.999001   -4.8135287    4934.1132            1 
   62400    2.0284731   -4.7553971    4938.9044            1 
   62500    1.9858236   -4.7661479    4972.3518            1 
   62600    2.0327248   -4.7884795    4942.4415       -1e+20 
   62700    2.0141184   -4.7735504    4888.7939            1 
   62800     1.981396   -4.8540301    4919.8074            1 
   62900    1.9834963   -4.8244505    4907.3767            1 
   63000    1.9835884   -4.7604478    4929.5366            2 
   63100    2.0465235   -4.8292863    4939.0375            1 
   63200     1.995287   -4.8245722    4929.5313            1 
   63300    1.9690814   -4.7490929    4926.1378            2 
   63400    2.0340151   -4.7622185    4930.1371            1 
   63500    1.9729455   -4.7953891    4934.6428            1 
   63600    2.0184243   -4.8251525    4924.7769            1 
   63700     1.976046   -4.7983856    4901.0557            1 
   63800    1.9912444   -4.7909603    4936.1872            2 
   63900    2.0373027   -4.7627557    4936.9873       -1e+20 
   64000    2.0137342   -4.8153502     4936.907            3 
   64100    1.9842471   -4.8684249    4899.0688       -1e+20 
   64200    2.0200695   -4.8084144    4909.8854            1 
   64300    1.9758169   -4.8142503    4910.9433            1 
   64400    2.0124078   -4.8102418    4907.3056            1 
   64500    2.0130915   -4.8159542    4939.8611            2 
   64600    1.9619785   -4.8046332    4902.0768            1 
   64700    2.0173751   -4.8239747    4910.1962            1 
   64800    1.9968434   -4.8113428    4919.6233            1 
   64900    1.9880689   -4.7868829    4928.4644       -1e+20 
   65000    2.0073947   -4.7613248    4942.9549       -1e+20 
   65100    1.9867559   -4.7986562    4916.9847            1 
   65200    1.9733559   -4.8331645    4915.2086            1 
   65300    2.0106546   -4.7531204    4891.4654            1 
   65400    1.9498151   -4.7733509     4916.172            1 
   65500    2.0268221   -4.7835824    4934.8443            1 
   65600    2.0126238   -4.7482181    4944.0849            1 
   65700    1.9711187   -4.7839001     4925.949            1 
   65800    2.0194829   -4.7847245    4939.4238       -1e+20 
   65900    2.0155427    -4.766745    4931.1532            2 
   66000    2.0018875   -4.8037848    4903.6789            1 
   66100    2.0074559    -4.782177    4945.2696            1 
   66200    2.0147108   -4.7744357    4933.4443            2 
   66300    2.0047138    -4.819957    4911.3547            1 
   66400    2.0297948   -4.7861465    4920.9886       -1e+20 
   66500    1.9910551   -4.8367413    4941.1293            2 
   66600    2.0127425     -4.83933     4878.543            1 
   66700    1.9873055   -4.7579693    4931.0146            1 
   66800    2.0205015   -4.7989458    4943.2353            1 
   66900    1.9950001   -4.8153762    4946.6794            1 
   67000    2.0084816   -4.7775461     4940.717       -1e+20 
   67100    2.0219061   -4.7819318    4912.9816            1 
   67200     1.966598   -4.8218336    4931.0111            1 
   67300    2.0282025   -4.8060911    4910.5738            1 
   67400    1.9944651   -4.8222645    4916.2222            1 
   67500     1.951545   -4.8529354    4884.7428            1 
   67600    2.0062812    -4.859509    4921.4656            2 
   67700    2.0201871   -4.8006754    4934.4193            1 
   67800    2.0092754   -4.7742637    4938.1193            1 
   67900    1.9761097   -4.8078766     4912.749            1 
   68000    2.0174307   -4.8290085    4902.5536            1 
   68100     2.009719    -4.789519    4950.0626       -1e+20 
   68200    2.0023474   -4.7496613    4938.8565            1 
   68300    2.0129223   -4.7952846    4951.0195            1 
   68400    1.9842945   -4.7810555    4957.7321            1 
   68500    1.9937936   -4.7953213     4883.707       -1e+20 
   68600    1.9812598   -4.8271972    4898.8924            1 
   68700    1.9760009   -4.7921363    4947.0047            1 
   68800    2.0359735   -4.7556518    4924.9767            2 
   68900    2.0252742   -4.8217449    4927.2091            1 
   69000    1.9812988   -4.8088088    4923.1142            1 
   69100    2.0432226   -4.7757489    4916.1029       -1e+20 
   69200    1.9629282   -4.7688084    4937.2175            1 
   69300     2.022223   -4.8025996    4891.0044            2 
   69400    1.9797558    -4.797931    4912.3225            1 
   69500    1.9971948   -4.7868991     4926.147            1 
   69600    2.0283232   -4.7596038    4932.5869            1 
   69700    1.9812739   -4.7751843    4944.5767            1 
   69800    2.0109322   -4.8032933    4914.3423       -1e+20 
   69900    1.9970611   -4.8231575    4897.2404            1 
   70000    2.0191802   -4.8230993    4932.0538            1 
   70100    1.9854108   -4.7979566    4950.8409            1 
   70200    2.0662463   -4.7823588    4903.1972            1 
   70300    1.9772806   -4.7905471    4922.8284            2 
   70400    1.9688861   -4.8135479    4943.2979            1 
   70500    2.0643363   -4.7925928    4913.8518            1 
   70600    1.9791943   -4.8013478    4919.6237            2 
   70700    2.0344262   -4.8177013    4907.5377            1 
   70800    1.9791107    -4.775721    4925.4473            1 
   70900    1.9997535   -4.8689622     4897.258       -1e+20 
   71000    2.0034068   -4.8367267    4905.7451            1 
   71100    2.0261227   -4.8383327    4925.8595            1 
   71200    2.0292245   -4.7925495    4950.2812            1 
   71300    2.0024798   -4.7535445    4949.7864            2 
   71400    2.0026035   -4.7488871    4920.6853            1 
   71500    1.9633604   -4.7744694     4929.992            1 
   71600    2.0173207   -4.8055604    4913.1119            2 
   71700    1.9712827   -4.8441781    4901.7073            2 
   71800    2.0017632    -4.857721    4882.5402            3 
   71900    2.0122274   -4.8098538    4933.6217            1 
   72000    1.9680655   -4.7545724    4918.8284            1 
   72100    2.0361054   -4.8097738     4910.944            1 
   72200    1.9775188   -4.7811014     4973.106            1 
   72300    2.0603543   -4.7838307    4914.2103            1 
   72400    1.9735882   -4.7721671     4916.283       -1e+20 
   72500      1.96465   -4.7998435    4907.9904            2 
   72600    2.0177717   -4.7794732    4903.4047            1 
   72700    1.9674101   -4.7721256    4945.5013            1 
   72800    2.0269919   -4.7788874    4924.1736            1 
   72900    2.0092656   -4.7843511    4913.4732            1 
   73000    1.9548337   -4.8001624    4945.2093            1 
   73100    2.0359156   -4.7874033    4909.0673       -1e+20 
   73200    1.9813882    -4.757789    4932.1786            1 
   73300    1.9650044   -4.7690184    4930.8887       -1e+20 
   73400    2.0001694   -4.7610748    4889.6655            2 
   73500    1.9665685   -4.8255675    4923.1302            3 
   73600    1.9958772   -4.7771818    4873.9797            1 
   73700    2.0227774    -4.785077    4940.2099            2 
   73800    1.9965602   -4.8251165    4935.0277            1 
   73900    1.9932501   -4.8136013    4897.0149            1 
   74000     2.029578    -4.789248    4918.0179            1 
   74100     1.993147   -4.7913603    4947.0087            2 
   74200    2.0036846   -4.8057931    4913.8061            2 
   74300    2.0204471   -4.8253517    4897.1054            1 
   74400    1.9290435   -4.8118949    4908.1349       -1e+20 
   74500    2.0175327   -4.8168758    4908.5377            1 
   74600    1.9705452   -4.7935957     4915.991            2 
   74700     2.014901   -4.8048417    4922.6453            1 
   74800    1.9979986   -4.7858697    4937.3569            1 
   74900    2.0074967   -4.8555098    4878.2264            1 
   75000    1.9894423   -4.8580205    4903.2481            1 
   75100    2.0050769   -4.8008656    4905.7782            2 
   75200     2.024421   -4.8250201    4915.2547            3 
   75300    1.9850425   -4.7950651    4934.2508            1 
   75400    2.0049009   -4.8285096    4882.3994            1 
   75500     1.935886   -4.7920926    4879.8572       -1e+20 
   75600    1.9748334   -4.7841125    4924.8525            1 
   75700    2.0039801   -4.7694617    4934.3855            1 
   75800    2.0682177   -4.7916327    4942.4125            1 
   75900     1.995723   -4.7928208    4947.5778            1 
   76000    1.9961405   -4.8158384    4897.9287            2 
   76100    1.9970169   -4.8192107    4887.7546            1 
   76200    2.0314634   -4.8008803    4941.9211            1 
   76300    2.0300924   -4.7772581    4951.1786            1 
   76400    1.9889503   -4.7617976    4949.4669            1 
   76500    1.9988312   -4.7958849    4909.6778            1 
   76600    1.9637753   -4.8346166    4918.9035       -1e+20 
   76700    1.9919911   -4.7851888     4905.483            1 
   76800    2.0175643   -4.7984781    4908.7181       -1e+20 
   76900     1.985446   -4.7914623    4955.7572            1 
   77000    2.0416685   -4.7684538      4928.71       -1e+20 
   77100    1.9773252   -4.7484973    4940.2161            1 
   77200    1.9845835   -4.8211264    4929.5252            1 
   77300    1.9931926   -4.8356447    4872.2424            1 
   77400    1.9777496   -4.8441732    4894.6202            2 
   77500     1.996859   -4.8483351    4906.0183            1 
   77600    2.0147861   -4.7806845    4921.4677            2 
   77700    1.9952834   -4.7902471    4905.4869            1 
   77800    1.9653238   -4.8090838    4921.9297            1 
   77900    2.0210289   -4.7972753    4926.5665            2 
   78000    1.9777046   -4.7695736    4900.6575            2 
   78100    2.0130776   -4.7487104     4942.509            1 
   78200    2.0132789   -4.7895627    4965.3317            1 
   78300    1.9964308   -4.8141586    4879.3166            1 
   78400    1.9662653   -4.7617146    4915.8125            1 
   78500    1.9956162   -4.7871472    4915.6416            1 
   78600    1.9972729   -4.8554767    4890.9405            1 
   78700    1.9903522   -4.8289055    4900.5401            2 
   78800    1.9805838   -4.7524032    4946.0088            1 
   78900    2.0325525    -4.774629    4943.7051            1 
   79000    2.0031847    -4.820706    4914.1514            2 
   79100    1.9890543   -4.7746294    4928.0252       -1e+20 
   79200    2.0264793   -4.7597404    4937.3102            1 
   79300    1.9876519   -4.7740597    4933.7923            1 
   79400    1.9988698   -4.8066438    4921.0635            2 
   79500    1.9792527   -4.8192614     4887.395            2 
   79600    2.0285403   -4.8156017    4938.1871            1 
   79700    2.0304301   -4.7948048    4944.8794            2 
   79800    1.9908261   -4.8188413    4914.7429            1 
   79900    1.9999942   -4.7804291    4925.9297            2 
   80000    2.0115053   -4.7587109    4934.6543            1 
   80100    1.9349839   -4.7471988    4924.0281            1 
   80200    2.0450619   -4.8004545    4936.7581            1 
   80300    1.9561833    -4.747963    4943.6435       -1e+20 
   80400      2.00653   -4.7792699    4914.8439            1 
   80500    2.0235748   -4.7472371     4943.668            1 
   80600    2.0007821   -4.7793381    4951.2228       -1e+20 
   80700    1.9812137    -4.760614    4940.6286       -1e+20 
   80800    2.0171933    -4.780135    4904.7598            1 
   80900    1.9857559   -4.8274925    4943.6343            1 
   81000    2.0095113   -4.7896359    4908.2456            1 
   81100    1.9906139    -4.793231    4914.4405            1 
   81200    1.9950784   -4.8113912    4930.9441       -1e+20 
   81300    2.0088667   -4.8188774     4895.316            1 
   81400     1.957691   -4.8243946    4898.9658            1 
   81500    2.0216909   -4.8335618    4899.4154            1 
   81600    1.9788822   -4.7959352    4899.1917            1 
   81700    2.0028149   -4.8226276    4948.4715            3 
   81800    2.0416349   -4.7802593    4922.8157            1 
   81900    1.9854604   -4.8094479    4939.2678            1 
   82000    1.9812856   -4.8202936    4913.0347            1 
   82100    2.0279249   -4.7746495    4914.5225       -1e+20 
   82200    2.0015496   -4.8317551    4936.2238            1 
   82300    1.9498553   -4.7670992    4935.5232            1 
   82400    2.0545401   -4.7922776    4931.3594            1 
   82500    1.9599211   -4.7596906    4935.5547            1 
   82600     2.016444   -4.7975864    4923.8335       -1e+20 
   82700    1.9778854   -4.8064249    4925.1573       -1e+20 
   82800    1.9872694   -4.8183325    4903.5227            1 
   82900    1.9915341   -4.7460663    4935.2338            2 
   83000    2.0197235   -4.7927732    4926.2489            2 
   83100    1.9988316   -4.7930551    4943.5625            1 
   83200    2.0404358   -4.7631138    4952.8865       -1e+20 
   83300    1.9922421   -4.7436626    4941.9422            1 
   83400    1.9756056    -4.786688    4926.5168            1 
   83500    1.9985206   -4.8131425    4906.6521            1 
   83600    2.0141961   -4.7676346    4946.9188            1 
   83700    1.9919188   -4.7883802    4919.6358            1 
   83800    2.0184447   -4.8071746    4922.0306            2 
   83900     2.013246    -4.813599    4941.6656            1 
   84000    1.9999988   -4.8079935    4917.2061            1 
   84100    1.9845475   -4.8156768    4910.3179            2 
   84200    2.0178679   -4.8202226    4932.3284       -1e+20 
   84300    2.0213257   -4.7867436    4914.0505            1 
   84400    1.9450889   -4.8132901    4937.0017            1 
   84500    2.0534898   -4.8197942     4900.567            2 
   84600    2.0132792    -4.819268    4900.0228            1 
   84700    1.9469773   -4.7842771    4946.0147            1 
   84800    2.0370921   -4.7666422    4919.7091       -1e+20 
   84900    1.9734415   -4.7604524    4925.8263            1 
   85000    2.0039129   -4.8118474    4930.0356            1 
   85100    2.0087105   -4.8353365    4906.7859            1 
   85200    2.0276461   -4.7758309    4929.9442       -1e+20 
   85300    1.9799704   -4.7838215    4930.8963            2 
   85400    2.0047718   -4.7850073     4922.701            1 
   85500    2.0338917   -4.7898666    4954.1395            1 
   85600    1.9704165   -4.7762258    4914.8243       -1e+20 
   85700    1.9980775   -4.8112949     4894.444            2 
   85800    1.9834531   -4.8317701    4897.2965            2 
   85900    1.9852732    -4.793607    4939.3416            1 
   86000    2.0740273    -4.759231    4908.8306       -1e+20 
   86100    2.0077537   -4.8171835     4949.436            2 
   86200    1.9754838   -4.8282276     4924.247            1 
   86300     2.048397   -4.8288617    4901.2261            1 
   86400    1.9707037   -4.8035047    4930.1521            1 
   86500    2.0172518   -4.7555858    4936.6781            1 
   86600    2.0567239   -4.7789059    4944.2434            1 
   86700    2.0092775   -4.8417861    4954.1345            2 
   86800    2.0138844   -4.7996351    4925.6235            1 
   86900    2.0056899   -4.8218906    4918.4374            1 
   87000    1.9468719   -4.7959733    4906.5099            1 
   87100    2.0588762   -4.8548521    4908.2012            1 
   87200    1.9535096   -4.7943575    4907.8817            1 
   87300    1.9858658   -4.7931037     4918.836            1 
   87400    2.0383244   -4.8116786    4929.2152            1 
   87500    1.9901065   -4.8382659    4902.6074            1 
   87600    1.9849989   -4.8193623      4932.24            1 
   87700    1.9988852   -4.7796398    4933.9731            1 
   87800    2.0250791   -4.7956021    4898.6354            1 
   87900    1.9874439   -4.8482934    4919.1671            1 
   88000    1.9956745   -4.8162102    4938.5495            2 
   88100    2.0633444   -4.7832456    4937.0952            1 
   88200    2.0027253   -4.7835893    4937.4098            1 
   88300    1.9959562   -4.7962728    4939.8201            1 
   88400    2.0575056   -4.8154498      4907.85       -1e+20 
   88500    1.9871137   -4.8549397    4900.3199            1 
   88600    2.0120962   -4.8112157     4900.309       -1e+20 
   88700    2.0067674   -4.7655631      4950.19            1 
   88800    2.0276208   -4.8027004    4919.2776            1 
   88900    1.9847491   -4.8213094    4930.4624            1 
   89000    2.0122903   -4.7776078    4911.3026            1 
   89100    1.9928257   -4.7947959    4919.0173            1 
   89200    1.9848929   -4.7639604    4917.9641            1 
   89300    2.0561348   -4.8197145    4929.2684            1 
   89400    1.9651048    -4.820015    4946.4931            1 
   89500     2.038029   -4.8190724    4901.4835            1 
   89600     1.947932   -4.7565169    4937.7535            1 
   89700    2.0463125    -4.836306    4914.7251            1 
   89800    2.0025871   -4.8152139     4903.274            2 
   89900    2.0003902   -4.7754828    4956.0482       -1e+20 
   90000    2.0273414   -4.7709414    4928.0064            1 
   90100    1.9906948   -4.7960365    4923.4623            1 
   90200    2.0314917   -4.8422425    4926.7437       -1e+20 
   90300    1.9659462   -4.8102162    4925.3689            1 
   90400    2.0599712   -4.8181481    4897.5252            1 
   90500    1.9786825   -4.8212349    4944.4572            1 
   90600    2.0415155   -4.7802133    4927.3696            1 
   90700    2.0040974   -4.7818437    4945.5523            1 
   90800    1.9836376   -4.7722842    4926.5915            1 
   90900    2.0226577   -4.8369273    4908.7408            1 
   91000    1.9913965   -4.8680646    4898.4554       -1e+20 
   91100    1.9847643   -4.8430315    4880.3619            1 
   91200    1.9790493   -4.7871294    4916.0525       -1e+20 
   91300    2.0315865   -4.7855284    4929.4082            2 
   91400    2.0281242   -4.7252585    4945.9411            1 
   91500    1.9992753   -4.7919218     4927.452            1 
   91600    2.0095719   -4.8668182    4895.0455            1 
   91700    1.9812779   -4.8074439    4886.6909            1 
   91800    1.9861492   -4.8167468    4914.6037            1 
   91900    2.0061226   -4.7918549    4922.2734            1 
   92000    2.0364847   -4.8380872    4901.8863            1 
   92100     2.002269   -4.9044854    4907.0081            1 
   92200    1.9952396   -4.8380582    4895.8449            1 
   92300    2.0395703   -4.7848878    4894.8318            1 
   92400    1.9633418   -4.8064714    4935.9504            1 
   92500    2.0105522   -4.8372053    4917.7162            1 
   92600    2.0043927   -4.8074819    4890.5708            1 
   92700    2.0064378   -4.8207663    4939.2138            1 
   92800    2.0543305     -4.79658    4939.2013            1 
   92900    2.0139735   -4.8103158    4910.2459            1 
   93000    1.9816857   -4.7902167    4924.4625       -1e+20 
   93100    2.0005003   -4.7870186     4913.289            1 
   93200    2.0115372   -4.8400915    4902.1886       -1e+20 
   93300    1.9604166   -4.8432035    4918.5338            1 
   93400    2.0258751   -4.7994249    4883.1457            1 
   93500    2.0442795   -4.8082895    4925.3449            1 
   93600    1.9438331   -4.7647202    4958.8353            1 
   93700     2.042458   -4.7665869    4899.7933       -1e+20 
   93800     2.008175   -4.8453899    4909.7799            1 
   93900    1.9800159   -4.8365521    4923.7985            1 
   94000    2.0163234    -4.780156      4932.81            4 
   94100    2.0169676    -4.790034    4911.8938            2 
   94200    1.9799951   -4.8175281    4924.5726            1 
   94300    2.0081432   -4.7775512     4913.829            2 
   94400    1.9623321   -4.8344795       4901.8            1 
   94500    1.9650146   -4.7928558     4902.486            1 
   94600    2.0256745   -4.7762234    4922.3143            2 
   94700    1.9629739   -4.7885045    4918.9233            1 
   94800    2.0036442   -4.8033943    4921.4987       -1e+20 
   94900     2.008942   -4.7386378     4942.191       -1e+20 
   95000    1.9923194   -4.8180729    4920.8394            1 
   95100    1.9871351   -4.8053854    4928.3533            2 
   95200    2.0175993   -4.7681618     4932.892       -1e+20 
   95300    2.0169989   -4.8099721    4945.5913            1 
   95400    1.9629832   -4.8201187    4926.5424            1 
   95500    2.0257853   -4.7957356    4895.6771            4 
   95600    2.0076761    -4.836597    4935.8111            1 
   95700    2.0484172   -4.8231265    4947.3969       -1e+20 
   95800    2.0043476   -4.8167345    4896.0347            1 
   95900     1.986803   -4.8382292    4910.2493            1 
   96000    2.0207489   -4.7992379    4930.3988            1 
   96100    1.9938461     -4.76391    4938.4755            1 
   96200    2.0024654   -4.7813679    4948.4655            2 
   96300    2.0193014   -4.8150442    4888.0182       -1e+20 
   96400    1.9730298   -4.8411672    4911.4314            3 
   96500    2.0305792   -4.8002385    4894.5944            1 
   96600    1.9574347   -4.7440078     4919.442            1 
   96700    1.9864356   -4.7547004     4967.495            1 
   96800    2.0205949   -4.7612909    4933.8266            1 
   96900    1.9819397   -4.7738429    4921.2027            1 
   97000    2.0189497   -4.7708202     4951.586            1 
   97100    2.0461686   -4.8066854    4951.5814            1 
   97200    1.9982144   -4.8166002    4916.6669            1 
   97300    2.0161473   -4.7951476    4923.4309            1 
   97400    2.0071124   -4.8228245    4954.0522            1 
   97500    2.0194507   -4.8216082    4891.4715            2 
   97600    1.9896368   -4.8016438    4932.7176            1 
   97700    1.9843909   -4.7781508      4914.11       -1e+20 
   97800    2.0009475   -4.7552682     4916.193            1 
   97900    1.9906016   -4.7844762    4947.6466            3 
   98000    1.9896945   -4.7762737    4896.4663            1 
   98100    1.9944786   -4.8085048    4899.4821            1 
   98200    1.9741246   -4.7862075    4948.9623            1 
   98300    2.0160975   -4.7637753    4928.0657            1 
   98400    2.0025677    -4.769682    4934.7022            2 
   98500    1.9789621   -4.7512192    4949.5724            1 
   98600    2.0280802   -4.7632318     4905.446            1 
   98700    1.9547693   -4.7759272    4963.2954            2 
   98800    2.0005673    -4.808629    4887.4698            1 
   98900    2.0298768   -4.8144584    4905.6293            1 
   99000    1.9583825   -4.8095688    4932.1833       -1e+20 
   99100    2.0004538   -4.7965668    4897.1579            1 
   99200    1.9798594   -4.7655438    4911.5697            1 
   99300     2.008573   -4.7753522    4955.5843            1 
   99400    2.0065891   -4.8139056    4882.1961            1 
   99500    1.9677101   -4.8433276    4908.2652            1 
   99600    2.0108072   -4.8085476    4921.2384            2 
   99700    2.0129093   -4.7905517    4910.2461            1 
   99800    1.9823816   -4.7859272    4948.6915            1 
   99900    2.0121607   -4.7877444    4914.0872            1 
  100000    1.9644693   -4.7818524    4921.1873       -1e+20 
  100100    2.0390604   -4.8038274     4916.246       -1e+20 
  100200    2.0086749   -4.8334065    4927.8681            2 
  100300     1.973166   -4.8131409    4882.3828            1 
  100400    2.0131854    -4.796046    4922.0881            1 
  100500    1.9879709   -4.7826486    4923.7797            1 
  100600    2.0088391   -4.7952348    4923.9259       -1e+20 
  100700    2.0095276   -4.8068303    4953.4059            4 
  100800    2.0030284   -4.7874206    4912.6306            1 
  100900    2.0000532    -4.805024    4911.9732            1 
  101000    2.0316243   -4.8441553    4924.2425            1 
  101100    2.0208119   -4.8169391    4913.9124       -1e+20 
  101200    1.9575239   -4.8359311    4939.1832            1 
  101300    2.0507055   -4.8396305    4887.8154            1 
  101400    1.9701851   -4.7695555    4933.2672       -1e+20 
  101500    1.9984803   -4.7971196    4947.1238            1 
  101600    2.0674508   -4.7547145    4925.9478            1 
  101700    2.0124544    -4.798016    4917.2342            2 
  101800    1.9735128   -4.8268513     4924.781            2 
  101900    2.0465664   -4.7907902    4907.2715            3 
  102000    1.9813014    -4.760198    4944.5705            1 
  102100    2.0166529   -4.7954376     4958.084            1 
  102200    2.0049903   -4.8271806    4908.9079            1 
  102300    1.9725108   -4.7937172    4927.9334            1 
  102400    2.0252735   -4.8046725    4938.1597            1 
  102500    2.0064162   -4.8494276    4917.5778            4 
  102600    1.9875722   -4.8099594    4887.9017       -1e+20 
  102700    2.0089079    -4.775439     4917.291            1 
  102800    1.9387629   -4.7602076    4943.7675            1 
  102900    2.0373277    -4.805498    4898.5588            1 
  103000    1.9878879   -4.8071319    4944.0788       -1e+20 
  103100    1.9684881   -4.7656025    4924.0494            1 
  103200     2.054145   -4.8233574    4892.6278       -1e+20 
  103300    1.9642347    -4.840935     4929.326            1 
  103400    1.9926015   -4.7703176    4910.7817            1 
  103500     2.053929   -4.7752168    4923.6027            1 
  103600    1.9793916   -4.8250583    4980.0408            1 
  103700    2.0143189   -4.8293018    4897.4545            1 
  103800    1.9955985   -4.7762634    4922.8282            1 
  103900    1.9975635   -4.7900007    4929.0693       -1e+20 
  104000    1.9830165   -4.8191552    4889.9597            1 
Loop time of 267.468 on 18 procs for 100000 steps with 4000 atoms

Performance: 64605.928 tau/day, 373.877 timesteps/s
99.6% CPU use with 18 MPI tasks x no OpenMP threads

MPI task timing breakdown:
Section |  min time  |  avg time  |  max time  |%varavg| %total
---------------------------------------------------------------
Pair    | 31.656     | 32.698     | 34.045     |  13.8 | 12.23
Neigh   | 6.2151     | 6.3244     | 6.4597     |   2.9 |  2.36
Comm    | 12.161     | 14.923     | 17.964     |  49.0 |  5.58
Output  | 5.7921     | 5.7934     | 5.8083     |   0.2 |  2.17
Modify  | 203        | 205.72     | 208.91     |  13.4 | 76.91
Other   |            | 2.007      |            |       |  0.75

Nlocal:        222.222 ave         231 max         214 min
Histogram: 2 1 3 2 2 1 1 2 3 1
Nghost:        2085.94 ave        2106 max        2070 min
Histogram: 2 1 2 4 3 1 2 1 1 1
Neighs:        20767.1 ave       22085 max       19412 min
Histogram: 1 3 0 1 1 7 2 0 1 2
FullNghs:      41535.3 ave       43473 max       39911 min
Histogram: 3 0 4 3 0 2 2 1 0 3

Total # of neighbors = 747635
Ave neighs/atom = 186.90875
Neighbor list builds = 8336
Dangerous builds = 278

#clear
#
#next RN
#
#jump SELF
Total wall time: 0:04:29
