
units lj                  # Use reduced LJ style units
atom_style atomic         # Uncharged point particles
atom_modify map hash      # Needed for indexing of clusters etc
                          # Used to be able to find where atoms are in relation to each other.

# Define a lattice with which to populate the simulation cell. With units
# set to 'lj' the second argument to the lattice command is the reduced
# density rho* and the spacings are multiples of that required to acheive
# that density. Also define a simulation cell called 'box' in lattice units
# and fill it with atoms. Here we're creating a box which is ten lattice
# constants in each direction.
lattice fcc 1.0 spacing 1 1 1                 # All equal sizes - gives the right reduced density.
Lattice spacing in x,y,z = 1.5874011 1.5874011 1.5874011

region box block 0 10 0 10 0 10 units lattice # Defines a region, "box", in lattice units
create_box 1 box                              # Creates a simulation box as specified above,
Created orthogonal box = (0.0000000 0.0000000 0.0000000) to (15.874011 15.874011 15.874011)
  2 by 3 by 4 MPI processor grid
                                              # with one type of atom
create_atoms 1 box                            # Creates particles on lattice points
Created 4000 atoms
  using lattice units in orthogonal box = (0.0000000 0.0000000 0.0000000) to (15.874011 15.874011 15.874011)
  create_atoms CPU = 0.002 seconds


# Set the mass of the first (and only) atom type.
mass 1 1.0

# Lennard-Jones interactions between particles, 3.5 sigma cut-off. Apply
# long range tail corrections to energy and pressure and set all coefficients
# to unity since we work in reduced units here. Note that this doesn't shift
# the potential such that it goes to zero at the cutoff. That would require
# pair_modify('shift', 'yes').
pair_style lj/cut  3.5      # non-GPU version
pair_modify tail  yes
pair_coeff 1  1  1.0  1.0   # Intearaction between 1 and 1 set with epsilon = 1 and sigma = 1

write_data data.*
System init for write_data ...
Neighbor list info ...
  update every 1 steps, delay 10 steps, check yes
  max neighbors/atom: 2000, page size: 100000
  master list distance cutoff = 3.8
  ghost atom cutoff = 3.8
  binsize = 1.9, bins = 9 9 9
  1 neighbor lists, perpetual/occasional/extra = 1 0 0
  (1) pair lj/cut, perpetual
      attributes: half, newton on
      pair build: half/bin/atomonly/newton
      stencil: half/bin/3d
      bin: standard

#############################
#   M E L T   S Y S T E M   #
#############################

velocity all create 2.4 1741580 mom yes dist gaussian # Assign velocities
                                                    # Temperature 2.4, random number seed, zero linear momentum
						                                                        # Gaussian distribution

timestep 0.002   # simulation timestep
thermo 100       # output thermodynamic data every 100 steps

# Define a fix  in this case with index 1 applied to all
# particles in the simulation. This fix is for simulations
# in the anisotropic NPT ensemble. Note that we use the MTK
# correction.
fix 1 all npt temp 2.4 2.4 0.1 iso 5.68 5.68 0.5 mtk yes tchain 5 pchain 5 # Use NPT ensemble
                                                                         # Set temperature and pressure and damping
                                                                         # Numbers of thermostats in chain and in barostat
run 1000         # run for 10000 steps
Per MPI rank memory allocation (min/avg/max) = 3.676 | 3.679 | 3.684 Mbytes
Step Temp E_pair E_mol TotEng Press Volume 
       0          2.4   -8.3859253            0   -4.7868253   -2.2405722         4000 
     100    1.2552531   -6.5115672            0   -4.6291582     5.497081    4088.0579 
     200    1.4628633    -6.289567            0   -4.0958206    6.0903972    4138.0466 
     300    1.5904925   -6.0345783            0   -3.6494359    5.7376042    4272.4771 
     400    1.6850752   -5.7072351            0   -3.1802542    5.9705826    4399.2373 
     500    1.7895599   -5.4225046            0   -2.7388358     5.865757    4546.8704 
     600    1.8965854   -5.1442855            0   -2.3001186     5.865539    4691.2751 
     700    2.0304439     -4.92263            0   -1.8777256    5.8141752    4830.4151 
     800    2.1710171   -4.7567122            0   -1.5010006    5.6106115    4968.6247 
     900    2.2247838   -4.5230698            0   -1.1867284    5.8051376    5086.8715 
    1000     2.364264   -4.4348938            0  -0.88938446    5.9115751    5144.0032 
Loop time of 0.318984 on 24 procs for 1000 steps with 4000 atoms

Performance: 541719.501 tau/day, 3134.951 timesteps/s
99.5% CPU use with 24 MPI tasks x no OpenMP threads

MPI task timing breakdown:
Section |  min time  |  avg time  |  max time  |%varavg| %total
---------------------------------------------------------------
Pair    | 0.17627    | 0.18581    | 0.19659    |   1.1 | 58.25
Neigh   | 0.03366    | 0.035265   | 0.037193   |   0.5 | 11.06
Comm    | 0.063263   | 0.073573   | 0.083314   |   1.9 | 23.06
Output  | 0.00020339 | 0.00020882 | 0.00027951 |   0.0 |  0.07
Modify  | 0.019007   | 0.021932   | 0.024267   |   1.1 |  6.88
Other   |            | 0.002192   |            |       |  0.69

Nlocal:        166.667 ave         176 max         152 min
Histogram: 1 0 2 0 3 4 6 4 3 1
Nghost:        1840.88 ave        1857 max        1826 min
Histogram: 3 1 3 4 1 2 4 4 0 2
Neighs:        14784.9 ave       15702 max       13755 min
Histogram: 2 1 1 5 1 3 5 0 4 2

Total # of neighbors = 354837
Ave neighs/atom = 88.709250
Neighbor list builds = 86
Dangerous builds = 16

# Equilibrate just above the melting temperature to avoid step fn in T

fix 1 all npt temp 1.25 1.25 0.1 iso 5.68 5.68 0.5 mtk yes tchain 5 pchain 5
run 1000
Per MPI rank memory allocation (min/avg/max) = 3.677 | 3.680 | 3.685 Mbytes
Step Temp E_pair E_mol TotEng Press Volume 
    1000     2.364264   -4.4348938            0  -0.88938446    5.9115751    5144.0032 
    1100    1.9499649   -4.6617779            0   -1.7375618    5.8205171    4978.7844 
    1200    1.7213197   -4.9482774            0   -2.3669434    5.7402188    4808.4294 
    1300    1.5721809   -5.1954201            0   -2.8377383    5.7003773    4667.9329 
    1400    1.4692769   -5.4052033            0   -3.2018389    5.6740098     4560.708 
    1500    1.3897296   -5.5637068            0   -3.4796336    5.6667574    4476.2103 
    1600    1.2963572   -5.6470084            0   -3.7029588    5.6441736    4434.9383 
    1700    1.2716936   -5.7363737            0   -3.8293102    5.7159049    4387.6158 
    1800    1.2561313   -5.8008832            0   -3.9171572    5.6027564    4366.0004 
    1900     1.242552   -5.8327759            0   -3.9694139    5.6800198    4347.3872 
    2000    1.2686809   -5.8614487            0   -3.9589031    5.5394068    4347.1855 
Loop time of 0.311574 on 24 procs for 1000 steps with 4000 atoms

Performance: 554603.825 tau/day, 3209.513 timesteps/s
99.7% CPU use with 24 MPI tasks x no OpenMP threads

MPI task timing breakdown:
Section |  min time  |  avg time  |  max time  |%varavg| %total
---------------------------------------------------------------
Pair    | 0.18061    | 0.18485    | 0.19196    |   0.7 | 59.33
Neigh   | 0.030672   | 0.031264   | 0.032025   |   0.2 | 10.03
Comm    | 0.06501    | 0.071615   | 0.075797   |   1.1 | 22.99
Output  | 0.00020175 | 0.00020732 | 0.00027245 |   0.0 |  0.07
Modify  | 0.020012   | 0.021162   | 0.022179   |   0.4 |  6.79
Other   |            | 0.002473   |            |       |  0.79

Nlocal:        166.667 ave         176 max         159 min
Histogram: 1 1 7 1 4 5 1 3 0 1
Nghost:        2035.25 ave        2048 max        2013 min
Histogram: 1 0 2 0 4 2 5 1 6 3
Neighs:        17526.7 ave       18387 max       16728 min
Histogram: 3 2 3 3 2 3 1 2 2 3

Total # of neighbors = 420641
Ave neighs/atom = 105.16025
Neighbor list builds = 76
Dangerous builds = 5


# Small amount of linear quench

fix 1 all npt temp 1.25 ${temp} 0.1 iso 5.68 5.68 0.5 mtk yes tchain 5 pchain 5
fix 1 all npt temp 1.25 1.31 0.1 iso 5.68 5.68 0.5 mtk yes tchain 5 pchain 5
run 2000
Per MPI rank memory allocation (min/avg/max) = 3.677 | 3.680 | 3.685 Mbytes
Step Temp E_pair E_mol TotEng Press Volume 
    2000    1.2686809   -5.8614487            0   -3.9589031    5.5394068    4347.1855 
    2100    1.2688822   -5.8236444            0   -3.9207969    5.7214603    4346.7691 
    2200     1.250481   -5.8199182            0   -3.9446657    5.5623654    4364.1373 
    2300    1.2506366   -5.8371896            0   -3.9617037    5.4929934    4363.1591 
    2400    1.2810697   -5.8031073            0   -3.8819831    5.5867462    4368.3248 
    2500    1.2720971   -5.8214113            0   -3.9137427    5.6285756    4358.8155 
    2600    1.2401404   -5.8281278            0   -3.9683822    5.8178461    4338.4959 
    2700    1.2740037   -5.8272298            0    -3.916702    5.5301207    4362.6965 
    2800    1.2770346   -5.8456083            0   -3.9305353    5.5210951    4356.2198 
    2900    1.2518959   -5.8089746            0   -3.9316001    5.7650014    4349.8617 
    3000    1.2722718   -5.7613181            0   -3.8533874    5.8936761    4358.4784 
    3100    1.2951605   -5.7811228            0   -3.8388678    6.0572603    4339.2393 
    3200    1.2574705   -5.7829412            0   -3.8972069    6.0202311    4340.0352 
    3300     1.301202   -5.8100078            0   -3.8586928    5.6370171     4362.518 
    3400    1.2874079   -5.8117844            0   -3.8811554    5.4382954    4379.5185 
    3500    1.2783973   -5.7817079            0   -3.8645913    5.6355542    4372.0134 
    3600    1.3063392   -5.7697996            0   -3.8107806    5.6182812    4379.4359 
    3700    1.3173614   -5.7472908            0   -3.7717427     5.655646    4389.2925 
    3800    1.3210632   -5.7325146            0   -3.7514152    5.6489359    4399.4882 
    3900    1.2932336   -5.7349981            0   -3.7956327    5.8661002    4378.3235 
    4000    1.3290213   -5.7057745            0    -3.712741    6.0453781    4377.5792 
Loop time of 0.641723 on 24 procs for 2000 steps with 4000 atoms

Performance: 538550.299 tau/day, 3116.611 timesteps/s
99.7% CPU use with 24 MPI tasks x no OpenMP threads

MPI task timing breakdown:
Section |  min time  |  avg time  |  max time  |%varavg| %total
---------------------------------------------------------------
Pair    | 0.37572    | 0.38609    | 0.40362    |   1.0 | 60.17
Neigh   | 0.055977   | 0.057003   | 0.058288   |   0.2 |  8.88
Comm    | 0.13495    | 0.14853    | 0.16221    |   1.8 | 23.15
Output  | 0.00041253 | 0.00042534 | 0.0005694  |   0.0 |  0.07
Modify  | 0.038307   | 0.044153   | 0.048953   |   1.7 |  6.88
Other   |            | 0.005519   |            |       |  0.86

Nlocal:        166.667 ave         174 max         158 min
Histogram: 1 0 3 4 3 3 4 2 1 3
Nghost:        2029.58 ave        2053 max        2013 min
Histogram: 3 0 5 5 3 2 3 1 1 1
Neighs:        17373.8 ave       18518 max       16100 min
Histogram: 1 1 2 3 4 4 3 3 2 1

Total # of neighbors = 416970
Ave neighs/atom = 104.24250
Neighbor list builds = 135
Dangerous builds = 0

#############################
# F R E E Z E  S Y S T E M  #
#############################

# Define solid atoms. This closely follows ten Wolde  Ruiz-Montero and Frenkel  Faraday Discuss  1996  104  93-110
# Compute components of the per-atom q6 vector
compute q6 all orientorder/atom degrees 1 6 components 6 nnn NULL cutoff 1.3 # compute the Q6 parameter.
                                                                             # Use all neighbours within 1.3 unit cell.

# get number of connections
compute coord_number all coord/atom orientorder q6 0.5

# An atom is solid if it has 8 or more connections (of a possible 14)
variable is_solid atom c_coord_number>=8
group solid dynamic all var is_solid    # Must be dynamic to update
dynamic group solid defined

# do clustering
compute cluster solid cluster/atom 1.3 # Create a cluster where all atoms within are solid and max 1.3 units from another member

# define chunks one chunk per cluster
compute clus_chunks solid chunk/atom c_cluster nchunk every compress yes  # Says which atoms are in which chunk

# count the size of each chunk
compute size_chunks solid property/chunk clus_chunks count


# Find the maximum entry in the vector of chunk sizes
variable max_n equal max(c_size_chunks)


# Thermo style which includes this variable
thermo_style custom step temp pe vol v_max_n

thermo ${N}  # Print the thermo information every 100 steps
thermo 100  

# Reset the npt fix at a lower temperature (below freezing)
fix 1  all npt temp  ${temp} ${temp}  0.1  iso  5.68  5.68  0.5  mtk yes tchain  5  pchain  5
fix 1  all npt temp  1.31 ${temp}  0.1  iso  5.68  5.68  0.5  mtk yes tchain  5  pchain  5
fix 1  all npt temp  1.31 1.31  0.1  iso  5.68  5.68  0.5  mtk yes tchain  5  pchain  5

dump dmp2 all dcd ${N} traj_${rand}.dcd
dump dmp2 all dcd 100 traj_${rand}.dcd
dump dmp2 all dcd 100 traj_462431.dcd


# fix rnuntil all halt ${N} v_max_n >= 3980 error soft message no   # Stop when solidified


run 100000 # 5000000  # Run for this many steps
Neighbor list info ...
  update every 1 steps, delay 10 steps, check yes
  max neighbors/atom: 2000, page size: 100000
  master list distance cutoff = 3.8
  ghost atom cutoff = 3.8
  binsize = 1.9, bins = 9 9 9
  4 neighbor lists, perpetual/occasional/extra = 1 3 0
  (1) pair lj/cut, perpetual
      attributes: half, newton on
      pair build: half/bin/atomonly/newton
      stencil: half/bin/3d
      bin: standard
  (2) compute orientorder/atom, occasional
      attributes: full, newton on
      pair build: full/bin/atomonly
      stencil: full/bin/3d
      bin: standard
  (3) compute coord/atom, occasional
      attributes: full, newton on
      pair build: full/bin/atomonly
      stencil: full/bin/3d
      bin: standard
  (4) compute cluster/atom, occasional
      attributes: full, newton on
      pair build: full/bin/atomonly
      stencil: full/bin/3d
      bin: standard
Per MPI rank memory allocation (min/avg/max) = 9.473 | 9.477 | 9.481 Mbytes
Step Temp PotEng Volume v_max_n 
    4000    1.3290213   -5.7057745    4377.5792            5 
    4100    1.3066549   -5.7383439    4393.0588            4 
    4200    1.3395815   -5.7429987    4420.1109            2 
    4300    1.2996075   -5.7445251    4409.2174            3 
    4400    1.3134731   -5.7525559    4393.3809            4 
    4500    1.2859953   -5.7485025    4380.6046            2 
    4600    1.3091948   -5.7224875     4384.189            2 
    4700    1.3037912   -5.7386346    4379.1955            1 
    4800    1.3049466   -5.7547527    4377.9043            2 
    4900    1.3388897   -5.7761524    4385.1244            2 
    5000    1.2798152   -5.7563207    4382.0284            2 
    5100     1.316103    -5.777752    4402.3129            3 
    5200    1.3519294   -5.7716863    4403.3181            4 
    5300    1.3048718   -5.7585477    4403.8322            4 
    5400    1.3130407   -5.7176366    4404.4768            2 
    5500    1.2917173   -5.7166981    4403.3583            3 
    5600    1.3148559   -5.7823904    4378.3233            4 
    5700    1.3162304   -5.7426283    4359.0801            3 
    5800    1.3196272   -5.6999349    4385.6901            2 
    5900    1.3197997   -5.7381315    4393.6099            2 
    6000    1.3263123   -5.7828795    4389.4148            1 
    6100    1.2900884   -5.7258297    4399.1797            5 
    6200      1.32189   -5.7462766    4397.0722            3 
    6300    1.3271069   -5.7550267    4378.7447            1 
    6400    1.2868029   -5.7655412    4381.5926            2 
    6500    1.2929839   -5.7545369    4393.7138            2 
    6600    1.3065766   -5.7220454    4396.8443            2 
    6700    1.3248215   -5.7263724    4395.1905            2 
    6800    1.3060598   -5.7335059    4384.7935            2 
    6900    1.3025976   -5.7720178    4381.2151            2 
    7000    1.2947316   -5.7643096    4397.2858            1 
    7100    1.3089002   -5.7591469    4387.1338            5 
    7200    1.3042787   -5.7345665    4378.6929            2 
    7300    1.3239683    -5.717592    4404.2063            4 
    7400     1.318222   -5.7190121    4400.4931            3 
    7500    1.3055897   -5.7176395    4378.9316            2 
    7600    1.3125289   -5.7848139    4382.6155            5 
    7700    1.3128736   -5.7559277    4398.3217            8 
    7800    1.3242884   -5.7807199    4395.7873            2 
    7900    1.2957698   -5.7617976    4387.6651            1 
    8000    1.3344165   -5.7783836    4383.2713            2 
    8100    1.2874376   -5.7575226    4381.1006            2 
    8200    1.3248892   -5.7673556    4378.8634            4 
    8300    1.3007531   -5.7295348    4376.4908            3 
    8400    1.3122128   -5.7335271    4397.6493            4 
    8500    1.2911393   -5.7603481    4389.6322            4 
    8600    1.2930653   -5.7192789    4375.2973            3 
    8700    1.3373171   -5.7552136    4385.3335            2 
    8800    1.3081839   -5.7248879    4408.9393            1 
    8900    1.2947125   -5.7346247    4408.7697            2 
    9000    1.3244547   -5.7430876    4396.0479            2 
    9100    1.3252934   -5.7775037     4369.035            3 
    9200    1.3289691   -5.7502667    4379.5233            3 
    9300    1.2988617   -5.7585402    4397.3031            5 
    9400    1.2787591   -5.7807201    4391.3242            4 
    9500    1.3100925   -5.7542616    4390.8568            3 
    9600    1.3383243   -5.7448922    4385.5454            3 
    9700    1.3283082   -5.7016997     4407.034            2 
    9800    1.3160034   -5.7513717    4388.3124            3 
    9900      1.31207   -5.7203794    4394.1576            2 
   10000    1.3408336   -5.7270457    4395.2078            4 
   10100    1.2841052   -5.6931104     4395.365            3 
   10200    1.3258564   -5.7378139    4398.1706            3 
   10300     1.310731   -5.7654116    4373.6167            2 
   10400    1.2986382   -5.7771108    4394.7006            4 
   10500    1.3230075   -5.7814113    4391.1216            2 
   10600    1.2986181   -5.7664193    4378.2448            1 
   10700    1.3166952    -5.751682    4350.1146            2 
   10800    1.3337964   -5.7182009    4379.4605            4 
   10900    1.2729796   -5.6937877    4388.7023            2 
   11000    1.3121469   -5.7671086    4374.5864            2 
   11100    1.2925026   -5.7489126    4385.1295            5 
   11200    1.3119001   -5.7296003    4393.8864            6 
   11300     1.297083   -5.7511567    4397.8234            2 
   11400     1.331648   -5.7289367    4388.4781            7 
   11500    1.3199635   -5.7575883    4370.9168            4 
   11600    1.3274831   -5.7511764    4378.0638            3 
   11700    1.3137194   -5.7495214     4400.015            4 
   11800    1.3033972    -5.785767    4385.0382            3 
   11900    1.3056233   -5.7204403    4400.2901            2 
   12000     1.322295   -5.7336181    4386.2026            4 
   12100    1.3088124   -5.7248194    4375.7777            2 
   12200    1.3523904    -5.750932    4391.8526            2 
   12300    1.2961288   -5.7536693    4389.4705            4 
   12400    1.3092992   -5.7339057    4382.3086            2 
   12500    1.3177507   -5.7857361    4368.7335            2 
   12600    1.3061269     -5.78192    4376.1707            3 
   12700    1.3048284   -5.7470787    4384.3668            4 
   12800    1.3276944   -5.7500497    4388.5429            2 
   12900    1.2960574   -5.7157027    4420.0707            3 
   13000    1.3093906   -5.7814852    4376.2981            4 
   13100    1.3303502   -5.7837331    4375.3559            2 
   13200    1.3233949   -5.7389203    4378.0918            1 
   13300    1.3066667   -5.7449722    4388.5709            4 
   13400    1.3020588   -5.7125055    4427.8605            3 
   13500    1.2925965   -5.7519629    4408.6342            3 
   13600    1.3105651   -5.7592259    4395.5157            3 
   13700    1.3290954   -5.7411458    4385.4091            5 
   13800    1.3115471   -5.7317011    4383.3035            2 
   13900    1.2868584   -5.7333037    4391.3653            2 
   14000    1.3151278   -5.7269478    4394.5771            2 
   14100    1.3159039   -5.7554031    4397.9552            4 
   14200    1.3097717   -5.7694346    4378.4722            5 
   14300    1.3125198   -5.7379498     4377.625            2 
   14400    1.3288242   -5.7247484    4387.6393            5 
   14500     1.300987   -5.7570085    4380.7515            4 
   14600    1.2991598   -5.7374494    4402.7091            6 
   14700    1.3260213   -5.7453713    4413.9232            3 
   14800    1.3271437   -5.7385686    4404.7897            4 
   14900    1.2918574   -5.7507909    4383.7221            6 
   15000     1.324218   -5.7725145    4387.8378            2 
   15100    1.3451203   -5.7545229    4401.1336            4 
   15200    1.2911164   -5.7544408    4393.2397            2 
   15300    1.2796307   -5.7264917    4392.1478            2 
   15400    1.3333426   -5.7330741    4392.3761            4 
   15500     1.295763    -5.716894    4377.6739            4 
   15600    1.3563245   -5.7279589    4380.9297            2 
   15700    1.3177182   -5.7270556     4402.203            1 
   15800    1.2861319   -5.7535318     4399.405            3 
   15900    1.2977869   -5.7533678    4393.5047            2 
   16000    1.3420871   -5.7620488    4404.8647            2 
   16100    1.2870006   -5.7518774    4411.7396            1 
   16200    1.3009016   -5.7135289    4407.7041            3 
   16300    1.3642592   -5.7297103    4401.8186            4 
   16400    1.2895965   -5.6978483    4396.8632            2 
   16500    1.3293428   -5.7183812    4417.2238            3 
   16600     1.324044   -5.7450023    4404.5696            3 
   16700    1.3291144   -5.7777722    4390.5033            3 
   16800    1.3069634   -5.8087962    4385.2848            5 
   16900    1.3069318    -5.755911    4383.6182            2 
   17000    1.3078588    -5.699016    4409.3303            3 
   17100    1.3070514   -5.6902138    4414.4946            3 
   17200    1.3015041   -5.7320057    4401.1806            2 
   17300    1.3136248   -5.7377326    4377.0914            3 
   17400    1.3341243   -5.7108907    4373.1275            3 
   17500    1.3168456   -5.7524099    4387.4702            2 
   17600    1.2784679   -5.7598678     4394.344            4 
   17700    1.3147127   -5.7742107    4401.0852            3 
   17800    1.3335899   -5.7699426    4377.9139            8 
   17900    1.2806229   -5.7318317    4385.7564            2 
   18000    1.3130757   -5.7510327    4399.2963            4 
   18100    1.2810745   -5.7548412     4389.901            4 
   18200    1.3229288   -5.7660875    4367.0227            1 
   18300    1.3095899   -5.7455189    4389.9267            2 
   18400    1.3075747   -5.7577488    4388.7141            3 
   18500    1.2995372   -5.7773805    4385.3535            2 
   18600    1.3149516   -5.7289061    4396.8376            3 
   18700    1.3230979   -5.7572338    4385.2186            3 
   18800     1.313338   -5.7387396    4362.1118            4 
   18900    1.3296426   -5.7199917    4395.6749            1 
   19000      1.29307   -5.7511393    4403.0545            3 
   19100    1.3192908   -5.7485012    4380.8439            2 
   19200    1.3040953   -5.7707972    4368.7987            2 
   19300    1.3171931   -5.7748222    4395.4075            4 
   19400    1.3004996   -5.7119324    4400.9494            3 
   19500    1.3232754   -5.7735468    4394.7528            3 
   19600    1.2951953   -5.7656819     4387.595            2 
   19700    1.3074963   -5.7257075     4395.888            3 
   19800    1.3316827   -5.7271952    4408.4671            4 
   19900    1.2685948    -5.690155    4398.4735            2 
   20000    1.2970915   -5.7104197    4387.1549            2 
   20100    1.3310201   -5.7397474    4380.5834            2 
   20200    1.3136983   -5.7639148     4382.832            3 
   20300    1.2781567   -5.7744238    4403.1054            2 
   20400     1.316553    -5.750077    4391.8074            4 
   20500    1.3274391   -5.7063759    4379.7724            5 
   20600    1.3359307   -5.7089927    4404.5116            3 
   20700    1.3078425   -5.7364487    4395.7459            2 
   20800    1.3149522   -5.7663909     4397.781            2 
   20900    1.2884674   -5.7685107    4383.6803            2 
   21000    1.3283914   -5.7549424    4383.6236            3 
   21100    1.3064176   -5.7366964     4383.119            3 
   21200    1.3166046   -5.7691875    4381.9915            2 
   21300    1.3199492   -5.7537269    4376.4259            2 
   21400    1.3248979   -5.7176662    4385.6331            3 
   21500     1.332674   -5.7634934     4411.714            1 
   21600    1.2673934   -5.7418369    4401.1061            2 
   21700    1.3157289   -5.7411375    4400.1441            3 
   21800    1.3052938   -5.7416062    4385.0432            1 
   21900    1.3092617   -5.7812058     4374.738            4 
   22000    1.3241844   -5.7402932    4394.6509            4 
   22100    1.3096231   -5.7167222    4399.4125            2 
   22200    1.3503227   -5.7383055    4381.0897            5 
   22300    1.2895483   -5.7224329    4392.3243            5 
   22400    1.3022274   -5.7369078    4395.3569            2 
   22500    1.2956785    -5.776716    4384.9129            2 
   22600    1.3082036   -5.7925831    4397.9155            3 
   22700    1.3322362    -5.733912    4385.6261            3 
   22800     1.311754   -5.7499505    4379.5868            3 
   22900    1.2943682   -5.7165118    4395.4342            2 
   23000    1.3110154   -5.7257011    4415.0487            2 
   23100     1.277082   -5.7363302    4390.2043            2 
   23200    1.3121298   -5.7158551    4364.9319            2 
   23300    1.3229837   -5.7134452    4374.6103            1 
   23400    1.3462813   -5.7308272    4409.0684            3 
   23500    1.3076106   -5.7471851    4396.8706            2 
   23600    1.2973267   -5.7317414    4390.1863            4 
   23700     1.327168   -5.7234965    4378.3431            2 
   23800    1.3137425   -5.7306347    4392.9538            8 
   23900    1.2819062   -5.6994457    4399.4781            3 
   24000    1.2992678   -5.7311722    4375.4592            3 
   24100    1.3011449   -5.7358057    4362.1774            7 
   24200     1.305235   -5.7395001     4365.825            2 
   24300    1.3243128   -5.7558814    4395.0744            3 
   24400    1.2978173   -5.7260493    4411.5021            1 
   24500    1.3264611   -5.7106899    4399.3278            2 
   24600    1.3017519   -5.7224049    4402.5429            6 
   24700     1.276287   -5.7267114    4396.8393            7 
   24800    1.3141352   -5.7362555    4384.7236            2 
   24900    1.3292525   -5.7101211    4399.3638            2 
   25000     1.299628   -5.6898959    4391.3035            4 
   25100    1.3255644    -5.782999    4389.2626            2 
   25200    1.3124474    -5.808858    4391.5707            2 
   25300    1.3303605   -5.7800896    4366.4821            2 
   25400    1.2730802   -5.7478272    4384.5517            3 
   25500    1.3170217   -5.7658369    4382.2285            3 
   25600    1.3263591   -5.7379492    4379.8476            2 
   25700    1.3184182   -5.7192355    4371.3745            2 
   25800     1.309217   -5.7512442     4383.036            2 
   25900    1.2793415   -5.7629732    4406.3071            3 
   26000     1.324972   -5.7608251    4403.1478            2 
   26100    1.3166157   -5.7821577    4371.9056            1 
   26200    1.2909296   -5.7627475    4375.7169            3 
   26300    1.2977222   -5.7261639    4385.6748            3 
   26400    1.3155308   -5.7180663    4369.8553            2 
   26500     1.298625   -5.7462928    4378.7993            2 
   26600    1.2967839   -5.7132372     4402.131            4 
   26700    1.3169606    -5.688902    4405.4623            3 
   26800    1.3113364   -5.7385457    4387.4319            3 
   26900    1.3131737   -5.7736933    4386.0092            3 
   27000     1.312929   -5.7960067    4381.9485            2 
   27100     1.319588   -5.7598463    4393.0565            5 
   27200    1.3203319   -5.7119188    4393.1893            3 
   27300    1.3047382    -5.741749    4401.6666            2 
   27400    1.2771751   -5.7625281    4389.1177            4 
   27500    1.3245193   -5.7631895    4396.0124            2 
   27600    1.3128196   -5.7331043    4381.0301            1 
   27700    1.3096693   -5.7483089    4378.1171            3 
   27800    1.3203517   -5.7374641    4383.6195            4 
   27900    1.2795277   -5.7458508    4397.1848            2 
   28000    1.3116125   -5.7820503    4391.6446            2 
   28100    1.3133207    -5.720487    4378.5903            4 
   28200    1.3166247   -5.7437143    4375.8987            4 
   28300    1.3022099   -5.7134379    4382.4122            4 
   28400    1.3105657   -5.7295414    4397.9043            5 
   28500    1.3038614   -5.7934835    4385.5819            4 
   28600    1.3023567   -5.7380207    4382.0431            2 
   28700     1.326772   -5.7054106    4393.0532            1 
   28800     1.327299   -5.7314801    4374.2146            2 
   28900    1.3092042   -5.7550916    4397.9156            3 
   29000    1.2882692   -5.7673798    4407.3932            3 
   29100    1.3357897   -5.7500983     4402.578            2 
   29200    1.3135187   -5.7485015    4400.1104            3 
   29300    1.3068203   -5.7420241    4399.4234            2 
   29400    1.3527096   -5.7531874    4394.0798            5 
   29500    1.3141095   -5.7695234      4389.01            2 
   29600       1.3026   -5.7765412     4391.029            5 
   29700    1.3153088   -5.7812583    4387.0201            4 
   29800    1.3414151   -5.7494064    4379.9227            6 
   29900    1.3037227   -5.7273985    4388.1842            2 
   30000    1.2950936   -5.7425091    4399.7821            2 
   30100    1.3018119   -5.7694666     4401.433            3 
   30200    1.3096182   -5.7697638    4386.2884            2 
   30300    1.3122432   -5.7716887    4357.7569            2 
   30400    1.2890999   -5.7809987    4344.4651            3 
   30500    1.3219031   -5.7747037    4369.5054            2 
   30600    1.2937091   -5.7756469     4386.678            6 
   30700    1.3126337   -5.7508273    4407.8059            4 
   30800    1.3180394   -5.7165348    4403.7136            2 
   30900    1.3126377   -5.7301565      4384.93            3 
   31000    1.3125379   -5.7513786    4379.5725            4 
   31100    1.3215432   -5.7333806    4392.7905            2 
   31200     1.297006    -5.766168    4400.8978            7 
   31300    1.3198705   -5.7490519     4396.252            3 
   31400    1.3153926   -5.7919794    4383.0792            4 
   31500    1.2887836   -5.7885109    4381.4661            3 
   31600     1.312713   -5.7641478    4395.9294            5 
   31700    1.3158775   -5.7357412    4398.3343            3 
   31800    1.3300485   -5.7233527    4406.2077            4 
   31900    1.2993109   -5.7327316    4383.7198            4 
   32000    1.3274012   -5.7334784    4384.0953            3 
   32100    1.2898318   -5.7103673     4403.876            2 
   32200     1.305382   -5.6644157    4418.0373            3 
   32300    1.3286316    -5.747332    4404.7663            1 
   32400    1.2872629   -5.7310125     4395.553            4 
   32500    1.3378818   -5.7799146    4393.5188            5 
   32600    1.2932237   -5.7696657    4387.3486            3 
   32700     1.336108   -5.7618406    4375.7535            3 
   32800    1.3264579   -5.7217419    4382.9769            2 
   32900    1.2912592    -5.703555    4379.7699            2 
   33000     1.319805   -5.7604386     4401.367            3 
   33100    1.2993789   -5.7238185    4419.0498            4 
   33200    1.2961584   -5.7721162    4399.8063            6 
   33300    1.3135845   -5.7312412    4392.1448            7 
   33400    1.3493963    -5.718544    4397.3545            4 
   33500    1.3122198   -5.7430479    4392.0128            3 
   33600    1.2937131   -5.7666044    4393.6335            4 
   33700    1.3062306   -5.7332339    4396.3654            7 
   33800    1.3088636   -5.7469681    4393.0699            7 
   33900    1.2929357       -5.772    4374.6237            5 
   34000    1.3075115    -5.745806    4393.7566            3 
   34100    1.2984181   -5.7414289    4396.4207            2 
   34200    1.3217833   -5.7045629    4404.7445            4 
   34300      1.31889   -5.7463089    4392.5903            2 
   34400    1.3213876   -5.7580589    4383.0154            3 
   34500    1.3134311   -5.7279494     4398.336            6 
   34600    1.2912112   -5.7107936    4409.1609            5 
   34700    1.2885258   -5.7339282    4385.0796            2 
   34800     1.279934   -5.7413317    4369.7261            2 
   34900    1.3146019   -5.7292925    4385.7819            3 
   35000    1.3186444   -5.6951643    4375.8103            2 
   35100    1.3085919   -5.7623356    4376.9438            2 
   35200    1.3260579   -5.7593462    4393.6124            5 
   35300    1.3175185   -5.6895178    4432.4823            3 
   35400    1.3381276   -5.7086854    4400.7737            7 
   35500    1.3094419   -5.7070093    4375.5394            2 
   35600     1.312681   -5.7616435    4377.7704            3 
   35700      1.30654   -5.7515446    4388.4948            1 
   35800    1.3034687   -5.7302126    4416.6716            1 
   35900    1.3066832   -5.7138994     4427.299            3 
   36000     1.332341   -5.7284275    4402.6629            4 
   36100    1.3170296   -5.7359187    4388.0892            3 
   36200    1.2889424   -5.7643773    4380.4964            4 
   36300    1.3035128   -5.7693298    4386.6687            2 
   36400    1.3105431   -5.7405198    4395.0595            3 
   36500    1.3485109   -5.7331651    4392.5846            3 
   36600    1.3263899   -5.7451386    4370.1817            2 
   36700    1.2983712   -5.7319332    4394.3834            3 
   36800    1.2961894   -5.7634993    4396.9258            2 
   36900    1.2987586   -5.7651009    4379.1558            5 
   37000    1.2851957   -5.8169125    4357.4029            4 
   37100    1.2720787   -5.7586423    4374.5516            4 
   37200    1.3217776    -5.735527    4374.0378            2 
   37300    1.2981272   -5.7260615    4385.5584            6 
   37400    1.3051383   -5.7329688    4396.9415            3 
   37500    1.2753173   -5.6967357    4402.9985            1 
   37600    1.3217811   -5.7079414    4396.6855            1 
   37700    1.3310612   -5.7449735     4372.849            4 
   37800    1.2818804   -5.7338457    4360.2584            1 
   37900    1.3234104   -5.7765926    4367.3535            3 
   38000    1.2939207   -5.7388466    4406.5226            3 
   38100    1.3084929   -5.7319419    4407.0091            2 
   38200    1.3184828   -5.7471306    4373.3894            3 
   38300    1.3027285   -5.7515181    4376.7503            4 
   38400    1.3178207   -5.7512972    4377.5994            2 
   38500    1.2938232   -5.7637369    4370.4738            3 
   38600     1.307744   -5.7438759    4384.1782            1 
   38700    1.3272295   -5.7651867     4392.126            2 
   38800    1.2721911   -5.7444901    4402.0575            2 
   38900    1.3070823   -5.7194758    4388.9119            2 
   39000    1.3451377   -5.7118473    4393.3676            2 
   39100    1.2860048   -5.6904437    4403.5859            1 
   39200    1.3127613   -5.7410695    4396.7961            4 
   39300    1.2996975   -5.7583129     4371.773            2 
   39400    1.3297879   -5.7350755    4383.1925            3 
   39500    1.3261972   -5.7204878    4397.7835            4 
   39600    1.2826216   -5.7378281    4422.5881            4 
   39700    1.2861876   -5.7551677    4406.5744            3 
   39800    1.3170873   -5.7387289    4390.8148            3 
   39900    1.3538587   -5.7282356    4399.2856            3 
   40000    1.3221814   -5.7236359    4370.0384            4 
   40100    1.3079672   -5.7339817    4385.6203            4 
   40200    1.3029207   -5.7231598    4393.6465            3 
   40300    1.3052003   -5.7509414    4395.9211            2 
   40400     1.291609   -5.7387622    4393.1292            3 
   40500    1.3313584   -5.7547318    4412.4368            3 
   40600    1.2934408   -5.7377788     4392.588            2 
   40700    1.3059527   -5.7466575    4390.4395            2 
   40800    1.3164389   -5.7326689    4386.6249            2 
   40900    1.3004679   -5.7239488    4378.7684            2 
   41000    1.2935191    -5.719935    4371.2309            2 
   41100    1.3108045   -5.7093603    4402.7102            4 
   41200    1.3492511   -5.7130325    4401.5157            2 
   41300    1.3157834     -5.73101    4386.3409            2 
   41400    1.2907894   -5.7149287    4397.2602            2 
   41500    1.3079311   -5.6888455    4401.8072            4 
   41600    1.3088152   -5.7421096    4397.5843            3 
   41700     1.316279   -5.7358161    4382.6306            4 
   41800    1.2958902   -5.7553376    4369.0588            2 
   41900    1.3235044   -5.7514636    4403.1428            4 
   42000    1.2826628   -5.7357133      4396.31            3 
   42100     1.304318   -5.7430804    4390.6416            2 
   42200     1.326642   -5.7547267    4395.5598            3 
   42300    1.3380593   -5.7084642    4396.5543            1 
   42400    1.3182259   -5.7250107    4400.2082            3 
   42500    1.2862883   -5.7377065    4400.1895            3 
   42600    1.3147875   -5.7400009    4400.0378            4 
   42700     1.332043   -5.7397754    4396.7758            2 
   42800      1.30101   -5.7422158    4391.9802            3 
   42900    1.2982276   -5.7265794    4404.6734            2 
   43000    1.3194586   -5.7021792    4397.8639            3 
   43100    1.3101545   -5.7149035    4389.8049            3 
   43200    1.2865543   -5.7376273    4383.8611            1 
   43300    1.3029157   -5.7769983    4397.6444            3 
   43400    1.3069054   -5.7386504    4398.5132            2 
   43500    1.3214642   -5.7430775     4373.826            2 
   43600    1.3099769   -5.7449042    4359.6111            3 
   43700    1.3121824   -5.7030137    4401.7785            4 
   43800    1.3161751   -5.7542575    4391.0643            6 
   43900    1.3085578   -5.7780491    4378.7882            4 
   44000    1.2576929    -5.769572    4368.5765            3 
   44100    1.3150071   -5.7786689    4379.2107            3 
   44200    1.3085881   -5.7313516    4395.8884            1 
   44300    1.2994395   -5.7206321    4393.7862            3 
   44400    1.3011263   -5.7473188    4379.6988            5 
   44500    1.3144129   -5.7183276    4388.9305            3 
   44600    1.3389855   -5.7385475    4378.4332            3 
   44700    1.3037822   -5.7377377    4372.8715            3 
   44800    1.3060047   -5.7344967    4395.4983            2 
   44900    1.2746913    -5.743993    4405.3685            4 
   45000    1.3053479   -5.7470729    4384.7616            3 
   45100    1.3379231   -5.7512377    4381.9757            4 
   45200    1.3021187   -5.7535708    4381.9991            2 
   45300    1.2942581   -5.7178119    4400.8484            2 
   45400    1.3132741   -5.7113712    4399.5552            3 
   45500    1.3457668   -5.7011813    4396.0335            3 
   45600    1.2989095   -5.7237598    4405.7957            2 
   45700    1.2940177   -5.7511893    4398.0258            2 
   45800    1.3056853   -5.7413058    4390.2536            3 
   45900    1.3287265   -5.7274332    4407.5528            4 
   46000    1.3191236   -5.7553645    4386.0294            3 
   46100    1.2916674   -5.6997189    4383.9481            3 
   46200     1.316116   -5.6792011    4401.4942            1 
   46300    1.3116779   -5.7018954    4415.8871            2 
   46400    1.3119557   -5.7440278    4385.1201            5 
   46500    1.3102986   -5.7432251    4371.7424            3 
   46600    1.3096236    -5.768043    4380.5432            3 
   46700    1.3161833   -5.7390694    4398.0275            2 
   46800    1.2958299   -5.6943257    4408.7307            2 
   46900    1.3211094   -5.6980979     4390.614            1 
   47000    1.3028023   -5.7000749    4388.5902            3 
   47100    1.3056586   -5.6943982    4386.5907            2 
   47200    1.3242637   -5.7566964     4385.633            2 
   47300    1.3085147   -5.7469796    4389.7023            2 
   47400    1.3179539   -5.7096242    4408.5599            3 
   47500    1.3026077   -5.7634247    4406.8288            2 
   47600    1.2652452   -5.7360504    4385.8568            1 
   47700    1.3342214   -5.7707608    4373.3699            2 
   47800    1.3066323    -5.735596    4374.8323            3 
   47900    1.2912148   -5.7488149    4383.5676            3 
   48000    1.3337942   -5.7582792    4398.1102            6 
   48100    1.2956247   -5.7275324    4401.9301            2 
   48200    1.3062455   -5.7684593    4378.0695            2 
   48300    1.3243999   -5.7134136    4387.1654            4 
   48400    1.3312932   -5.7388976    4394.5472            3 
   48500    1.2955333   -5.7537971    4380.6808            2 
   48600    1.3253016   -5.7557792    4387.7718            2 
   48700    1.3304792   -5.7171965    4426.0348            2 
   48800    1.3010523   -5.7204544     4392.421            4 
   48900     1.298876   -5.7362789    4386.4038            3 
   49000    1.3185934   -5.7028789    4393.8329            1 
   49100     1.352815   -5.7210644     4404.474            1 
   49200    1.3056929   -5.7334556    4394.6012            3 
   49300    1.2930828   -5.7453672    4386.1168            2 
   49400    1.3032971   -5.7010221    4385.1083            4 
   49500    1.3257268   -5.7088788    4379.1417            2 
   49600    1.3088923   -5.7386154    4374.5612            4 
   49700    1.2954962   -5.7497403    4395.5279            3 
   49800    1.3226206   -5.7339829    4418.7772            2 
   49900    1.3129198   -5.7141405    4405.2839            4 
   50000    1.2949462   -5.7188682    4394.2356            1 
   50100    1.3055249   -5.7350693    4391.6738            4 
   50200    1.3365692   -5.7310346    4390.2858            2 
   50300    1.3064342   -5.7556032    4396.8292            5 
   50400    1.3038086   -5.7683756     4389.754            2 
   50500    1.2837433   -5.7867743     4375.659            3 
   50600    1.3237311   -5.7753956    4377.7415            3 
   50700    1.3122974    -5.717654    4377.1957            2 
   50800    1.2822217    -5.731344    4382.5062            3 
   50900    1.3110739   -5.7417729    4388.9934            5 
   51000     1.319906   -5.7174394    4391.3559            2 
   51100    1.3087973   -5.7417083    4390.1132            4 
   51200    1.3158993    -5.732664     4406.448            2 
   51300     1.313213    -5.722975    4411.1581            2 
   51400    1.3261899   -5.7479357    4391.7658            3 
   51500    1.2986478   -5.7235975    4383.4989            1 
   51600    1.3051515   -5.7047204    4386.9766            3 
   51700    1.3381588   -5.7239207    4403.4133            3 
   51800    1.3053459   -5.7496264      4390.05            1 
   51900    1.3042716   -5.7537065    4400.2057            4 
   52000    1.3134035   -5.7152582    4419.7812            3 
   52100    1.3198476   -5.7517974    4390.9916            2 
   52200    1.3110932   -5.7621884      4390.93            5 
   52300    1.3209597   -5.7687386     4381.365            3 
   52400    1.2961635   -5.7300925    4368.5542            2 
   52500    1.3125319   -5.7318734    4375.8571            2 
   52600    1.2896679   -5.7189125    4393.5742            3 
   52700     1.300258   -5.7521353    4408.2632            1 
   52800    1.3207436   -5.7360377    4385.5195            1 
   52900    1.3020078   -5.7483865    4372.8406            2 
   53000    1.3001677    -5.748524    4375.9463            2 
   53100    1.3309071   -5.7521465    4393.7003            2 
   53200    1.2938542   -5.7746888    4408.5566            3 
   53300    1.3232954   -5.7737909    4395.7259            2 
   53400    1.3542258   -5.7710569    4389.1162            4 
   53500    1.3069038   -5.7594654    4405.3921            2 
   53600    1.3006292   -5.7819262    4400.1217            4 
   53700    1.3066689   -5.7766348    4388.3918            2 
   53800    1.3265653   -5.7525096    4395.4154            2 
   53900    1.3058629   -5.7163174    4407.8997            3 
   54000    1.3073072   -5.7395952    4392.1986            3 
   54100    1.2997928   -5.7232156    4385.7625            3 
   54200    1.3339355    -5.751085    4378.5267            1 
   54300    1.3144674   -5.7575327    4365.5898            2 
   54400    1.3206965   -5.7273562    4396.8663            4 
   54500    1.3019177   -5.7497072    4403.3677            2 
   54600    1.2836486   -5.7584095     4397.533            3 
   54700    1.3328322    -5.743938    4383.7414            2 
   54800    1.2999785   -5.7324527    4378.0316            2 
   54900    1.3095413   -5.7361866    4389.3664            4 
   55000    1.2970295   -5.7235378     4396.924            2 
   55100     1.325343    -5.745876    4383.4248            4 
   55200    1.2893119   -5.7423394    4388.8638            2 
   55300    1.2975745   -5.7568172    4374.5472            3 
   55400    1.3286709   -5.7269859     4397.461            2 
   55500    1.2999722   -5.7352273    4389.0873            3 
   55600    1.3123758   -5.7425154    4377.1686            3 
   55700    1.2910451   -5.7583357    4394.0697            1 
   55800    1.3113006    -5.747937     4400.148            3 
   55900    1.2988613   -5.7423628    4395.5499            3 
   56000    1.3491394   -5.7499308    4399.7688            6 
   56100    1.3187922   -5.7436053    4381.9579            2 
   56200    1.3069949     -5.74849    4374.8584            2 
   56300    1.3256483   -5.7299753    4402.3256            2 
   56400    1.2845836   -5.7168254    4400.9609            2 
   56500    1.3102021   -5.7403341    4388.2364            9 
   56600    1.2916795   -5.7481747    4356.8999            3 
   56700      1.30462   -5.7622793    4374.1163            1 
   56800    1.2814444   -5.7310003    4397.5963            2 
   56900     1.314979   -5.7618782     4386.374            2 
   57000    1.3021908   -5.7605876    4378.6775            4 
   57100    1.3289858   -5.7171505    4384.0081            3 
   57200    1.3059856    -5.713703    4388.0496            2 
   57300    1.3148727   -5.8051996    4374.4143            1 
   57400    1.3087962   -5.7750732    4387.7257            1 
   57500     1.323871   -5.7577009    4384.4231            3 
   57600    1.3011498   -5.7681675    4382.9118            2 
   57700    1.3041717   -5.7135096    4406.0652            1 
   57800    1.3404462   -5.7568958    4390.2371            3 
   57900    1.2901053   -5.7271114    4381.5121            2 
   58000    1.3499409   -5.7339235    4396.5721            3 
   58100     1.300124    -5.718967    4409.1357            3 
   58200    1.3172629   -5.7352736    4401.3397            2 
   58300    1.2991285   -5.7515686    4383.5196            2 
   58400    1.3453396   -5.7493503    4395.9931            5 
   58500    1.3143634   -5.7655293    4384.9214            8 
   58600     1.306605   -5.7550961    4383.8355            2 
   58700    1.3206103   -5.7493563    4386.7363            3 
   58800    1.3014082   -5.7538195    4357.3412            4 
   58900    1.3309761   -5.7359282    4379.0599            3 
   59000    1.3188387   -5.7636126    4395.1754            2 
   59100     1.291834   -5.7801842    4374.7297            3 
   59200     1.312321   -5.7916082    4366.4134            2 
   59300    1.2804348   -5.7464427    4371.3692            4 
   59400     1.315101   -5.7311061    4392.4129            2 
   59500    1.2945822   -5.7303914    4393.6481            2 
   59600    1.2889171   -5.7858443    4377.6018            5 
   59700    1.3160598   -5.7763499    4396.4169            2 
   59800     1.313886   -5.7603958     4389.359            9 
   59900    1.3473065   -5.7651183    4370.5228            3 
   60000    1.2960564   -5.7468255    4376.9725            3 
   60100    1.3014209   -5.7130399    4405.0406            3 
   60200    1.3306197   -5.7283873    4413.3177            4 
   60300    1.3186582   -5.7674111    4377.9271            2 
   60400      1.30396   -5.7669067    4382.9925            3 
   60500    1.3088974    -5.768812    4385.9429            2 
   60600    1.3054921   -5.8021041    4364.9375            2 
   60700    1.2823687    -5.739547    4371.9715            3 
   60800    1.3191421   -5.7364338    4390.1065            3 
   60900    1.3396868   -5.7542765    4407.9756            3 
   61000    1.2737894   -5.7428417    4412.9692            2 
   61100    1.3014374   -5.7560422    4403.3233            4 
   61200    1.3320805   -5.7201406    4397.6958            4 
   61300    1.3057528   -5.7277324    4386.5651            2 
   61400     1.311196   -5.7382675    4395.3471            5 
   61500    1.3022232   -5.6970286     4411.402            2 
   61600    1.2895712    -5.733218    4387.1965            2 
   61700    1.2991138    -5.737604     4401.619            2 
   61800     1.319038   -5.7162589    4403.7859            2 
   61900    1.3101565   -5.7573488    4384.6344            2 
   62000    1.3115689   -5.7666011     4375.541            7 
   62100    1.3295756   -5.7408286    4376.8031            4 
   62200    1.3052331   -5.7589218    4390.6199            3 
   62300     1.306085   -5.7072889    4400.3247            7 
   62400    1.3092852   -5.7278411    4399.2984            1 
   62500    1.3122861   -5.7205455    4387.9352            2 
   62600    1.2958656   -5.7596865    4372.9239            2 
   62700    1.2948421   -5.7424864    4372.5254            4 
   62800    1.3263301   -5.7335407    4402.3362            2 
   62900    1.3289653    -5.788154    4386.8599            3 
   63000    1.2835443   -5.7217639     4389.708            3 
   63100    1.2944007    -5.710921    4409.0876            3 
   63200    1.3362109   -5.7100557    4392.7614            4 
   63300    1.3214173    -5.735698    4370.6118            2 
   63400    1.3239959   -5.7282436    4388.1974            2 
   63500    1.2980062   -5.7408676     4393.351            3 
   63600    1.2927292   -5.7696995    4381.3307            5 
   63700    1.2848086   -5.7491292    4382.2441            2 
   63800    1.3134679   -5.7533302     4385.899            2 
   63900    1.3456086    -5.761747    4395.0363            3 
   64000    1.3157833   -5.7361935    4380.1591            2 
   64100    1.3219995    -5.705822    4426.5116            4 
   64200    1.3047125   -5.7158263    4401.5248            4 
   64300    1.3055044   -5.7523069    4380.7299            3 
   64400    1.2908892   -5.7441312    4378.6711            2 
   64500    1.3164613   -5.7313184    4397.4512            2 
   64600    1.3039711   -5.7285626    4391.7703            2 
   64700    1.3302125   -5.7518745    4386.4273            5 
   64800    1.2582468   -5.7238273    4386.0021            2 
   64900    1.3296367   -5.7638026    4389.0766            3 
   65000    1.2955906   -5.7415609    4377.3912            3 
   65100    1.2763704   -5.7669716    4376.2156            2 
   65200    1.3000951   -5.7413937    4386.0594            2 
   65300    1.3230345   -5.7281575    4400.9097            2 
   65400    1.2976567   -5.7504692    4393.1902            1 
   65500    1.3011748   -5.7593858     4391.323            4 
   65600    1.3471307   -5.7481428     4397.671            3 
   65700    1.3081721   -5.7395549    4385.9032            2 
   65800    1.3018562   -5.7254723    4384.6778            3 
   65900    1.3059605    -5.764395     4374.756            2 
   66000    1.2908081   -5.7477159    4363.0889            3 
   66100    1.3354395   -5.7487442    4385.9814            3 
   66200    1.3304882   -5.7591746    4389.5784            2 
   66300    1.2654013   -5.7504556    4395.6045            4 
   66400    1.3270646   -5.7639556    4379.5217            3 
   66500    1.2955761    -5.732991    4355.7205            2 
   66600    1.3275157   -5.7232769    4368.9999            2 
   66700    1.3040626   -5.7557124    4382.4939            2 
   66800    1.2976693   -5.7385178    4385.9993            1 
   66900    1.3372957   -5.7256821    4396.7819            2 
   67000    1.3100506   -5.7302911    4396.8242            2 
   67100    1.3145262   -5.7759344    4387.1506            2 
   67200    1.3051432   -5.7401269    4391.1096            2 
   67300    1.3069303   -5.7290771    4395.5303            2 
   67400    1.2929723   -5.7455569    4374.7615            1 
   67500    1.3289744   -5.7668656    4378.6104            2 
   67600     1.332764   -5.7681483    4383.6315            4 
   67700    1.2813188   -5.7367006    4408.7777            6 
   67800    1.3124624   -5.7692295    4407.7249            2 
   67900    1.2860535    -5.772773    4382.8956            3 
   68000    1.3158166    -5.761181    4369.6914            2 
   68100    1.3191619   -5.7484475    4365.0295            2 
   68200    1.3228235   -5.7424834    4390.7699            2 
   68300     1.298029   -5.7422772    4400.9942            1 
   68400    1.3180192   -5.7497822    4393.2372            2 
   68500    1.3000736   -5.7268533    4392.0439            2 
   68600    1.2964804   -5.7437559    4366.7558            4 
   68700    1.3205179   -5.7565507    4363.8023            7 
   68800    1.3173995   -5.7687288    4373.5395            2 
   68900    1.2756534   -5.7830035    4387.4434            4 
   69000    1.3072207   -5.7714389    4374.5459            5 
   69100    1.3168399   -5.7879566     4374.902            3 
   69200    1.3309435   -5.7761226     4394.045            4 
   69300    1.2942545   -5.7843275    4385.9274            4 
   69400    1.3283289   -5.7879814    4387.4128            1 
   69500    1.3058405   -5.7371775    4391.3717            5 
   69600    1.3000826   -5.7711106    4366.8743            4 
   69700    1.3109854   -5.7510887    4366.2344            3 
   69800    1.3291242   -5.7648514     4391.675            3 
   69900    1.2989143    -5.754228     4396.226            2 
   70000    1.2912914   -5.7829848    4379.6865            1 
   70100    1.3284833   -5.7667372    4373.6318            1 
   70200    1.3033992   -5.7621227    4376.1681            5 
   70300    1.3135446   -5.7801563    4377.4258            2 
   70400    1.3417906   -5.7625935    4386.7202            4 
   70500    1.3381411   -5.7139324    4417.2842            8 
   70600    1.3075197   -5.7189889    4427.0888            3 
   70700    1.3047603   -5.7668691    4410.7778            4 
   70800    1.3137793   -5.7115736    4399.3234            2 
   70900    1.3536046   -5.7286249    4397.6696            3 
   71000    1.2990703   -5.7256367    4395.1794            4 
   71100    1.2758441    -5.728866    4396.6111            2 
   71200    1.3468749   -5.7422202    4387.3847            5 
   71300    1.3436823   -5.7547858    4383.6425            2 
   71400    1.2906463   -5.7484976     4392.591            3 
   71500    1.2869219    -5.728008    4399.4885            3 
   71600    1.3380166   -5.7751896    4377.8039            2 
   71700    1.3135814   -5.7944275    4383.5411            2 
   71800    1.3137831   -5.7450403    4394.7934            3 
   71900    1.2985207   -5.7658729    4361.7975            3 
   72000    1.2851343      -5.7453    4385.0943            4 
   72100    1.3187675   -5.7503506    4382.9281            2 
   72200    1.3467584    -5.783557    4376.3038            4 
   72300    1.3069847   -5.7549286    4378.7135            4 
   72400     1.318712   -5.7795662    4407.5261            3 
   72500    1.3141399   -5.7322693    4396.9001            2 
   72600    1.3031248   -5.7562113    4389.4335            4 
   72700    1.3169485   -5.7163482     4396.052            3 
   72800    1.3203729   -5.7081339    4392.6852            5 
   72900    1.2928887   -5.7109024    4393.4436            5 
   73000     1.324683   -5.7131584    4392.5037            7 
   73100    1.3021274     -5.73787     4379.419            8 
   73200    1.3064799   -5.7404679     4397.875            2 
   73300    1.2848874   -5.7689065    4403.8139            1 
   73400    1.2979115   -5.7503411    4387.1087            2 
   73500    1.3276392   -5.7170141    4385.6255            2 
   73600    1.3347652     -5.72441     4396.763            1 
   73700    1.2993187   -5.7542804    4403.8423            3 
   73800    1.3003446   -5.7618959    4400.9098            2 
   73900    1.3194125   -5.7383249    4397.3971            2 
   74000    1.3148902   -5.7352776    4387.3164            3 
   74100    1.2963061    -5.759999     4380.436            2 
   74200    1.2977881   -5.7343399    4392.2324            3 
   74300     1.313485   -5.7544975      4394.44            2 
   74400    1.2830148   -5.7672627    4371.5997            3 
   74500    1.3164706   -5.7660046    4369.5733            4 
   74600    1.3318563   -5.7664731    4365.1156            3 
   74700    1.3072897   -5.7535361    4353.8009            3 
   74800    1.2891819   -5.7511219    4374.3765            4 
   74900    1.3275805   -5.7805739    4390.2342            2 
   75000    1.3008788   -5.7456886    4399.6034            4 
   75100     1.304617   -5.7458172     4386.159            7 
   75200    1.3260015   -5.7861586    4382.0223            2 
   75300    1.2852163   -5.7438868    4396.7176            5 
   75400    1.3182087   -5.7131083    4388.8195            4 
   75500    1.3216788   -5.7261439    4391.3345            1 
   75600    1.3106828   -5.7526582    4379.7145            3 
   75700    1.2978394   -5.7876307    4391.0038            2 
   75800    1.2966113   -5.7331718    4405.3118            2 
   75900    1.3161235   -5.7197067    4386.0899            2 
   76000    1.3096997   -5.7271488    4374.8928            5 
   76100    1.3071589   -5.7355786    4393.8895            4 
   76200    1.3055191    -5.727868     4406.561            5 
   76300    1.3052965   -5.7681525    4393.7874            6 
   76400    1.3147299   -5.7933014    4381.5301            3 
   76500     1.284893   -5.7890391     4381.507            2 
   76600    1.3176036   -5.7428522    4364.7798            4 
   76700    1.3138425   -5.7405675    4367.8743            3 
   76800    1.3078757   -5.7607532    4393.2745            7 
   76900    1.2989875   -5.7856336    4394.9693            4 
   77000    1.3359498   -5.7815325    4397.6894            3 
   77100    1.2889298    -5.732552    4388.5056            4 
   77200    1.3180263   -5.7597951    4376.9099            3 
   77300    1.3232473   -5.7158936     4373.964            6 
   77400    1.3472476   -5.7022448    4394.3374            2 
   77500    1.3079497   -5.7371247    4406.9195            3 
   77600     1.284644   -5.7433431    4408.1426            6 
   77700    1.3499462   -5.7678085    4390.6857            3 
   77800    1.3156573   -5.7605015    4392.7348            2 
   77900    1.3046337   -5.7458428    4394.5134            2 
   78000    1.3232473   -5.7535904    4394.8472            2 
   78100     1.334978   -5.7125535    4404.8764            2 
   78200    1.3310839   -5.7096853    4385.3937            4 
   78300    1.2985641   -5.7189857    4384.6044            1 
   78400    1.3143136   -5.6811773    4384.6414            1 
   78500    1.3436685   -5.7067432    4411.1725            1 
   78600    1.3038054   -5.7402342    4412.5995            2 
   78700    1.3098608   -5.7640731    4403.6714            2 
   78800    1.3331182   -5.8139224    4372.2685            2 
   78900    1.2938293   -5.7742422    4349.5856            2 
   79000    1.3088181   -5.7396156    4371.8942            2 
   79100    1.3067829   -5.7428173    4396.4915            2 
   79200    1.3120283   -5.7198036    4419.3265            3 
   79300    1.3256599    -5.752732    4413.4628            2 
   79400    1.3070661    -5.725447    4412.6335            4 
   79500    1.2974394   -5.7605291    4405.4282            5 
   79600    1.3066339    -5.765531    4377.0635            2 
   79700    1.3296716   -5.7513432    4363.8334            5 
   79800    1.3119218   -5.7897755    4354.7018            2 
   79900    1.3131615   -5.7786192    4378.3154            3 
   80000    1.3072603   -5.7568294    4391.0429            2 
   80100    1.3097532   -5.7870028    4371.2271            4 
   80200    1.2926687   -5.7965941    4378.7679            3 
   80300    1.3107351   -5.7511053    4391.3827            3 
   80400    1.2907079   -5.7260612    4392.9534            3 
   80500    1.2858746   -5.7443863    4360.6691            3 
   80600    1.3066999   -5.7275937    4376.3497            1 
   80700    1.3176809   -5.7136467    4392.7983            1 
   80800    1.2952427   -5.7261417     4403.253            2 
   80900    1.3071171   -5.7797745     4367.833            2 
   81000    1.3034471   -5.7764459    4371.1206            2 
   81100    1.3234749   -5.7563135    4400.6586            3 
   81200    1.3007112   -5.7245428    4387.8429            2 
   81300    1.3016153   -5.7266638    4387.6398            3 
   81400    1.3116123   -5.7762026    4396.9997            5 
   81500     1.287436   -5.7580425    4383.6189            2 
   81600    1.3070096   -5.6939362    4378.1551            2 
   81700    1.3514597   -5.7095699    4378.7173            2 
   81800    1.3190595   -5.7554018     4378.276            2 
   81900    1.2923737   -5.7721709      4395.19            1 
   82000    1.3155411   -5.7402745    4384.2059            4 
   82100    1.3118832   -5.7427547     4370.192            1 
   82200      1.28536   -5.7581731    4378.3369            1 
   82300    1.3096649   -5.7324489    4398.4478            2 
   82400    1.2968917   -5.7116391    4408.1282            3 
   82500    1.3240544   -5.7177348    4393.9233            3 
   82600    1.3063072   -5.7341901    4367.2893            3 
   82700    1.3403375    -5.782633    4351.6097            2 
   82800    1.2890854   -5.7502007     4370.244            2 
   82900    1.2972627    -5.740182    4400.0306            2 
   83000    1.2866187   -5.7094116    4403.9265            3 
   83100    1.2884956   -5.7326871    4381.9108            7 
   83200    1.3240689   -5.7073788    4385.9448            2 
   83300    1.2790867   -5.7231489    4393.0671            2 
   83400    1.3489919   -5.7726623    4398.2651            2 
   83500    1.3096759   -5.7654348    4384.4954            2 
   83600    1.3252014    -5.787131    4370.6893            3 
   83700    1.3019921   -5.7831186    4365.1267            2 
   83800    1.2936389   -5.7090738    4386.3515            5 
   83900    1.3500622   -5.7796762    4374.0592            4 
   84000    1.2961727   -5.7526783    4373.7131            5 
   84100    1.3094346   -5.7271713      4393.97            3 
   84200     1.308637   -5.7309448    4398.1364            1 
   84300    1.2803674   -5.7469236    4382.2908            3 
   84400    1.3161792   -5.7395049    4403.3746            5 
   84500    1.3041323   -5.7506203    4395.7053            3 
   84600    1.3061306   -5.7459419    4387.9358            2 
   84700    1.3319922   -5.7018256    4377.6804            5 
   84800    1.2938789   -5.7424193    4369.1477            8 
   84900    1.2703414   -5.7171155    4395.4848            3 
   85000    1.2941908   -5.7325549    4399.6409            2 
   85100    1.3309265   -5.7239762     4392.048            2 
   85200    1.3335179   -5.6847973    4396.5925            7 
   85300    1.2963275   -5.7065752    4384.2459            3 
   85400    1.3288117   -5.7471103    4383.0417            6 
   85500    1.3193458   -5.8025073    4389.5591            5 
   85600    1.3114484    -5.752454    4403.6721            3 
   85700    1.2880053   -5.7377462     4395.343            9 
   85800    1.3187274   -5.7699123    4390.5422            3 
   85900     1.309083   -5.7337757    4394.3944            3 
   86000    1.3346751   -5.7018553     4409.417            3 
   86100    1.3153979   -5.7481906    4407.1567            2 
   86200    1.3024119   -5.7719297    4406.3862            6 
   86300    1.3474254   -5.7605364    4387.6443            5 
   86400    1.3224683   -5.7853277    4363.4888            3 
   86500    1.2874707   -5.7523784    4376.4349            3 
   86600    1.2949987   -5.7321239    4410.5954            2 
   86700    1.3228055   -5.7434082    4399.0981            3 
   86800    1.3068997   -5.7740722    4387.5071            2 
   86900    1.3223778   -5.7646051    4392.3505            3 
   87000     1.319028   -5.7483953    4395.5476            4 
   87100    1.3159834    -5.743627    4382.8539            3 
   87200    1.2722608   -5.7484184      4392.56            1 
   87300    1.3081724   -5.7578244    4380.1138            2 
   87400    1.3209675   -5.7170198    4392.8836            6 
   87500    1.2810248   -5.6931321    4394.6191            6 
   87600    1.2809988   -5.7558428    4385.5987            3 
   87700    1.3197836   -5.7648291    4379.4239            4 
   87800    1.3193022   -5.7441698    4393.1767            2 
   87900    1.2736581   -5.7519733     4388.654            4 
   88000    1.3065977   -5.7535408    4390.1399            2 
   88100    1.3107644   -5.7265787    4386.4925            2 
   88200    1.3351689   -5.7486923    4381.0087            4 
   88300    1.2934172   -5.7746307    4381.4991            3 
   88400    1.3065908   -5.7580378    4408.8708            3 
   88500      1.31734   -5.7502828    4414.0885            2 
   88600    1.3359232   -5.7281455    4408.8195            3 
   88700    1.2843509   -5.7118152    4411.3735            3 
   88800    1.3154918   -5.7328072    4390.1387            2 
   88900    1.3162124   -5.7259284    4378.4425            4 
   89000    1.3101762   -5.7665503     4375.742            2 
   89100    1.2962165   -5.7496344    4387.8447            3 
   89200     1.318923   -5.7385972    4387.4311            3 
   89300    1.3051575   -5.7336086    4398.0441            2 
   89400    1.2962426   -5.7482664    4376.9632            4 
   89500    1.2818298   -5.7893022    4354.6306            4 
   89600    1.2985188   -5.7884383    4381.8973            3 
   89700    1.3001048   -5.7770429     4396.159            4 
   89800    1.3183748   -5.7873725    4382.4507            3 
   89900    1.3241769    -5.757269    4355.1762            1 
   90000    1.3305249   -5.7445883    4367.5633            3 
   90100    1.3065493   -5.7259463    4407.8044            1 
   90200    1.3065658   -5.7040522     4408.204            1 
   90300    1.3036026     -5.74763    4396.6998            2 
   90400    1.3050702   -5.7520432    4394.6429            3 
   90500    1.3415781   -5.7426305    4394.7302            3 
   90600    1.2669813   -5.7056083    4397.6179            2 
   90700    1.3349667    -5.749114    4402.6095            1 
   90800     1.283727   -5.7402603     4391.799            2 
   90900    1.3003712   -5.7687713    4372.4382            3 
   91000    1.3146201   -5.7228507    4376.7713            4 
   91100    1.3373252    -5.710574    4376.0055            3 
   91200    1.3003168    -5.718222    4382.4041            6 
   91300    1.2920103   -5.7614739    4392.0915            4 
   91400    1.3226349   -5.7650862    4407.6617            2 
   91500    1.3113096   -5.7563721    4402.4511            4 
   91600    1.3216993   -5.7744039    4394.1545            2 
   91700    1.3136206   -5.7448304    4391.2964            2 
   91800    1.3283495   -5.7909002    4371.4431            1 
   91900    1.3122764   -5.7710983    4392.0058            4 
   92000    1.3003123   -5.7143432    4410.8594            2 
   92100    1.3162068   -5.7022096    4397.0161            2 
   92200    1.3337498   -5.7573047    4374.4407            4 
   92300    1.2876169   -5.7687319     4374.435            5 
   92400    1.2871558   -5.7455452    4390.1338            2 
   92500    1.3026025   -5.7460437    4393.3209            2 
   92600    1.3052763   -5.7869326    4357.9181            2 
   92700    1.3164565   -5.7512763    4365.0882            4 
   92800    1.3055896   -5.7408539    4391.5271            2 
   92900    1.3284896   -5.7430194    4388.4307            5 
   93000    1.3134918   -5.7229271    4377.5621            2 
   93100    1.3033058   -5.7481015    4379.7506            1 
   93200    1.2941603   -5.7574578    4386.1072            3 
   93300    1.3229233   -5.7475672    4407.8579            3 
   93400    1.3066357   -5.7718878    4395.5592            2 
   93500    1.3509932    -5.779848    4376.3355            2 
   93600    1.3015528   -5.7508484    4373.0256            2 
   93700    1.3046401   -5.7422897    4375.2092            2 
   93800    1.3107497   -5.7289371    4386.7533            3 
   93900    1.3303361   -5.7299341     4405.867            2 
   94000    1.2884029   -5.7469751    4395.0032            1 
   94100    1.3014518   -5.7598598    4403.9007            2 
   94200    1.3324426   -5.7333801     4401.278            4 
   94300    1.2931295   -5.7437558    4378.5434            1 
   94400    1.3034777   -5.7172288    4370.2372            2 
   94500    1.3301762   -5.7084684    4385.0596            4 
   94600    1.3086135   -5.7158976    4389.1433            2 
   94700    1.3173291   -5.7785851    4365.7959            2 
   94800    1.2896989    -5.752949    4386.2737            3 
   94900    1.2925165   -5.7426667    4389.1522            7 
   95000    1.3326759   -5.7269947    4388.8535            2 
   95100    1.3014508   -5.6881045    4410.0099            2 
   95200    1.3391689   -5.7050808    4406.6674            2 
   95300    1.3025762   -5.7086641    4396.6103            2 
   95400    1.3061674    -5.700201    4383.9344            5 
   95500    1.2829802   -5.6989385    4383.7812            6 
   95600    1.3078738   -5.7063792    4400.2848            2 
   95700    1.3031816   -5.7448143    4394.4112            3 
   95800    1.3008828   -5.7128109    4391.0821            1 
   95900    1.3205805   -5.7476965    4393.0044            2 
   96000    1.3177792   -5.7782319    4395.4417            3 
   96100    1.3137759   -5.7370325    4402.1649            3 
   96200    1.3100811   -5.6895771    4391.8401            5 
   96300    1.3050571   -5.7293432    4395.6404            3 
   96400    1.3259043   -5.7555519    4378.7944            2 
   96500     1.305864   -5.7309129    4370.1154            4 
   96600     1.297347   -5.6822248    4398.5314            4 
   96700    1.3174261   -5.7614833    4399.8752            7 
   96800    1.2928379   -5.7397652     4397.193            2 
   96900    1.2928693   -5.7087074    4398.5516            1 
   97000    1.3413401   -5.7124895    4392.0082            2 
   97100    1.3147096   -5.7266083    4369.9838            4 
   97200    1.3075322   -5.7463648    4388.8617            3 
   97300    1.2851224   -5.7315433    4409.8832            3 
   97400    1.3373227    -5.735269    4402.8143            2 
   97500    1.3313632   -5.7117766    4401.7175            2 
   97600    1.2953383   -5.7200817    4391.7361            5 
   97700    1.3194816   -5.7380902    4396.5105            3 
   97800    1.3041995   -5.7434353    4399.0672            7 
   97900     1.326134   -5.7613372    4371.2825            1 
   98000    1.2926509   -5.7710916    4360.2422            4 
   98100      1.30927   -5.7473493    4373.6975            3 
   98200    1.3105015   -5.7467949    4403.6772            3 
   98300    1.3159667   -5.7388053    4412.2127            2 
   98400    1.3052693   -5.7644691    4381.2712            3 
   98500    1.3358731   -5.7595873    4380.3847            2 
   98600    1.3380019   -5.7582677    4396.8064            2 
   98700    1.3003959    -5.716108    4421.0862            2 
   98800    1.2819797   -5.7360005    4396.8276            4 
   98900    1.3299671   -5.7598198      4386.96            3 
   99000     1.299835   -5.7464721    4393.5716            2 
   99100    1.3045413   -5.7334927     4388.058            3 
   99200    1.3183387   -5.8032605    4366.1443            2 
   99300    1.3030152   -5.7709082    4380.2313            2 
   99400    1.2942782   -5.7285238    4381.8547            3 
   99500    1.3253538   -5.7231633    4389.4048            4 
   99600    1.3219214   -5.7853503    4389.8229            3 
   99700    1.2858408   -5.7978953    4380.5817            4 
   99800    1.3172746   -5.7998933    4369.2248            3 
   99900     1.302262   -5.7284309     4380.347            7 
  100000    1.3251298   -5.7214176    4388.4915            3 
  100100    1.2871566   -5.7255763    4410.0088            4 
  100200    1.3142969   -5.7491103    4392.7593            3 
  100300    1.3145799   -5.7337078    4378.7071            3 
  100400    1.3031885   -5.7736718    4387.1926            3 
  100500    1.3163567   -5.7436179    4399.7971            2 
  100600    1.2743878   -5.7236053    4398.0405            4 
  100700    1.3065064   -5.7326853    4376.1858            2 
  100800    1.3437402   -5.7456586    4373.9438            4 
  100900     1.297568   -5.7563855    4361.2164           11 
  101000      1.29518   -5.8087679    4369.7889            3 
  101100     1.322344   -5.7828801     4384.992            2 
  101200    1.3070909   -5.7113563    4384.1611            1 
  101300    1.2815813   -5.7329976    4393.4834            5 
  101400    1.3084398   -5.7176805    4384.6022            3 
  101500    1.3002517   -5.7213132    4382.3575            8 
  101600     1.315077   -5.7586145    4370.0678           11 
  101700    1.3089713     -5.72513     4396.917            3 
  101800    1.3130089    -5.736479    4405.2879            2 
  101900    1.3068025   -5.7695653    4380.8017            4 
  102000    1.2895267   -5.7502718    4377.5049            2 
  102100     1.338298   -5.7646671    4380.5086            5 
  102200    1.3213007   -5.7870602    4373.0499            1 
  102300    1.3198372   -5.7578844    4374.4045            2 
  102400    1.2975888   -5.7542492    4414.4088            3 
  102500    1.3152706   -5.7645833    4418.6141            3 
  102600    1.3070098   -5.7432543    4404.0349            3 
  102700    1.3160143   -5.6914879    4400.0513            6 
  102800    1.3031388   -5.7223675      4369.99            5 
  102900    1.3114093   -5.7593475    4381.2514            3 
  103000    1.2969988   -5.7796404    4399.6793            4 
  103100    1.2955546   -5.7677172    4372.4871            3 
  103200    1.3358426   -5.7673069    4367.9509            3 
  103300     1.305884   -5.7687989    4374.9484            2 
  103400    1.3210568   -5.7499971    4386.2674            7 
  103500    1.3129753   -5.7314326    4412.3971            2 
  103600    1.2919908   -5.7504637    4408.0444            2 
  103700    1.3185077   -5.7375878    4394.6828            2 
  103800    1.3637284   -5.7032062    4394.1464            2 
  103900    1.3210496   -5.7152672    4390.0206            3 
  104000    1.3146815   -5.7628731    4397.1254            4 
Loop time of 168.307 on 24 procs for 100000 steps with 4000 atoms

Performance: 102669.702 tau/day, 594.153 timesteps/s
99.7% CPU use with 24 MPI tasks x no OpenMP threads

MPI task timing breakdown:
Section |  min time  |  avg time  |  max time  |%varavg| %total
---------------------------------------------------------------
Pair    | 19.239     | 19.576     | 20.092     |   5.5 | 11.63
Neigh   | 2.8665     | 2.8944     | 2.9272     |   1.0 |  1.72
Comm    | 9.3813     | 9.9309     | 10.515     |  11.7 |  5.90
Output  | 3.9356     | 3.9367     | 3.9488     |   0.1 |  2.34
Modify  | 129.18     | 130.1      | 131.04     |   4.6 | 77.30
Other   |            | 1.872      |            |       |  1.11

Nlocal:        166.667 ave         174 max         157 min
Histogram: 1 1 1 1 6 2 4 6 0 2
Nghost:        2032.21 ave        2048 max        2014 min
Histogram: 3 0 4 3 1 3 1 1 3 5
Neighs:        17290.8 ave       18469 max       15945 min
Histogram: 1 1 2 0 4 5 6 4 0 1
FullNghs:      34534.3 ave       36541 max       31992 min
Histogram: 1 0 0 5 2 4 9 1 1 1

Total # of neighbors = 828824
Ave neighs/atom = 207.20600
Neighbor list builds = 6815
Dangerous builds = 1

#clear
#
#next RN
#
#jump SELF
Total wall time: 0:02:49
