
units lj                  # Use reduced LJ style units
atom_style atomic         # Uncharged point particles
atom_modify map hash      # Needed for indexing of clusters etc
                          # Used to be able to find where atoms are in relation to each other.

# Define a lattice with which to populate the simulation cell. With units
# set to 'lj' the second argument to the lattice command is the reduced
# density rho* and the spacings are multiples of that required to acheive
# that density. Also define a simulation cell called 'box' in lattice units
# and fill it with atoms. Here we're creating a box which is ten lattice
# constants in each direction.
lattice fcc 1.0 spacing 1 1 1                 # All equal sizes - gives the right reduced density.
Lattice spacing in x,y,z = 1.5874011 1.5874011 1.5874011

region box block 0 10 0 10 0 10 units lattice # Defines a region, "box", in lattice units
create_box 1 box                              # Creates a simulation box as specified above,
Created orthogonal box = (0.0000000 0.0000000 0.0000000) to (15.874011 15.874011 15.874011)
  2 by 3 by 4 MPI processor grid
                                              # with one type of atom
create_atoms 1 box                            # Creates particles on lattice points
Created 4000 atoms
  using lattice units in orthogonal box = (0.0000000 0.0000000 0.0000000) to (15.874011 15.874011 15.874011)
  create_atoms CPU = 0.004 seconds


# Set the mass of the first (and only) atom type.
mass 1 1.0

# Lennard-Jones interactions between particles, 3.5 sigma cut-off. Apply
# long range tail corrections to energy and pressure and set all coefficients
# to unity since we work in reduced units here. Note that this doesn't shift
# the potential such that it goes to zero at the cutoff. That would require
# pair_modify('shift', 'yes').
pair_style lj/cut  3.5      # non-GPU version
pair_modify tail  yes
pair_coeff 1  1  1.0  1.0   # Intearaction between 1 and 1 set with epsilon = 1 and sigma = 1

write_data data.*
System init for write_data ...
Neighbor list info ...
  update every 1 steps, delay 10 steps, check yes
  max neighbors/atom: 2000, page size: 100000
  master list distance cutoff = 3.8
  ghost atom cutoff = 3.8
  binsize = 1.9, bins = 9 9 9
  1 neighbor lists, perpetual/occasional/extra = 1 0 0
  (1) pair lj/cut, perpetual
      attributes: half, newton on
      pair build: half/bin/atomonly/newton
      stencil: half/bin/3d
      bin: standard

#############################
#   M E L T   S Y S T E M   #
#############################

velocity all create 2.4 1741580 mom yes dist gaussian # Assign velocities
                                                    # Temperature 2.4, random number seed, zero linear momentum
						                                                        # Gaussian distribution

timestep 0.002   # simulation timestep
thermo 100       # output thermodynamic data every 100 steps

# Define a fix  in this case with index 1 applied to all
# particles in the simulation. This fix is for simulations
# in the anisotropic NPT ensemble. Note that we use the MTK
# correction.
fix 1 all npt temp 2.4 2.4 0.1 iso 5.68 5.68 0.5 mtk yes tchain 5 pchain 5 # Use NPT ensemble
                                                                         # Set temperature and pressure and damping
                                                                         # Numbers of thermostats in chain and in barostat
run 1000         # run for 10000 steps
Per MPI rank memory allocation (min/avg/max) = 3.676 | 3.679 | 3.684 Mbytes
Step Temp E_pair E_mol TotEng Press Volume 
       0          2.4   -8.3859253            0   -4.7868253   -2.2405722         4000 
     100    1.2552531   -6.5115672            0   -4.6291582     5.497081    4088.0579 
     200    1.4628633    -6.289567            0   -4.0958206    6.0903972    4138.0466 
     300    1.5904925   -6.0345783            0   -3.6494359    5.7376042    4272.4771 
     400    1.6850752   -5.7072351            0   -3.1802542    5.9705826    4399.2373 
     500    1.7895599   -5.4225046            0   -2.7388358     5.865757    4546.8704 
     600    1.8965854   -5.1442855            0   -2.3001186     5.865539    4691.2751 
     700    2.0304439     -4.92263            0   -1.8777256    5.8141752    4830.4151 
     800    2.1710171   -4.7567122            0   -1.5010006    5.6106115    4968.6247 
     900    2.2247838   -4.5230698            0   -1.1867284    5.8051376    5086.8715 
    1000     2.364264   -4.4348938            0  -0.88938446    5.9115751    5144.0032 
Loop time of 0.319778 on 24 procs for 1000 steps with 4000 atoms

Performance: 540374.335 tau/day, 3127.166 timesteps/s
99.5% CPU use with 24 MPI tasks x no OpenMP threads

MPI task timing breakdown:
Section |  min time  |  avg time  |  max time  |%varavg| %total
---------------------------------------------------------------
Pair    | 0.17581    | 0.18615    | 0.19881    |   1.2 | 58.21
Neigh   | 0.03371    | 0.035253   | 0.037357   |   0.5 | 11.02
Comm    | 0.060097   | 0.074257   | 0.085458   |   2.2 | 23.22
Output  | 0.00020751 | 0.00021346 | 0.00028219 |   0.0 |  0.07
Modify  | 0.019778   | 0.021707   | 0.023168   |   0.6 |  6.79
Other   |            | 0.002202   |            |       |  0.69

Nlocal:        166.667 ave         176 max         152 min
Histogram: 1 0 2 0 3 4 6 4 3 1
Nghost:        1840.88 ave        1857 max        1826 min
Histogram: 3 1 3 4 1 2 4 4 0 2
Neighs:        14784.9 ave       15702 max       13755 min
Histogram: 2 1 1 5 1 3 5 0 4 2

Total # of neighbors = 354837
Ave neighs/atom = 88.709250
Neighbor list builds = 86
Dangerous builds = 16

# Equilibrate just above the melting temperature to avoid step fn in T

fix 1 all npt temp 1.25 1.25 0.1 iso 5.68 5.68 0.5 mtk yes tchain 5 pchain 5
run 1000
Per MPI rank memory allocation (min/avg/max) = 3.677 | 3.680 | 3.685 Mbytes
Step Temp E_pair E_mol TotEng Press Volume 
    1000     2.364264   -4.4348938            0  -0.88938446    5.9115751    5144.0032 
    1100    1.9499649   -4.6617779            0   -1.7375618    5.8205171    4978.7844 
    1200    1.7213197   -4.9482774            0   -2.3669434    5.7402188    4808.4294 
    1300    1.5721809   -5.1954201            0   -2.8377383    5.7003773    4667.9329 
    1400    1.4692769   -5.4052033            0   -3.2018389    5.6740098     4560.708 
    1500    1.3897296   -5.5637068            0   -3.4796336    5.6667574    4476.2103 
    1600    1.2963572   -5.6470084            0   -3.7029588    5.6441736    4434.9383 
    1700    1.2716936   -5.7363737            0   -3.8293102    5.7159049    4387.6158 
    1800    1.2561313   -5.8008832            0   -3.9171572    5.6027564    4366.0004 
    1900     1.242552   -5.8327759            0   -3.9694139    5.6800198    4347.3872 
    2000    1.2686809   -5.8614487            0   -3.9589031    5.5394068    4347.1855 
Loop time of 0.312812 on 24 procs for 1000 steps with 4000 atoms

Performance: 552409.098 tau/day, 3196.812 timesteps/s
99.7% CPU use with 24 MPI tasks x no OpenMP threads

MPI task timing breakdown:
Section |  min time  |  avg time  |  max time  |%varavg| %total
---------------------------------------------------------------
Pair    | 0.18094    | 0.1851     | 0.19177    |   0.8 | 59.17
Neigh   | 0.03062    | 0.031283   | 0.032067   |   0.2 | 10.00
Comm    | 0.065765   | 0.07232    | 0.077363   |   1.4 | 23.12
Output  | 0.000203   | 0.00020913 | 0.00026984 |   0.0 |  0.07
Modify  | 0.020309   | 0.021395   | 0.022805   |   0.4 |  6.84
Other   |            | 0.002507   |            |       |  0.80

Nlocal:        166.667 ave         176 max         159 min
Histogram: 1 1 7 1 4 5 1 3 0 1
Nghost:        2035.25 ave        2048 max        2013 min
Histogram: 1 0 2 0 4 2 5 1 6 3
Neighs:        17526.7 ave       18387 max       16728 min
Histogram: 3 2 3 3 2 3 1 2 2 3

Total # of neighbors = 420641
Ave neighs/atom = 105.16025
Neighbor list builds = 76
Dangerous builds = 5


# Small amount of linear quench

fix 1 all npt temp 1.25 ${temp} 0.1 iso 5.68 5.68 0.5 mtk yes tchain 5 pchain 5
fix 1 all npt temp 1.25 1.79 0.1 iso 5.68 5.68 0.5 mtk yes tchain 5 pchain 5
run 2000
Per MPI rank memory allocation (min/avg/max) = 3.677 | 3.680 | 3.685 Mbytes
Step Temp E_pair E_mol TotEng Press Volume 
    2000    1.2686809   -5.8614487            0   -3.9589031    5.5394068    4347.1855 
    2100    1.2797539   -5.8138358            0   -3.8946848    5.7288123    4350.9375 
    2200    1.2864407    -5.799399            0   -3.8702203    5.6675316    4366.3736 
    2300    1.3067169   -5.7630494            0   -3.8034641    5.5399717    4395.4381 
    2400    1.3426613   -5.7125886            0   -3.6991001    5.6910767    4402.5717 
    2500     1.368667   -5.6866044            0   -3.6341171    5.5221907    4434.1852 
    2600    1.3903983   -5.6386509            0   -3.5535749    5.7316857    4436.9514 
    2700     1.416274   -5.6005755            0   -3.4766956    5.7568456    4451.5865 
    2800    1.4311101   -5.5612534            0   -3.4151249    5.6568156    4482.9203 
    2900     1.458354   -5.5057869            0   -3.3188028    5.7762476    4499.7702 
    3000    1.5197057   -5.4936215            0   -3.2146328    5.8062791    4506.7931 
    3100    1.5347467   -5.4589931            0   -3.1574485    5.5356695    4549.1453 
    3200    1.5370816   -5.4081037            0   -3.1030577    5.5451118    4571.4597 
    3300    1.5860695   -5.3670816            0   -2.9885722    5.7879652    4573.0985 
    3400    1.6077455    -5.298177            0   -2.8871616    5.9798774    4586.8149 
    3500    1.6246528   -5.2724816            0   -2.8361117    5.7638072    4625.6081 
    3600    1.6491326     -5.24851            0   -2.7754294    5.6432908    4650.1154 
    3700    1.6943941   -5.2316161            0   -2.6906603    5.5811341    4667.9556 
    3800    1.7335791   -5.2212833            0   -2.6215647    5.4430208    4695.3079 
    3900    1.7228314    -5.117461            0   -2.5338599    5.6177235    4726.5895 
    4000    1.7719026   -5.0893912            0   -2.4322018    5.6495308    4742.0292 
Loop time of 0.626239 on 24 procs for 2000 steps with 4000 atoms

Performance: 551865.841 tau/day, 3193.668 timesteps/s
99.8% CPU use with 24 MPI tasks x no OpenMP threads

MPI task timing breakdown:
Section |  min time  |  avg time  |  max time  |%varavg| %total
---------------------------------------------------------------
Pair    | 0.36017    | 0.37334    | 0.38348    |   1.0 | 59.62
Neigh   | 0.059216   | 0.060599   | 0.06189    |   0.3 |  9.68
Comm    | 0.13387    | 0.14383    | 0.15794    |   1.8 | 22.97
Output  | 0.000414   | 0.00043522 | 0.00055989 |   0.0 |  0.07
Modify  | 0.039544   | 0.042834   | 0.046692   |   1.0 |  6.84
Other   |            | 0.005197   |            |       |  0.83

Nlocal:        166.667 ave         178 max         150 min
Histogram: 1 1 0 0 3 7 4 4 3 1
Nghost:        1933.04 ave        1954 max        1914 min
Histogram: 2 2 2 2 3 5 2 4 1 1
Neighs:        16053.0 ave       17573 max       14007 min
Histogram: 1 0 1 0 5 4 10 2 0 1

Total # of neighbors = 385273
Ave neighs/atom = 96.318250
Neighbor list builds = 145
Dangerous builds = 0

#############################
# F R E E Z E  S Y S T E M  #
#############################

# Define solid atoms. This closely follows ten Wolde  Ruiz-Montero and Frenkel  Faraday Discuss  1996  104  93-110
# Compute components of the per-atom q6 vector
compute q6 all orientorder/atom degrees 1 6 components 6 nnn NULL cutoff 1.3 # compute the Q6 parameter.
                                                                             # Use all neighbours within 1.3 unit cell.

# get number of connections
compute coord_number all coord/atom orientorder q6 0.5

# An atom is solid if it has 8 or more connections (of a possible 14)
variable is_solid atom c_coord_number>=8
group solid dynamic all var is_solid    # Must be dynamic to update
dynamic group solid defined

# do clustering
compute cluster solid cluster/atom 1.3 # Create a cluster where all atoms within are solid and max 1.3 units from another member

# define chunks one chunk per cluster
compute clus_chunks solid chunk/atom c_cluster nchunk every compress yes  # Says which atoms are in which chunk

# count the size of each chunk
compute size_chunks solid property/chunk clus_chunks count


# Find the maximum entry in the vector of chunk sizes
variable max_n equal max(c_size_chunks)


# Thermo style which includes this variable
thermo_style custom step temp pe vol v_max_n

thermo ${N}  # Print the thermo information every 100 steps
thermo 100  

# Reset the npt fix at a lower temperature (below freezing)
fix 1  all npt temp  ${temp} ${temp}  0.1  iso  5.68  5.68  0.5  mtk yes tchain  5  pchain  5
fix 1  all npt temp  1.79 ${temp}  0.1  iso  5.68  5.68  0.5  mtk yes tchain  5  pchain  5
fix 1  all npt temp  1.79 1.79  0.1  iso  5.68  5.68  0.5  mtk yes tchain  5  pchain  5

dump dmp2 all dcd ${N} traj_${rand}.dcd
dump dmp2 all dcd 100 traj_${rand}.dcd
dump dmp2 all dcd 100 traj_462431.dcd


# fix rnuntil all halt ${N} v_max_n >= 3980 error soft message no   # Stop when solidified


run 100000 # 5000000  # Run for this many steps
Neighbor list info ...
  update every 1 steps, delay 10 steps, check yes
  max neighbors/atom: 2000, page size: 100000
  master list distance cutoff = 3.8
  ghost atom cutoff = 3.8
  binsize = 1.9, bins = 9 9 9
  4 neighbor lists, perpetual/occasional/extra = 1 3 0
  (1) pair lj/cut, perpetual
      attributes: half, newton on
      pair build: half/bin/atomonly/newton
      stencil: half/bin/3d
      bin: standard
  (2) compute orientorder/atom, occasional
      attributes: full, newton on
      pair build: full/bin/atomonly
      stencil: full/bin/3d
      bin: standard
  (3) compute coord/atom, occasional
      attributes: full, newton on
      pair build: full/bin/atomonly
      stencil: full/bin/3d
      bin: standard
  (4) compute cluster/atom, occasional
      attributes: full, newton on
      pair build: full/bin/atomonly
      stencil: full/bin/3d
      bin: standard
Per MPI rank memory allocation (min/avg/max) = 9.452 | 9.454 | 9.456 Mbytes
Step Temp PotEng Volume v_max_n 
    4000    1.7719026   -5.0893912    4742.0292            1 
    4100     1.814382   -5.0637969    4756.5004            3 
    4200    1.7995835   -5.0332225    4794.3806            3 
    4300    1.7388807   -5.0311364    4772.3793            1 
    4400    1.7975175   -5.0317626    4740.1221            2 
    4500    1.7847124   -5.0193967    4762.7157            1 
    4600    1.7438889   -5.0572597    4812.8166            1 
    4700    1.8150445   -5.0422864    4731.8136            2 
    4800    1.8123685   -5.0616579    4757.8582            1 
    4900    1.7755738   -5.1232646    4761.9772            1 
    5000    1.7857269   -5.0821683    4727.9138            1 
    5100    1.8362358    -5.075424    4754.9164            1 
    5200    1.7574265   -5.0316315    4774.1873            1 
    5300    1.7541983   -5.0461955    4765.9612            2 
    5400    1.7927973   -4.9903749    4756.0725            1 
    5500    1.7963777   -5.0469454    4753.8472            1 
    5600    1.7760073    -5.073207    4768.0296            2 
    5700    1.7841244   -5.0194439    4749.4515            1 
    5800    1.7736269   -5.0549747    4743.0964            1 
    5900    1.7817202   -5.0637797    4792.0458            2 
    6000    1.8160114   -5.0286193    4757.3503            1 
    6100    1.7958697   -5.0654621    4762.4027            1 
    6200    1.7842877    -5.090232    4775.5269            1 
    6300    1.7619743   -5.0886559     4735.143            1 
    6400     1.792796   -5.0482161    4749.6371            3 
    6500    1.7998432   -5.0574766    4760.7326            1 
    6600    1.7492681   -5.0322448    4774.7697            1 
    6700    1.8249733   -5.0645982    4781.5638            1 
    6800    1.8156573   -5.0915148    4757.1632            1 
    6900    1.7700881   -5.0617437    4743.4054            1 
    7000    1.8040698   -5.0884821    4787.8577            1 
    7100    1.8047251   -5.0700731    4738.3743            1 
    7200    1.7728614    -5.071971    4722.2846            1 
    7300    1.8058115   -5.0889194    4749.9809            2 
    7400    1.7800792   -5.1508821    4760.3793            3 
    7500    1.7951112   -5.0678278    4729.5351            1 
    7600    1.8159529   -5.0448625    4765.8729            1 
    7700    1.7794067   -5.0403881    4760.5509            2 
    7800    1.7778685   -5.0569944    4756.0661            1 
    7900    1.7894425   -5.0655376     4757.868            1 
    8000    1.7961384   -5.0149279    4774.4396            2 
    8100    1.7625011   -5.0406396    4755.7504            1 
    8200     1.826732   -5.0802328    4765.5697            1 
    8300    1.7771674   -5.0617897    4769.7001            1 
    8400     1.793892   -5.0537979    4756.5564            1 
    8500    1.8312629   -5.0158393    4781.7515            1 
    8600    1.7955655   -5.0219062    4780.8144            1 
    8700    1.7821792   -5.0529404    4782.9754            1 
    8800    1.7434895   -5.0563056    4735.9997            1 
    8900    1.7933442   -5.0687526    4738.0843            1 
    9000    1.7767994   -5.0749723    4767.4565            1 
    9100    1.8402505   -5.0827859    4778.8559            1 
    9200    1.8037494   -5.0470395    4746.3591            2 
    9300    1.7534803   -5.0881323    4749.3562            1 
    9400    1.7789134   -5.0665731    4764.3483            1 
    9500     1.824145   -5.0694724    4768.4881            2 
    9600    1.7743409   -5.0529065    4757.7626            2 
    9700    1.7957624   -5.0409827    4742.1427            1 
    9800    1.7807567   -5.0800011    4769.1514            1 
    9900    1.7860377    -5.127292      4739.81            1 
   10000    1.7918814   -5.0889066    4739.8832            1 
   10100     1.791705   -5.0771092    4739.9881            1 
   10200    1.7659729   -5.0646352    4735.3138            2 
   10300    1.8052524   -5.0750369     4773.682            1 
   10400    1.8173288   -4.9969782    4771.8955            1 
   10500     1.772662   -5.0029403     4762.458            1 
   10600    1.7701661   -5.0672172     4772.734            1 
   10700    1.7930359   -5.0666104    4734.4486            1 
   10800     1.817175   -5.0811559    4751.8781            1 
   10900    1.7521435   -5.0516183    4782.2288            1 
   11000    1.8295023   -5.0527403     4766.815            2 
   11100    1.7856677   -5.0560377    4770.6857            1 
   11200    1.8031134   -5.0175571    4774.8013            2 
   11300    1.8172018   -5.0368925    4782.5746       -1e+20 
   11400    1.7644216    -5.032903    4763.5984            1 
   11500    1.8104161   -5.0351899    4796.1891            1 
   11600    1.7879655    -5.017207    4766.4609            1 
   11700    1.7955248   -5.0588025    4755.3646            1 
   11800    1.7735799   -5.0465793    4772.9219            3 
   11900    1.8031242   -5.0156776    4748.9475            1 
   12000    1.7923221   -5.0563013    4780.8546            1 
   12100    1.8000266   -5.0324512    4789.1986            1 
   12200    1.7851586   -5.0572275    4730.0214            1 
   12300    1.7807475   -5.0830695    4774.5484            2 
   12400     1.804763   -5.0598308     4763.926            1 
   12500     1.799245   -5.0865078    4742.4104            1 
   12600    1.7888983   -5.1531708    4751.8688            3 
   12700    1.8112864   -5.1264283    4747.3241            1 
   12800    1.8135152   -5.0532962    4738.6298            2 
   12900    1.7691197   -5.0685739    4769.9028            3 
   13000    1.7848679   -5.0438159    4765.8274            1 
   13100    1.8126084   -5.0304482    4788.6671            1 
   13200    1.8178268   -5.0602542     4760.386            2 
   13300    1.7841674   -5.0859642    4757.0365            2 
   13400    1.7851895   -5.0396357    4762.2227            2 
   13500    1.8251204   -5.0226924    4776.2616            1 
   13600      1.80009   -5.0837109    4754.6776            1 
   13700    1.8018902   -5.0858486    4748.5572            1 
   13800    1.7865074   -5.0170059    4755.7337            2 
   13900     1.779256   -5.0756109    4731.8784            1 
   14000    1.7747586   -5.0342724    4767.8441            1 
   14100    1.8103582   -5.0670245    4762.0175            1 
   14200    1.7729857   -5.0631858    4759.0959            1 
   14300    1.8189027   -5.0636446    4752.9605            2 
   14400    1.8000091   -5.1145725    4739.2366            1 
   14500    1.7199272   -5.0754162    4753.6862            1 
   14600     1.805698   -5.0682215    4722.0229       -1e+20 
   14700     1.757725   -5.0630347    4724.5751            2 
   14800    1.8072048   -5.0920896    4758.3299            2 
   14900    1.7891109   -5.0554491    4756.2112            1 
   15000    1.7622285   -5.0418092    4758.2529            1 
   15100    1.8179169   -5.0598603    4738.4757            1 
   15200    1.7646561   -5.1019751    4751.6159            1 
   15300      1.74859   -5.0526973    4764.3737            1 
   15400    1.8205411   -5.0391081    4729.2401            1 
   15500     1.768065   -5.0710228    4750.9028            1 
   15600    1.7831266    -5.067393    4763.7936            1 
   15700    1.8178642     -5.02935     4757.722            1 
   15800    1.7645405   -5.0655439    4765.5732            4 
   15900    1.7868249   -5.0849966    4765.2274            1 
   16000    1.8105716   -5.0634847    4715.8715            1 
   16100     1.747273   -5.0523037    4773.1344            2 
   16200    1.7923706   -5.0609785    4768.7018            1 
   16300     1.758591   -5.0650626    4719.0538            2 
   16400    1.7677242   -5.1369332    4726.3274            1 
   16500    1.7723653   -5.0820066    4754.8456            2 
   16600    1.8142664   -5.0504891    4756.7286            1 
   16700    1.7836501   -5.0799175    4758.3872            1 
   16800    1.7926609   -5.0658309    4749.1285            1 
   16900    1.7775856   -5.1087617    4733.5194            1 
   17000    1.7797275   -5.0952368     4747.964            1 
   17100    1.7658862   -5.0634894    4724.8047            1 
   17200     1.805809   -5.0672857    4729.2645            2 
   17300    1.7418191   -5.0557667    4780.5451            5 
   17400    1.8123624   -5.0573178    4750.0633            1 
   17500    1.8020478   -5.0577595    4740.8812            1 
   17600    1.7572019   -5.0747423    4762.1384            1 
   17700    1.8159561   -5.0739327    4758.8559            2 
   17800    1.7982513   -5.0561885    4743.3603            2 
   17900    1.7660781   -5.0604815    4770.0685            1 
   18000    1.8161851   -5.0209817    4753.6205            1 
   18100    1.7734375   -5.0636465    4735.7086            1 
   18200     1.789769   -5.0999374    4772.1681            1 
   18300    1.8107121   -5.0763701    4767.0262            1 
   18400     1.811143   -5.0399604    4769.8285            1 
   18500    1.7586197   -5.0414234    4759.1663            1 
   18600    1.7812237   -5.0288943    4744.7947            2 
   18700    1.7985749   -5.0278943    4756.2452            1 
   18800    1.7653662   -5.0107496    4788.9473            1 
   18900    1.8053115   -5.0620499    4748.4442            1 
   19000    1.7818645   -5.0496471    4767.5198            1 
   19100    1.8154671   -5.0881806    4774.7049       -1e+20 
   19200    1.7725186   -5.0372129    4759.2644            1 
   19300    1.8060741   -5.0234682    4775.9586            1 
   19400    1.7854338   -5.0351336    4771.4053            1 
   19500    1.8138946   -5.0598222    4756.0711            1 
   19600     1.776496   -5.0944374    4753.6727       -1e+20 
   19700    1.8030703   -5.0633794    4764.9461            4 
   19800     1.809786   -5.0785359    4783.5451            1 
   19900    1.8050333   -5.0619552    4741.9515            1 
   20000    1.8018674   -5.1254934    4740.3837            1 
   20100    1.8099231   -5.0837731    4754.5154            1 
   20200    1.8154652   -5.0699223    4777.9083            2 
   20300     1.764031   -5.0351183    4750.6518            3 
   20400    1.8377858   -5.0482141    4760.6025            1 
   20500    1.7666937   -5.0434073    4766.5072            1 
   20600    1.7715752   -5.0733055    4736.1594            3 
   20700    1.8131945   -5.0557742    4747.8076            1 
   20800    1.7835101   -5.0812509    4766.5598            2 
   20900    1.7875845   -5.0625568    4749.6092            1 
   21000    1.8383812   -5.0589405    4747.8713            2 
   21100     1.790349      -5.1214    4773.9799            2 
   21200     1.773308   -5.0967146    4739.8543            2 
   21300    1.8154692   -5.1016643    4730.6669            2 
   21400     1.775384   -5.0489074    4763.7007            1 
   21500    1.7888289   -5.0270571    4784.2313            1 
   21600    1.7842432   -5.0663485    4746.3798            1 
   21700    1.8026595   -5.0921096    4750.6178            1 
   21800    1.7690302     -5.06699    4778.2089            1 
   21900    1.8383831   -5.0558579     4750.112            1 
   22000    1.7967657   -5.0703869     4739.524            1 
   22100    1.7709424   -5.1000714    4750.0253            2 
   22200    1.7918978   -5.0907824    4746.1291            2 
   22300    1.8374172   -5.0870703     4762.873            1 
   22400    1.7768071   -5.1135166    4765.1844            1 
   22500    1.7791769   -5.0733191    4743.2622            1 
   22600     1.806809   -4.9952137    4745.5012            1 
   22700    1.7809104   -5.0380353    4763.0488            1 
   22800    1.7755372   -5.1317538     4738.763            1 
   22900     1.808253   -5.0927293    4730.8126       -1e+20 
   23000    1.8062535   -5.0683347    4761.7333            1 
   23100    1.7763327   -5.0417612    4802.8451            1 
   23200    1.8146113   -5.0406065    4753.1333            2 
   23300    1.7837549   -5.0463201    4740.0911            3 
   23400    1.7638687    -5.034172    4774.0802            1 
   23500    1.8035025   -5.0508606    4769.6827            2 
   23600    1.7808079   -5.0274794    4746.5039            2 
   23700    1.7868477   -5.1203193    4746.6778            1 
   23800    1.7839459   -5.1174543    4759.4504            2 
   23900    1.8112725   -5.0813044    4767.9758            1 
   24000    1.7781422    -5.017234    4734.7728            1 
   24100    1.7956111   -5.0980415    4738.7581       -1e+20 
   24200    1.7664183   -5.0993599    4776.6459            1 
   24300      1.78168   -5.0176996    4751.4017            3 
   24400    1.8236852   -5.0458404    4765.1835            1 
   24500    1.7518306   -5.0631357     4787.298            1 
   24600    1.8309008   -5.0813378    4759.0418            1 
   24700    1.7752519   -5.0425964    4778.1228            1 
   24800    1.8041718   -5.0475692     4755.369            1 
   24900    1.8074442   -5.0749109    4753.4587            2 
   25000    1.7337158   -5.0844541    4762.1524            1 
   25100    1.8034149   -5.0690909    4744.1265            1 
   25200    1.8057834   -5.0363931     4729.762            1 
   25300    1.7357195   -5.0668061    4753.7845            1 
   25400    1.7712256   -5.0379659    4750.4255       -1e+20 
   25500     1.867535   -5.0969362    4757.8219            1 
   25600    1.7661405   -5.0400331    4797.3517            1 
   25700    1.7827529   -5.0890628    4744.4296            1 
   25800    1.8012927   -5.0435619    4749.1884            1 
   25900     1.782576    -5.036486    4777.4018            1 
   26000    1.7970118   -5.0572554    4778.0542            1 
   26100    1.7641478   -5.0488071    4713.8773            2 
   26200    1.7596693   -5.0859959    4745.8148            1 
   26300    1.7950513   -5.0585927    4756.8418            1 
   26400    1.8275766   -5.0527636    4783.4595            1 
   26500     1.821651   -5.0496991    4773.4794            1 
   26600    1.7909224   -5.1229835    4757.9842            3 
   26700    1.8074791   -5.0671973    4741.1223            2 
   26800    1.7768571   -5.0647998    4770.8381            1 
   26900    1.8029206   -5.0541796    4768.0389            2 
   27000    1.7909417   -5.0751233    4765.8393            3 
   27100    1.7735531   -5.1015728     4735.518            2 
   27200    1.8311363   -5.0653566    4731.2371            1 
   27300    1.7914179   -5.0734552    4772.2174            3 
   27400    1.7509586   -5.0678963    4755.9823            1 
   27500    1.8061915   -5.0559058    4738.9353            1 
   27600    1.7978951   -5.0768277    4766.1638            1 
   27700    1.7738946    -5.074858    4757.5353            1 
   27800    1.7871586    -5.089678    4734.5785            2 
   27900    1.7941897   -5.0396811    4747.8057       -1e+20 
   28000    1.7764243   -5.0416689    4781.4518            1 
   28100    1.8290715   -5.0877018     4775.212            1 
   28200    1.7934622    -5.062954    4739.9897            2 
   28300    1.7818132   -5.0588254    4783.2394            1 
   28400    1.7942412   -5.0530753    4785.2733            1 
   28500    1.7730927   -5.0281196    4765.7274            2 
   28600    1.8191078   -5.0279325      4768.04            2 
   28700    1.7903563    -5.076002    4739.9525            1 
   28800    1.7425545    -5.081752    4749.1255            1 
   28900    1.8156208   -5.0669084    4738.5002            1 
   29000    1.8002918    -5.032348    4747.2349            2 
   29100    1.7782102   -5.0832355    4768.6517            1 
   29200    1.7743827   -5.0896126    4754.3087            1 
   29300    1.8358954    -5.048579    4747.3633            1 
   29400    1.7705243   -5.0516982    4778.2908            1 
   29500    1.7680722   -5.0925506    4768.0059            2 
   29600     1.828209   -5.0698848    4736.0698            1 
   29700    1.7533433   -5.0662262    4739.5833            1 
   29800    1.8132541   -5.0947281    4728.9937            1 
   29900    1.7642615   -5.0923856    4751.7004            1 
   30000    1.7838327   -5.0646069    4770.3212            1 
   30100    1.8003442   -5.0167906    4754.9376            1 
   30200    1.7744214   -5.0614694    4783.4979            2 
   30300    1.7619309    -5.089045    4747.4945            3 
   30400     1.826613   -5.0746109    4717.4228            3 
   30500    1.7685757   -5.0883911    4757.0681       -1e+20 
   30600    1.8333768    -5.099469    4754.3369            1 
   30700    1.7943385   -5.0792267     4732.353            2 
   30800    1.7688407    -5.057244    4752.0094            1 
   30900    1.7904157   -5.0498302    4773.4641       -1e+20 
   31000    1.7665394   -5.0247475    4752.1481            3 
   31100    1.8014154   -5.1220062    4715.0535            1 
   31200    1.7568166   -5.0833191    4749.7509            1 
   31300    1.7874455    -5.043858     4767.457            1 
   31400    1.8244728   -5.0266282    4780.1224            1 
   31500    1.7841089     -5.03511    4821.8045       -1e+20 
   31600    1.8223062    -5.066041    4737.9288            1 
   31700    1.7986458   -5.0714979    4760.1121            1 
   31800    1.7714971   -5.0727954    4780.4269            1 
   31900    1.8406963     -5.04004    4764.2771            1 
   32000    1.7987207   -5.0381904     4764.759            1 
   32100    1.7769596   -5.0950643    4745.5082            1 
   32200    1.7820991   -5.0888123    4729.5795            1 
   32300     1.822764   -5.0599209    4760.4784            2 
   32400    1.8166476   -5.0186362    4787.8071            1 
   32500    1.7629508   -5.0139528    4783.6895            2 
   32600    1.8180757   -5.0478147    4758.6333            1 
   32700    1.7559507   -5.0249084    4762.1172            1 
   32800    1.8143667   -5.0381894    4749.1347            1 
   32900     1.753755    -5.030531    4763.3603       -1e+20 
   33000    1.7871928   -5.0544403    4759.6746            1 
   33100    1.8127986   -5.0686296    4753.0419            1 
   33200    1.8024887   -5.0380252    4791.9288            1 
   33300    1.8370004   -5.0393306    4788.2304            1 
   33400    1.7862983   -5.0385992    4752.3392            1 
   33500    1.7872641   -5.0926771    4766.8718            1 
   33600     1.815191    -5.046676    4766.6237            2 
   33700    1.7858982   -5.0573362    4763.9267            1 
   33800    1.8490245   -5.0765426    4757.2109            1 
   33900    1.7608686   -5.0057305    4799.7722            2 
   34000    1.7968893   -5.0318339     4772.986            1 
   34100    1.8231534   -5.0705469    4726.9498            1 
   34200    1.7655584   -5.0852181    4785.0201            2 
   34300    1.8029473    -5.072273    4744.7377            2 
   34400    1.7998616   -5.0511039    4762.9788            1 
   34500    1.7881171   -5.0424506    4775.5149            1 
   34600    1.7678878    -5.080821     4757.923            1 
   34700    1.8118228   -5.0427815    4742.8758            1 
   34800    1.7842911    -5.076747    4752.7602            2 
   34900    1.7576301   -5.1259464    4735.6707            1 
   35000    1.7873637   -5.0788383    4729.7235            1 
   35100    1.8128288   -5.0632272    4755.8566            1 
   35200    1.7955556   -5.0621376     4804.732            1 
   35300    1.7972975   -5.0243503    4764.2837            1 
   35400    1.8122628   -5.0974898    4736.2427            2 
   35500    1.7715516   -5.1231482    4738.0457            1 
   35600    1.7980173   -5.1018961    4759.9791            1 
   35700    1.7984476   -5.0400334    4746.8488            1 
   35800    1.7624416   -5.0534838    4749.5784            2 
   35900    1.7785987   -5.0826497    4757.5919            1 
   36000    1.7484765   -5.0063807    4777.5806       -1e+20 
   36100    1.8262417   -5.0263669    4773.8206            1 
   36200    1.7861686   -5.0317579     4757.891            3 
   36300     1.796678   -5.0480249    4778.3107            1 
   36400    1.7450279   -5.0462625    4777.2855            2 
   36500    1.8077184   -5.0177053    4754.2654            1 
   36600    1.7974882   -5.0620532    4777.5285            1 
   36700    1.7640512     -5.05323    4772.8266            2 
   36800    1.8308964   -5.0636304    4747.6135            1 
   36900    1.7909287   -5.0524237    4759.7873            1 
   37000    1.7866905    -5.045018    4790.9083            1 
   37100    1.8222965   -5.0583134    4758.1153            1 
   37200    1.7996082   -5.0788249    4748.3244            2 
   37300    1.8125821   -5.0324799    4772.4598            1 
   37400    1.7421781   -5.0175122    4800.7476            1 
   37500    1.8241206   -5.0287273    4729.8344            1 
   37600    1.7762962   -5.0453141    4759.4707            1 
   37700    1.7838095   -5.0566836    4769.5578            2 
   37800    1.7545923   -5.1076429    4729.8377            1 
   37900    1.7600767   -5.0937368    4720.0489            1 
   38000    1.8029116   -5.0725937    4733.4487            1 
   38100    1.7765909    -5.068528    4771.7639            2 
   38200    1.8160515   -5.0381779    4766.1333            1 
   38300    1.7982642   -5.0624853    4754.1661            2 
   38400    1.7967909   -5.0681679    4756.7879            1 
   38500    1.7385955   -5.0617222     4759.537            1 
   38600    1.8131595   -5.0474383     4746.899            1 
   38700     1.803678   -5.0634633    4757.9583            1 
   38800    1.7466915   -5.0673343    4764.1717            2 
   38900    1.8240475   -5.0741891    4756.5605            1 
   39000    1.7959954   -5.0339147    4754.9339            1 
   39100     1.770817   -5.0723881    4759.5854            1 
   39200    1.7603841   -5.0500906    4749.3672            1 
   39300    1.8153951   -5.0356579    4755.9867            1 
   39400     1.796139   -5.0753051    4775.4394            1 
   39500    1.7521801   -5.0745338    4728.9413            1 
   39600    1.7945336   -5.0886798    4732.6289            2 
   39700    1.7828998   -5.0668091    4762.4636            1 
   39800    1.8025484   -5.0385596    4777.4593            2 
   39900    1.7950052   -5.0825522    4757.7854            2 
   40000    1.7961909   -5.0487676    4756.0477            3 
   40100    1.7958415   -5.0804493    4777.6282            1 
   40200    1.7818518   -5.0779784    4745.4657            1 
   40300    1.7601962   -5.0416482    4747.6646            1 
   40400    1.7778022    -5.034536     4760.759            1 
   40500    1.8271695   -5.0504191    4774.4587            1 
   40600    1.7774293   -5.0730466    4756.8978       -1e+20 
   40700    1.7820878   -5.0586948      4761.78            1 
   40800    1.8223849   -5.0218814    4758.1033            1 
   40900    1.7667568   -5.0257194    4767.3849            1 
   41000    1.8301682    -5.065514    4778.2004            1 
   41100    1.7640661   -5.0838987    4772.2173            1 
   41200    1.7952318   -5.0704892    4749.8911            2 
   41300    1.8314415   -5.0100226    4740.3632            1 
   41400    1.7644944   -5.0421726    4765.9126            1 
   41500    1.7781415   -5.0912686    4760.3229            1 
   41600    1.7806462   -5.0126769    4760.8969            1 
   41700    1.8035229   -5.0660911    4757.0368            1 
   41800    1.7591024   -5.0845803    4743.7189            1 
   41900    1.8053338   -5.0871151     4744.419            1 
   42000    1.8045267   -5.0255424    4786.7736            2 
   42100    1.8031279    -5.030259     4760.208            2 
   42200    1.8126388   -5.0503751    4750.5449            5 
   42300    1.7455338   -5.0782725    4755.5055            1 
   42400    1.7732053   -5.0712966    4760.0531            1 
   42500    1.8167922   -5.0188058    4760.9364            1 
   42600    1.7749123   -5.0328913    4772.4199            1 
   42700     1.796353   -5.0575516    4755.4919       -1e+20 
   42800    1.7713557   -5.0514548    4764.3717            2 
   42900    1.7917879    -5.029451    4752.0297            2 
   43000    1.7720809   -5.0329383    4738.8834            2 
   43100    1.7344853   -5.0873843    4760.9001            4 
   43200    1.8014484   -5.0704592     4750.061            2 
   43300    1.8190254   -5.0543919    4770.5224            1 
   43400     1.770763   -5.0503709    4761.0036            1 
   43500    1.8285562   -5.0712131    4741.1438            1 
   43600    1.7772169     -5.09582    4725.4973            1 
   43700     1.775343   -5.0967782    4742.5823            1 
   43800    1.7939209   -5.0492779    4780.0682            1 
   43900    1.8100251   -5.0375085    4756.6728            1 
   44000    1.7912509   -5.0942209    4731.1371            1 
   44100    1.7716953   -5.0967955    4783.2985       -1e+20 
   44200    1.7945807   -5.0363976    4754.3972            1 
   44300    1.7825236   -5.0618014    4748.8759            1 
   44400    1.7597836   -5.0988365    4726.9847            1 
   44500    1.7652006   -5.0307141    4754.9255            1 
   44600    1.8028381   -5.0399882    4744.9707            1 
   44700    1.7460064   -5.1017514    4755.2587            2 
   44800    1.7780533   -5.1095138    4733.9028            1 
   44900    1.8082334    -5.068048    4759.9977            2 
   45000    1.7997696    -5.031621      4770.96            2 
   45100    1.7588015   -5.0566511    4780.0454            1 
   45200    1.8114518   -5.0701255    4752.8461            1 
   45300    1.7948894   -5.0395544    4751.9125            1 
   45400    1.7621816   -5.0480787    4736.6138            1 
   45500    1.7800268   -5.0224565    4772.1034            1 
   45600    1.8005142   -5.0350989    4772.2495            2 
   45700    1.7789216   -5.0352033    4745.4326            1 
   45800     1.764385    -5.100068    4749.0176            1 
   45900    1.7835521   -5.0790317    4766.5832            1 
   46000    1.8338274    -5.030022    4749.4845            1 
   46100    1.7959582   -5.0852722    4789.7274            2 
   46200    1.7958915   -5.1214537    4740.6581            2 
   46300    1.7952559   -5.1066014    4723.1818            1 
   46400    1.8370798   -5.0630294    4763.8323            2 
   46500    1.7964101   -5.0758042    4768.1216            1 
   46600    1.7535195    -5.086067    4745.9889            1 
   46700    1.7886601   -5.0408755    4728.5128            1 
   46800    1.7952465   -5.0612361    4746.0668            1 
   46900    1.7869796    -5.099498    4768.2351            2 
   47000    1.8054518   -5.0702488    4766.1053            2 
   47100    1.8179847   -5.0117969    4766.4734       -1e+20 
   47200    1.7615549     -5.02776    4781.6026            1 
   47300    1.8246648   -5.0735266    4766.2898            1 
   47400    1.8082583   -5.1234934    4746.1844            1 
   47500    1.7636422    -5.081042    4737.7606            1 
   47600    1.8079629    -5.048357     4752.496            1 
   47700    1.7894332   -5.0723805    4746.4676            1 
   47800     1.802963   -5.1014726    4763.8968            1 
   47900    1.7902732   -5.0498609    4767.0022            1 
   48000    1.8226114   -5.0511758    4761.7592            1 
   48100    1.7613133   -5.0717748     4768.046            1 
   48200    1.7924721   -5.0661174    4741.9391            1 
   48300    1.8042153    -5.052225    4752.4286            1 
   48400    1.7677309    -5.056722    4781.0015            1 
   48500    1.8381121   -5.0413882    4767.0936            1 
   48600    1.7755014   -5.0027396    4771.5976            2 
   48700    1.7931148   -5.1053466    4745.8238            1 
   48800    1.7511217   -5.0453176    4739.7808            1 
   48900    1.7860252   -5.0442946    4766.3171            1 
   49000    1.7823799   -5.0727344    4756.3903            2 
   49100      1.77707   -5.0629426    4722.4389            1 
   49200     1.822191   -5.0962585    4761.6557            1 
   49300    1.7680902    -5.076357    4786.2189            1 
   49400    1.8111914    -5.024206    4757.7193            1 
   49500    1.7635567   -5.0176553     4756.055            1 
   49600    1.7989261   -5.1002252    4749.1595            3 
   49700     1.770318   -5.0539707    4762.9773            2 
   49800    1.8293735    -5.076735    4774.0231            1 
   49900    1.7598127   -5.0501537    4756.8488            2 
   50000    1.7967991   -5.0601777    4757.1897       -1e+20 
   50100    1.7921853   -5.0862088    4741.3793            2 
   50200    1.7560655   -5.0646732    4736.2141            1 
   50300    1.7847039   -5.0457729    4777.7758            1 
   50400    1.7736452   -5.0547875    4747.7955            1 
   50500    1.7781717   -5.0732194    4758.1755            2 
   50600    1.7914104   -5.0659825    4757.7056            1 
   50700    1.7630178   -5.0585388    4730.6409            1 
   50800    1.7972706   -5.1148769    4739.4645            1 
   50900    1.7901516   -5.0520471    4772.1464            1 
   51000    1.7583946   -5.0377876    4753.8147            2 
   51100    1.8072614   -5.0851287    4734.4939            1 
   51200    1.8148865   -5.0224138    4772.0024            2 
   51300    1.7675317    -4.998498     4788.222            2 
   51400    1.7690596   -5.0198301    4750.9869            1 
   51500    1.8040759   -5.0687142    4750.9202            2 
   51600    1.7295616   -5.0107699    4786.4345            1 
   51700    1.8103978   -5.0148073    4757.9488            1 
   51800    1.7891801   -5.0470223    4756.3324            1 
   51900    1.8302022   -5.0502857    4789.4755       -1e+20 
   52000    1.7812928    -5.039744    4776.7499            2 
   52100    1.8161076   -5.0802554    4741.2091            1 
   52200    1.7983049   -5.0601967    4742.1221            1 
   52300    1.7781472   -5.0654998    4773.1975            1 
   52400    1.7678181   -5.0654594    4759.5973            1 
   52500     1.813368    -5.042479    4755.7012            1 
   52600    1.7809021   -5.0297597    4758.2796            1 
   52700     1.739042   -5.0666161     4764.285            2 
   52800    1.8006405   -5.0609524     4731.693            3 
   52900    1.8107623   -5.0776981    4738.5126            1 
   53000    1.7153082   -5.0610726    4763.4391            2 
   53100    1.8373456   -5.1161758    4747.7295            1 
   53200    1.7713172   -5.0923062    4747.4602            1 
   53300    1.7885648   -5.0383349    4774.8606            1 
   53400    1.7970957   -5.0440747     4761.395            1 
   53500    1.7651198   -5.0670428    4748.6027            1 
   53600    1.7789634   -5.0787034    4757.2344            2 
   53700     1.774546   -5.0377856    4730.0653            2 
   53800    1.7821761     -5.03323    4742.0301            1 
   53900    1.8057019   -5.0454035    4790.9831       -1e+20 
   54000    1.7769404   -5.0652979    4757.5068            1 
   54100    1.7866896   -5.0593604    4737.7928            1 
   54200    1.7680697   -5.1118249    4726.3384            3 
   54300    1.7933254   -5.0696883    4745.9698            1 
   54400    1.7739059   -5.0384455    4743.8093       -1e+20 
   54500    1.8343111   -5.0854544    4744.3863            2 
   54600    1.7528278   -5.0389238    4783.5155            1 
   54700    1.7640158   -5.0763054    4727.5332            2 
   54800    1.7773973   -5.0497505    4734.0901            1 
   54900    1.8040207   -5.0806629    4747.6449            1 
   55000    1.7933294   -5.1457145    4726.3851            1 
   55100    1.7688474   -5.1273469    4727.4759            1 
   55200    1.7772279   -5.0458209    4758.8969            1 
   55300    1.8271989   -5.0905669    4756.0395            2 
   55400    1.7472603   -5.0601008    4742.3342            1 
   55500    1.8195157   -5.0855492    4738.4248            1 
   55600    1.7913383   -5.0526374    4770.6374            1 
   55700    1.7478199   -5.0496168    4805.0949            1 
   55800    1.8299877   -5.0078555    4751.9801            1 
   55900     1.808456   -5.0639808    4764.0709            1 
   56000    1.7631666    -5.023208    4772.4933            1 
   56100    1.8061884   -5.0244677      4778.85            2 
   56200    1.7402773   -5.0038691    4740.1973            2 
   56300    1.8074469   -5.0802813    4773.7085            1 
   56400    1.7754611    -4.999105    4778.9198            1 
   56500    1.7742073   -5.0295883    4765.4034            1 
   56600    1.8132041   -5.0307539    4772.8533            1 
   56700    1.7862337   -5.0725885    4771.2448            1 
   56800    1.7946117    -5.093145    4761.8127            2 
   56900    1.8049097   -5.0221574    4769.1532            1 
   57000    1.7627968   -5.0017102    4764.6475            1 
   57100    1.8133589   -5.0670801    4756.3976            1 
   57200    1.7921287   -5.0215081    4792.6824            1 
   57300    1.7794271   -5.0630967    4772.5661            1 
   57400    1.8287979   -5.0974934    4739.1957            1 
   57500    1.8061497   -5.0585026    4777.4915            1 
   57600    1.7843474   -5.0559149    4763.6161            1 
   57700    1.7936963   -5.0570094    4769.4731            1 
   57800     1.814346   -5.0095254    4754.5926            1 
   57900     1.783572   -5.0571358    4764.7392            2 
   58000    1.7646609   -5.0718515    4781.1571            1 
   58100    1.8160048   -5.0370045    4739.1086            1 
   58200    1.7805211   -5.0442431    4747.6989            2 
   58300    1.7814164   -5.0723593    4767.3093            1 
   58400    1.7661735   -5.0348933    4743.9613            1 
   58500    1.7893698   -5.0332282    4757.3333            1 
   58600    1.7930658   -4.9798019    4799.3588            1 
   58700    1.8048548   -4.9961672    4798.3613            1 
   58800    1.7826032   -5.0002835    4765.6777            2 
   58900    1.7698062   -5.0240834    4750.8758            1 
   59000    1.8171885   -5.0691293    4770.7168            1 
   59100    1.7586212   -5.0870662    4789.0391            2 
   59200    1.8127379   -5.0889003    4724.8266            2 
   59300    1.7738502   -5.0377717    4754.2811            2 
   59400    1.7867439   -5.0898549    4776.2785            1 
   59500     1.798581   -5.0271638    4760.0934            1 
   59600    1.7793358   -4.9872422    4762.5197            1 
   59700     1.771514   -5.0439064    4762.9452            4 
   59800     1.779804   -5.0541607    4764.4322            1 
   59900    1.7918396   -5.0280602    4766.4472            1 
   60000    1.8047777   -5.0513665    4754.0874            1 
   60100    1.7599371   -5.0558409    4787.6005            2 
   60200    1.8192536   -5.0554626    4754.8181            1 
   60300    1.7900082   -5.0676223    4744.1092            1 
   60400    1.7552211   -5.0936994      4767.32            2 
   60500    1.8035913   -5.0487322    4748.5185            1 
   60600    1.8292282   -5.0357744    4782.3674            1 
   60700    1.7903528   -5.0626106    4769.0493            1 
   60800    1.7933607   -5.1058229    4735.5801            2 
   60900     1.810538   -5.0922679     4733.124            1 
   61000    1.7570539   -5.0548543    4788.2746            1 
   61100    1.8018068   -5.0205314    4777.5967            1 
   61200    1.7971891    -4.981998    4767.3942            1 
   61300    1.8000022   -5.0369437    4792.5209            2 
   61400    1.7840885   -5.0327051    4749.4383            1 
   61500     1.762532   -5.0377881    4740.4202            1 
   61600    1.7811894   -5.0079615    4788.7067            2 
   61700    1.8079388   -5.0041243    4765.1847            1 
   61800    1.7798759   -5.0347668    4769.4947            1 
   61900     1.780148     -5.03089    4769.5503       -1e+20 
   62000    1.8552493   -5.0617209    4777.2865            1 
   62100    1.7819237   -5.0785813    4779.1194            1 
   62200    1.8365678   -5.0567507    4758.3993            1 
   62300    1.7771191   -5.0200605    4775.1069       -1e+20 
   62400     1.830884   -5.0359605    4784.6936            1 
   62500    1.8120723   -5.1098815    4757.6583            1 
   62600    1.7712547    -5.086765    4745.8147            3 
   62700    1.8047937   -5.0276058    4759.1657            2 
   62800    1.8025227   -5.0552355    4751.5125            1 
   62900    1.7463471   -5.0653053    4753.5507            1 
   63000    1.8151524   -5.1126936    4748.0925            1 
   63100    1.7575863   -5.0577888    4744.3674            2 
   63200    1.7997362   -5.0314882    4765.8142            3 
   63300    1.8111659   -5.0397803    4771.9401            4 
   63400    1.7997863    -5.077621     4773.363            1 
   63500    1.7337273   -5.0354817    4751.0224            1 
   63600    1.8296602   -5.0797141    4743.2098            2 
   63700     1.777633   -5.1130713    4751.8801            1 
   63800    1.7623923   -5.0639867    4735.0986            1 
   63900    1.7960096   -5.0249422    4755.7819            1 
   64000    1.8002863   -5.0812064    4775.9543            2 
   64100    1.7652324   -5.0813081    4735.1074            1 
   64200    1.7945952   -5.0522359    4749.6851            1 
   64300    1.7762444   -5.0758213    4754.3075            2 
   64400    1.7769573   -5.0561305    4739.8232            1 
   64500    1.8346999   -5.0789224    4777.9648            1 
   64600    1.8098508   -5.0888762    4763.8602            2 
   64700    1.7725634   -5.0593644    4752.9004            1 
   64800    1.8430903   -5.0586299    4756.2077            1 
   64900    1.7642633   -5.0389702     4777.255            1 
   65000     1.806019   -5.0979825    4748.3149            1 
   65100    1.8050674   -5.0917199     4732.935            1 
   65200    1.7571434   -5.1015585    4750.1791            1 
   65300     1.771994   -5.0512168    4765.4841       -1e+20 
   65400    1.8348427   -5.0323939    4740.1871            1 
   65500    1.7647523   -5.0398185     4762.984            1 
   65600    1.7823439   -5.0703599    4750.1416            1 
   65700    1.8102395   -5.1298879    4727.2214            2 
   65800    1.7726533   -5.0879638    4754.9846       -1e+20 
   65900    1.8190036   -5.0615844    4746.7459            2 
   66000    1.7812936   -5.0675927    4757.5504            2 
   66100    1.8165013   -5.0572306    4780.4388       -1e+20 
   66200    1.8535039   -5.0451516    4783.9926            3 
   66300    1.8125833   -5.0930758    4762.8289            1 
   66400    1.7652314   -5.0502207    4754.9551            2 
   66500    1.7848902    -4.990755    4762.3578            1 
   66600    1.7859454   -5.0622595    4748.7819            1 
   66700     1.701738   -5.0606028    4748.4908            1 
   66800    1.8034575   -5.1000562    4731.4488            2 
   66900    1.7946868   -5.0735166    4746.7635            2 
   67000    1.8064977   -5.0775002    4780.6831            1 
   67100    1.7853106   -5.1138042      4734.42            1 
   67200    1.7777344   -5.0801274    4752.6067            1 
   67300    1.8107334   -5.0483086    4745.9156            1 
   67400    1.7675153   -5.0686477    4753.6082            1 
   67500    1.7459827   -5.0606823     4751.418            2 
   67600    1.8086367   -5.0485245    4744.7045            2 
   67700    1.8026736   -5.0469846    4760.7818            1 
   67800     1.750261   -5.0587431    4760.8039            1 
   67900    1.7778749   -5.0152242    4737.3549            1 
   68000    1.7871294   -4.9681448    4792.7894            1 
   68100    1.8067425   -4.9947725    4785.1136            1 
   68200    1.8050772   -5.0702297    4746.3206            2 
   68300    1.7864931   -5.0613051    4746.9696            1 
   68400    1.8212829   -5.0544642    4770.9949            1 
   68500    1.7606633   -5.0337973    4751.0691            1 
   68600    1.8061229   -5.0576459    4743.2916            2 
   68700     1.813278   -5.0669573    4779.4608            1 
   68800    1.7719124   -5.0196809     4775.765            1 
   68900    1.8010568   -5.0437083    4735.8153            1 
   69000    1.7339982   -5.0490358     4744.159            1 
   69100    1.8169406   -5.0804456    4753.0221            1 
   69200    1.7913024   -5.0160392    4778.5851            2 
   69300    1.8288867   -5.0234059    4783.9824            1 
   69400    1.7814553    -5.042552    4760.0677       -1e+20 
   69500    1.7778828   -5.0452426    4743.5801            2 
   69600     1.775805   -5.0619119    4745.2188            2 
   69700     1.817761   -5.1024171    4777.4689            1 
   69800    1.7570177   -5.0812765    4746.2556            2 
   69900    1.7971727    -5.057893    4744.3296            1 
   70000    1.7964682   -5.0224328    4780.5412       -1e+20 
   70100    1.7865384   -5.0419753    4768.3879            1 
   70200    1.8089712   -5.0652688    4758.6046            1 
   70300    1.7644778   -5.0929159    4746.8463            1 
   70400    1.8210897   -5.1169762    4768.8493            2 
   70500    1.7914787   -5.0940096    4733.7252            1 
   70600    1.8217349     -5.13908    4737.7114            2 
   70700    1.7516397   -5.0894073    4756.6618            2 
   70800    1.8203542   -5.0797939    4728.5182            1 
   70900    1.7798996    -5.040529    4771.1705            1 
   71000      1.83087   -5.1146803    4801.4784            1 
   71100    1.7976861   -5.0748424    4752.8572            1 
   71200    1.7964644    -5.068591    4753.4843            1 
   71300    1.8038807   -5.0898859    4734.5772            2 
   71400    1.7854473   -5.1024345    4746.4039            1 
   71500    1.7840542   -5.0618343    4748.1928            1 
   71600    1.8065843   -5.0588156    4756.9327            1 
   71700    1.7685844   -5.0718777    4761.2393            2 
   71800    1.7648383   -5.0835701    4736.1878            1 
   71900    1.7963734   -5.0566719    4735.9172            1 
   72000    1.7740499    -5.056157    4772.2298            1 
   72100    1.8253926   -5.0623987    4767.3458            3 
   72200    1.8025959   -5.0108313    4772.1238            2 
   72300    1.7955085   -5.0763231    4773.0821            1 
   72400    1.7679346   -5.0721479    4733.0839            1 
   72500    1.7761506    -5.042118    4766.1665            4 
   72600    1.7831932   -5.0684815    4756.8182            2 
   72700    1.8089608   -5.0927543    4733.3477            2 
   72800    1.7525721   -5.0769752    4766.2018            3 
   72900    1.8279454   -5.0813207     4736.247            2 
   73000    1.7730191    -5.069184    4754.1944            1 
   73100    1.7708364   -5.0579939    4768.7576            2 
   73200    1.8479479   -5.0566409    4752.3912            1 
   73300    1.7695272   -5.0634168    4764.4379            1 
   73400    1.7961107   -5.0718365    4775.6015            2 
   73500    1.7856203   -5.0818843     4747.859            2 
   73600    1.7911781   -5.0940857    4746.2238            1 
   73700    1.7596526    -5.002493      4785.18            1 
   73800    1.8235233    -5.046444    4749.6536            3 
   73900    1.7747772   -5.0422011    4766.4323            1 
   74000    1.8038077   -5.0494708    4766.6394            1 
   74100    1.7662597   -5.0456258    4734.2064            3 
   74200    1.8099237   -5.0675888     4742.834            2 
   74300    1.7410265   -5.0620854    4760.5371            1 
   74400    1.7927527   -5.0657231    4736.4503            1 
   74500    1.8026573    -5.044374    4744.3097            3 
   74600    1.7404851   -5.0308129    4791.4289            1 
   74700    1.8346853   -5.0700724    4736.3124            1 
   74800    1.7527538   -5.0550474    4743.9909            1 
   74900    1.7819855   -5.0782363    4766.9939            1 
   75000    1.8355121   -5.0837349    4756.1353            2 
   75100     1.760441   -5.0646738    4738.3086            2 
   75200    1.7730636   -5.0968538    4750.9951            1 
   75300    1.8164501   -5.0808698    4755.7466            1 
   75400    1.8134086   -5.0202799    4762.4445            1 
   75500    1.7706724   -5.0878362    4774.6958            2 
   75600    1.7925248   -5.0965463    4764.3051            2 
   75700    1.8066021   -5.0263965    4760.0617            1 
   75800    1.8035711   -5.0345107    4790.4878       -1e+20 
   75900    1.7946094   -5.0562101    4800.7369            1 
   76000    1.7671267   -5.0312373    4751.1271            1 
   76100    1.7987423   -5.0693587    4732.1785            1 
   76200    1.7796598   -5.0888003    4758.5814            1 
   76300    1.7951049    -5.075058    4756.3677            1 
   76400    1.8006222   -4.9974618    4753.1646            1 
   76500    1.7544808   -5.0361428    4765.4877            1 
   76600    1.7930805   -5.0795195     4763.223            1 
   76700    1.7587436   -5.0776964    4734.7521            1 
   76800    1.7637282   -5.0977147    4693.2738            2 
   76900    1.7992136   -5.1068838    4766.0519            1 
   77000    1.8086968   -5.0835667    4752.8757            1 
   77100    1.7970358   -5.0791677    4741.9994            1 
   77200    1.7520863   -5.0781819    4759.7533            1 
   77300    1.8159293   -5.0521636    4740.6466            1 
   77400    1.7682128   -5.0791267    4763.8156       -1e+20 
   77500    1.8054756   -5.0221809    4776.9287            1 
   77600    1.8004957    -5.022856    4747.1938            3 
   77700    1.7664185   -5.0739685    4752.1291            1 
   77800    1.7934008   -5.0761813    4759.0498            2 
   77900    1.8168518   -5.0456397    4777.7398            1 
   78000    1.8008874   -5.0604711     4777.283       -1e+20 
   78100    1.8171598    -5.019022    4755.8364            1 
   78200    1.7795034   -5.0910961       4760.1            1 
   78300    1.7870112   -5.0982436    4746.8582            1 
   78400    1.7837943   -5.0792899    4724.0511            1 
   78500     1.818772   -5.0837311    4762.8257            1 
   78600    1.7579745   -5.0616177    4766.3764            1 
   78700    1.8099075   -5.0775668    4737.3777            1 
   78800    1.8075025   -5.0214736      4767.13            2 
   78900    1.7780002   -5.0634221    4767.5353            1 
   79000    1.7855077   -5.0538912    4745.4696            1 
   79100    1.7887754    -5.041691    4745.6784            1 
   79200    1.7817829   -5.0708623    4753.2437            1 
   79300    1.7804525   -5.0842047    4746.8714            1 
   79400    1.8264297   -5.0686053    4758.4112            2 
   79500    1.7968975   -5.1132226    4767.3503            2 
   79600    1.7905921   -5.0903136    4738.7114            1 
   79700    1.7853449   -5.0469457    4758.4317            2 
   79800    1.7978646   -5.0429784    4758.0272            1 
   79900    1.7614339   -5.0686936    4750.8548            3 
   80000    1.7998814    -5.038645    4746.7732            1 
   80100    1.7749806   -5.0436014    4759.4452            1 
   80200    1.7454166   -5.0294198    4793.1726            1 
   80300    1.8491385   -5.0608815    4727.2786            1 
   80400    1.7860555   -5.0852744    4751.5107            2 
   80500    1.7787131   -5.0813274    4789.9972            1 
   80600    1.8059572   -5.0111423    4774.7061            1 
   80700    1.8005389   -5.0514811     4739.393            2 
   80800    1.7595545   -5.0422882    4771.4733            1 
   80900     1.804372   -5.0474696    4765.1762            1 
   81000    1.7760408   -5.0364984    4766.5501            2 
   81100    1.7866416    -5.041043    4757.2312            1 
   81200    1.8197108   -5.0396088    4744.5373            1 
   81300    1.7684012   -5.0580116    4788.7688            1 
   81400    1.8044108    -5.038372    4748.6718            1 
   81500    1.7944948   -5.0748535    4724.1141            1 
   81600    1.7739808   -5.0537967    4770.7161            1 
   81700    1.7858051   -5.0439519     4779.518            1 
   81800    1.7760077   -5.0889331    4743.2175       -1e+20 
   81900     1.782862   -5.0852043    4745.8214            1 
   82000    1.8058873   -5.0672383    4745.1137            1 
   82100    1.7656195   -5.1026917    4753.5977            1 
   82200    1.7790061   -5.0324396    4747.3828            1 
   82300    1.8181999   -5.0428529    4743.7452            1 
   82400    1.7675008   -5.0829588    4782.3213            2 
   82500    1.7859536   -5.0770581    4744.1088            3 
   82600    1.8039218   -5.0373283    4744.2828            1 
   82700    1.7724318   -5.0749204    4761.1295            1 
   82800    1.7710022   -5.0361285    4764.1119            2 
   82900    1.8141253   -5.0488122    4760.3042            2 
   83000    1.7700328   -5.0624823    4780.0792            1 
   83100    1.7749029   -5.0290798    4734.6718            1 
   83200    1.7846975   -5.0344666     4742.988            2 
   83300    1.7865565   -5.0666649    4793.7293            1 
   83400    1.8157558   -5.0129468    4785.7129            1 
   83500    1.8020828    -5.074097     4740.115            2 
   83600    1.7438613   -5.0530995    4769.8894            1 
   83700    1.8418348    -5.103192    4767.0096            1 
   83800    1.7692427   -5.0568447    4756.9877            1 
   83900    1.8029832   -5.0295898    4763.8917            1 
   84000    1.7646873   -5.0234385    4763.7687            1 
   84100    1.8007153    -5.089279    4755.0931            2 
   84200    1.8106146   -5.0303368    4775.6293            1 
   84300    1.7973197   -5.0435473    4777.9587            2 
   84400     1.800864   -5.0395003    4758.8123            2 
   84500    1.7644641   -5.0740361    4756.1587            1 
   84600    1.8034392   -5.0711152    4761.6008            2 
   84700    1.8010404   -5.0321405    4740.3954            3 
   84800    1.7447146   -5.0494277    4753.8047            1 
   84900    1.8120854   -5.0771825    4754.5608            2 
   85000    1.7623575   -5.0843957    4755.7093            1 
   85100    1.8301272   -5.1014646    4743.9374            1 
   85200    1.8078786   -5.1012976    4771.1329            1 
   85300    1.7932025   -5.0401439    4783.3178            2 
   85400    1.7857089   -5.0397529    4731.6728            1 
   85500    1.7711648   -5.0954809    4761.7247            1 
   85600    1.7862225   -5.0708934    4765.5549            2 
   85700    1.8164975   -5.0470951    4750.5633            1 
   85800    1.7617226    -5.068134    4769.6063            1 
   85900    1.7881388   -5.0708101    4742.8122            2 
   86000    1.8022836   -5.0379378    4734.2842            1 
   86100    1.7473919   -5.0190687     4777.601       -1e+20 
   86200    1.8085961   -5.0204289    4763.0176            1 
   86300    1.8014616   -5.0459822    4742.8984       -1e+20 
   86400    1.7293711   -5.0697142    4757.4709            2 
   86500    1.7988906   -5.0988932    4736.1603            1 
   86600    1.7777757   -5.0399937    4757.1823            1 
   86700     1.777655   -5.0338553    4746.1807            1 
   86800     1.775821    -5.070736    4736.2629            1 
   86900    1.8078601    -5.073904    4749.3133            1 
   87000    1.7989567   -5.0281394    4778.5187            2 
   87100    1.8086573   -5.0475498     4768.097            1 
   87200    1.7687329    -5.047771    4756.0144            1 
   87300    1.8109853   -5.0467062    4779.9483            1 
   87400    1.7752309   -5.0250404    4780.8769            3 
   87500    1.7748043   -5.0161848    4759.3632            1 
   87600    1.8120952   -5.0605555    4731.1702            1 
   87700    1.7743739   -5.0910531    4779.8635            1 
   87800    1.7706277   -5.0413299    4773.6901            1 
   87900     1.779854   -5.0189935    4744.0075            1 
   88000    1.7767884   -5.0648871    4754.4514            1 
   88100    1.7980542   -5.1215979    4738.6718            1 
   88200    1.8009112   -5.1111164    4766.4587            2 
   88300    1.7965786   -5.0600747    4773.4174       -1e+20 
   88400    1.7914551   -5.0673087    4751.5762            2 
   88500    1.7645286   -5.0839879    4741.5856            1 
   88600    1.8099988   -5.0703461     4742.993            2 
   88700    1.7862987   -5.0821727    4763.0185            2 
   88800    1.7751083   -5.0009069    4790.7144            1 
   88900     1.815611   -5.0047074    4770.4212            1 
   89000     1.779653   -5.0388634     4766.313            3 
   89100    1.7816061   -5.0810846    4758.9909            1 
   89200    1.8451913    -5.050838    4732.2291            1 
   89300    1.7777922    -5.083641    4768.6992            1 
   89400    1.7702708   -5.0404789    4767.6935            1 
   89500    1.8168215   -5.0741065    4768.0876            1 
   89600    1.7713776   -5.0925941    4744.0171            1 
   89700    1.7737819   -5.0764489    4748.0944            1 
   89800    1.8048097   -5.1088027    4734.4367            1 
   89900    1.7950392   -5.0675541    4742.1456            2 
   90000    1.7900262   -5.0924408    4764.3671            1 
   90100    1.8356394   -5.0761675    4761.2853            1 
   90200     1.796982   -5.0646385    4741.8764            1 
   90300    1.7637447   -5.0505002    4744.3234            2 
   90400    1.8051308   -5.0291923    4798.7549            1 
   90500    1.8087295   -5.0420222      4757.03            2 
   90600    1.7865574   -5.0490888     4768.656            1 
   90700     1.791366   -5.0540655    4755.3078            1 
   90800     1.790995   -5.0741641    4746.9704            1 
   90900    1.7950053   -5.0895838    4748.6345            2 
   91000    1.8075783   -5.0652226    4779.7912            1 
   91100    1.8171089   -5.0785705     4757.865            4 
   91200     1.778713   -5.0724454    4767.6192            1 
   91300    1.8147359   -5.0242795    4751.0973            1 
   91400    1.7971881    -5.073489    4752.7218            1 
   91500    1.7860605   -5.0380429    4755.4253            1 
   91600    1.7574181   -5.0399594    4769.3541            1 
   91700    1.8047926   -5.0533175    4752.5869            1 
   91800    1.8011864    -5.085178    4736.2593            1 
   91900    1.7529757   -5.0928298    4747.1454            1 
   92000    1.8047997   -5.0741978     4746.633            2 
   92100     1.819775   -5.0932278    4754.5077            1 
   92200    1.7905216   -5.0755518    4776.0577            1 
   92300    1.8075662   -5.0344313    4775.8805            1 
   92400    1.8132147   -5.0497464    4766.1178            1 
   92500    1.7861125   -5.0927633    4733.2009            1 
   92600    1.8074354   -5.1024317    4756.0317            2 
   92700    1.7985085   -5.0901225    4744.0536            1 
   92800     1.779036   -5.0590575    4717.8495            1 
   92900    1.7969244   -5.0704183    4742.1313            1 
   93000    1.7576276   -5.0350897    4781.0552            1 
   93100    1.8385536    -5.031873      4754.21            2 
   93200    1.8010149   -5.0332183    4766.1528            1 
   93300    1.7759187   -5.0685712    4763.3691            2 
   93400    1.8097966   -5.0671676    4757.1598            1 
   93500    1.8021435   -5.0074059    4792.7396       -1e+20 
   93600    1.8275606   -5.0298931    4792.0206            1 
   93700    1.7914851   -5.0552742    4767.1515            1 
   93800    1.7835522    -5.088165    4726.2222            1 
   93900    1.7572739   -5.0649128    4726.7657            1 
   94000    1.7855851   -5.0679802    4778.9817            1 
   94100    1.8129634   -5.0621252    4778.8541            1 
   94200    1.7752566   -5.0709019    4741.7634            1 
   94300    1.7809319     -5.03499     4766.827            2 
   94400     1.816516   -5.0267073     4775.997            1 
   94500    1.7915163   -5.0596111    4752.5444            1 
   94600     1.783638   -5.0519993    4793.6748            1 
   94700     1.790107   -4.9949143    4790.8637            1 
   94800    1.7986498   -5.0186124    4731.4799            2 
   94900    1.7858329    -5.045431    4778.6438            1 
   95000    1.7938326   -5.0796488    4781.0684            1 
   95100    1.8227694   -5.0869768    4730.3491            2 
   95200    1.7712317   -5.0838341    4732.7674            2 
   95300    1.7546319   -5.0748493    4787.8555            1 
   95400    1.8176215   -5.0497275    4752.2395            1 
   95500    1.7748672   -5.0372495    4751.1634            1 
   95600    1.7744112   -5.0512706    4777.5799            1 
   95700    1.8089126   -5.0473947    4781.7672            1 
   95800    1.8086855   -5.0272199    4756.4898            1 
   95900    1.8200424   -5.1343668     4748.912            1 
   96000    1.7454067   -5.1033229    4767.9874            1 
   96100    1.8156218   -5.0511485    4746.5231            1 
   96200    1.7940008   -5.0928143    4750.4131            1 
   96300    1.7987565   -5.0573641    4768.8962            2 
   96400    1.7897661   -5.0397654     4750.302            2 
   96500    1.7948699   -5.0727425    4756.2093            1 
   96600    1.7886985   -5.0744984    4742.5473            1 
   96700    1.7741145   -5.0789965    4751.8378            2 
   96800    1.7902969   -5.0584371    4771.9284            2 
   96900    1.7707327    -5.032201    4754.6609            2 
   97000     1.774716   -5.0618416    4730.2205            2 
   97100    1.7889005   -5.0374709    4756.0385            1 
   97200    1.7718746   -5.0741771    4756.5093            1 
   97300    1.8160727   -5.0664517    4738.1688            1 
   97400     1.781937    -5.090543    4752.9237            1 
   97500    1.7260159   -5.0888277    4736.5668            1 
   97600    1.7929829   -5.0393593    4722.0858            1 
   97700     1.748781   -5.0625323    4761.2746            1 
   97800    1.8278683   -5.0847246      4767.56            1 
   97900    1.7596696   -5.0521602    4746.1224            1 
   98000    1.8222074   -5.0677302    4740.5677            1 
   98100    1.7414887   -5.0620915    4751.4609            2 
   98200     1.817786   -5.0769103    4766.6318            2 
   98300    1.8024475   -5.1089173    4748.8883            1 
   98400    1.7214628   -5.0662405    4731.1902            2 
   98500    1.7733075   -5.0269109    4746.9839            1 
   98600    1.7927361   -5.0197201    4779.1283            1 
   98700    1.8032826   -5.0369177    4765.9865            1 
   98800     1.766779   -5.0428738    4748.2046            1 
   98900    1.8451659    -5.077068     4758.351            1 
   99000    1.7740889   -5.0531215    4786.0913            1 
   99100    1.7876494   -5.1026349    4731.2154            1 
   99200     1.793488   -5.0975847     4739.389            2 
   99300    1.7702967    -5.053007    4781.0523            2 
   99400    1.8172183    -5.065426    4741.5566            2 
   99500    1.7679957   -5.0431187    4756.1283            1 
   99600    1.7961794   -5.0454327    4776.8323            1 
   99700    1.7971968    -4.989253    4789.3134            1 
   99800    1.7943714   -5.0343978    4747.2203            1 
   99900    1.7892537   -5.0595155     4781.068            2 
  100000    1.7964872   -5.0619823    4765.1589            1 
  100100    1.7730205   -5.0593522    4738.3454            1 
  100200    1.8039822   -5.0817598    4753.2212            2 
  100300    1.7942623   -5.0507236    4770.8352            1 
  100400    1.8062459   -5.0433193    4776.1598            1 
  100500    1.7933955    -5.066734    4749.6663            1 
  100600    1.8129068   -5.0990229    4761.2998            1 
  100700    1.7814944   -4.9944565    4780.2351            1 
  100800    1.8289051   -4.9907602    4767.8826            1 
  100900    1.7723529   -5.0535048    4773.4346            1 
  101000     1.773908   -5.0877666    4741.4952            1 
  101100    1.8007269   -5.0701311    4732.9424            3 
  101200    1.7681447   -5.0511287      4768.03            3 
  101300    1.8065816   -5.0313109    4778.1866            4 
  101400    1.7740204   -5.0621897    4744.9174            1 
  101500    1.7710586   -5.0592783    4771.6027            2 
  101600    1.7926499   -5.0376588     4744.555            1 
  101700    1.7962948   -5.0673464    4748.6805       -1e+20 
  101800    1.7780889   -5.1066567    4772.3875            1 
  101900    1.8223052     -5.05387    4745.1172            1 
  102000    1.8087996   -5.0947177    4750.0858            2 
  102100    1.7898756   -5.1070386    4737.6138            1 
  102200     1.784562    -5.097153    4742.9732            1 
  102300    1.7683327   -5.0305135    4767.4542            1 
  102400    1.7938462    -5.002094     4783.028            2 
  102500    1.8012124   -5.0454705    4764.4997            2 
  102600    1.7687694   -5.0662383    4763.3801            1 
  102700    1.8171936   -5.0248975    4749.5828       -1e+20 
  102800    1.7717696   -5.0329109    4769.1476            1 
  102900    1.7705882   -5.0539742    4786.7199            1 
  103000    1.7985289   -5.0290349    4723.1458            2 
  103100    1.7890494    -5.068793    4747.5857            1 
  103200    1.7818438   -5.0391967    4774.0445            1 
  103300    1.7976194    -5.044939    4749.6047            1 
  103400    1.8224917   -5.0922359    4767.0333            2 
  103500    1.7817986   -5.0693151    4778.7404            1 
  103600    1.8075888   -5.0842007    4743.9884       -1e+20 
  103700    1.7704553   -5.0453477    4748.8758       -1e+20 
  103800     1.823995   -5.0918356    4764.6908            1 
  103900     1.747446   -5.0638796    4751.6643            2 
  104000    1.7985065   -5.0493751    4739.2228            1 
Loop time of 161.974 on 24 procs for 100000 steps with 4000 atoms

Performance: 106683.705 tau/day, 617.383 timesteps/s
99.7% CPU use with 24 MPI tasks x no OpenMP threads

MPI task timing breakdown:
Section |  min time  |  avg time  |  max time  |%varavg| %total
---------------------------------------------------------------
Pair    | 17.772     | 18.15      | 18.842     |   6.1 | 11.21
Neigh   | 3.2539     | 3.2835     | 3.3393     |   1.2 |  2.03
Comm    | 8.7934     | 9.9306     | 11.03      |  23.8 |  6.13
Output  | 3.9664     | 3.9672     | 3.9791     |   0.1 |  2.45
Modify  | 123.64     | 125.11     | 126.48     |   9.7 | 77.24
Other   |            | 1.531      |            |       |  0.95

Nlocal:        166.667 ave         176 max         158 min
Histogram: 1 1 3 5 3 2 5 2 1 1
Nghost:        1935.46 ave        1948 max        1914 min
Histogram: 1 1 1 0 2 6 3 4 2 4
Neighs:        16054.5 ave       17402 max       14919 min
Histogram: 1 0 4 6 4 4 1 3 0 1
FullNghs:      32110.6 ave       34543 max       29945 min
Histogram: 1 0 4 5 3 6 2 1 1 1

Total # of neighbors = 770654
Ave neighs/atom = 192.66350
Neighbor list builds = 7919
Dangerous builds = 82

#clear
#
#next RN
#
#jump SELF
Total wall time: 0:02:43
