
units lj                  # Use reduced LJ style units
atom_style atomic         # Uncharged point particles
atom_modify map hash      # Needed for indexing of clusters etc
                          # Used to be able to find where atoms are in relation to each other.

# Define a lattice with which to populate the simulation cell. With units
# set to 'lj' the second argument to the lattice command is the reduced
# density rho* and the spacings are multiples of that required to acheive
# that density. Also define a simulation cell called 'box' in lattice units
# and fill it with atoms. Here we're creating a box which is ten lattice
# constants in each direction.
lattice fcc 1.0 spacing 1 1 1                 # All equal sizes - gives the right reduced density.
Lattice spacing in x,y,z = 1.5874011 1.5874011 1.5874011

region box block 0 10 0 10 0 10 units lattice # Defines a region, "box", in lattice units
create_box 1 box                              # Creates a simulation box as specified above,
Created orthogonal box = (0.0000000 0.0000000 0.0000000) to (15.874011 15.874011 15.874011)
  3 by 4 by 4 MPI processor grid
                                              # with one type of atom
create_atoms 1 box                            # Creates particles on lattice points
Created 4000 atoms
  using lattice units in orthogonal box = (0.0000000 0.0000000 0.0000000) to (15.874011 15.874011 15.874011)
  create_atoms CPU = 0.036 seconds


# Set the mass of the first (and only) atom type.
mass 1 1.0

# Lennard-Jones interactions between particles, 3.5 sigma cut-off. Apply
# long range tail corrections to energy and pressure and set all coefficients
# to unity since we work in reduced units here. Note that this doesn't shift
# the potential such that it goes to zero at the cutoff. That would require
# pair_modify('shift', 'yes').
pair_style lj/cut  3.5      # non-GPU version
pair_modify tail  yes
pair_coeff 1  1  1.0  1.0   # Intearaction between 1 and 1 set with epsilon = 1 and sigma = 1

write_data data.*
System init for write_data ...
Neighbor list info ...
  update every 1 steps, delay 10 steps, check yes
  max neighbors/atom: 2000, page size: 100000
  master list distance cutoff = 3.8
  ghost atom cutoff = 3.8
  binsize = 1.9, bins = 9 9 9
  1 neighbor lists, perpetual/occasional/extra = 1 0 0
  (1) pair lj/cut, perpetual
      attributes: half, newton on
      pair build: half/bin/atomonly/newton
      stencil: half/bin/3d
      bin: standard

#############################
#   M E L T   S Y S T E M   #
#############################

velocity all create 2.4 5300450 mom yes dist gaussian # Assign velocities
                                                    # Temperature 2.4, random number seed, zero linear momentum
						                                                        # Gaussian distribution

timestep 0.002   # simulation timestep
thermo 1000       # output thermodynamic data every 1000 steps

# Define a fix  in this case with index 1 applied to all
# particles in the simulation. This fix is for simulations
# in the anisotropic NPT ensemble. Note that we use the MTK
# correction.
fix 1 all npt temp 2.4 2.4 0.1 iso 5.68 5.68 0.5 mtk yes tchain 5 pchain 5 # Use NPT ensemble
                                                                         # Set temperature and pressure and damping
                                                                         # Numbers of thermostats in chain and in barostat
run 1000         # run for 10000 steps
Per MPI rank memory allocation (min/avg/max) = 3.642 | 3.644 | 3.648 Mbytes
Step Temp E_pair E_mol TotEng Press Volume 
       0          2.4   -8.3859253            0   -4.7868253   -2.2405722         4000 
    1000    2.3640359   -4.4632256            0  -0.91805834    5.6198419    5168.0104 
Loop time of 0.222711 on 48 procs for 1000 steps with 4000 atoms

Performance: 775894.723 tau/day, 4490.132 timesteps/s
99.4% CPU use with 48 MPI tasks x no OpenMP threads

MPI task timing breakdown:
Section |  min time  |  avg time  |  max time  |%varavg| %total
---------------------------------------------------------------
Pair    | 0.094223   | 0.10075    | 0.12117    |   1.4 | 45.24
Neigh   | 0.017745   | 0.018864   | 0.022905   |   0.6 |  8.47
Comm    | 0.057024   | 0.077699   | 0.086609   |   2.0 | 34.89
Output  | 2.5437e-05 | 2.611e-05  | 3.295e-05  |   0.0 |  0.01
Modify  | 0.018078   | 0.023748   | 0.030426   |   2.7 | 10.66
Other   |            | 0.001626   |            |       |  0.73

Nlocal:        83.3333 ave          91 max          76 min
Histogram: 2 3 4 4 15 2 8 5 4 1
Nghost:        1389.19 ave        1410 max        1367 min
Histogram: 4 3 1 5 6 7 12 6 3 1
Neighs:        7364.42 ave        8189 max        6588 min
Histogram: 7 3 3 4 8 6 5 5 4 3

Total # of neighbors = 353492
Ave neighs/atom = 88.373000
Neighbor list builds = 87
Dangerous builds = 23

# Equilibrate just above the melting temperature to avoid step fn in T

fix 1 all npt temp 1.25 1.25 0.1 iso 5.68 5.68 0.5 mtk yes tchain 5 pchain 5
run 1000
Per MPI rank memory allocation (min/avg/max) = 3.642 | 3.644 | 3.648 Mbytes
Step Temp E_pair E_mol TotEng Press Volume 
    1000    2.3640359   -4.4632256            0  -0.91805834    5.6198419    5168.0104 
    2000    1.2426751   -5.8285934            0   -3.9650468    5.7973576    4337.8193 
Loop time of 0.213618 on 48 procs for 1000 steps with 4000 atoms

Performance: 808921.958 tau/day, 4681.261 timesteps/s
99.6% CPU use with 48 MPI tasks x no OpenMP threads

MPI task timing breakdown:
Section |  min time  |  avg time  |  max time  |%varavg| %total
---------------------------------------------------------------
Pair    | 0.0943     | 0.10005    | 0.11227    |   1.2 | 46.84
Neigh   | 0.015438   | 0.016349   | 0.018623   |   0.4 |  7.65
Comm    | 0.059514   | 0.072926   | 0.081339   |   1.8 | 34.14
Output  | 2.3442e-05 | 2.4367e-05 | 3.0631e-05 |   0.0 |  0.01
Modify  | 0.018872   | 0.022303   | 0.027912   |   1.7 | 10.44
Other   |            | 0.00196    |            |       |  0.92

Nlocal:        83.3333 ave          90 max          78 min
Histogram: 3 3 6 9 6 12 4 1 0 4
Nghost:        1552.52 ave        1571 max        1535 min
Histogram: 1 2 7 6 9 9 7 4 2 1
Neighs:        8765.15 ave        9711 max        8085 min
Histogram: 3 2 10 10 8 7 2 3 2 1

Total # of neighbors = 420727
Ave neighs/atom = 105.18175
Neighbor list builds = 75
Dangerous builds = 5


# Small amount of linear quench

fix 1 all npt temp 1.25 ${temp} 0.1 iso 5.68 5.68 0.5 mtk yes tchain 5 pchain 5
fix 1 all npt temp 1.25 2 0.1 iso 5.68 5.68 0.5 mtk yes tchain 5 pchain 5
run 2000
Per MPI rank memory allocation (min/avg/max) = 3.643 | 3.645 | 3.648 Mbytes
Step Temp E_pair E_mol TotEng Press Volume 
    2000    1.2426751   -5.8285934            0   -3.9650468    5.7973576    4337.8193 
    3000    1.5820614   -5.3669811            0   -2.9944823    5.7170703    4573.9693 
    4000    1.9643383    -4.825715            0   -1.8799442    5.6365466    4902.9392 
Loop time of 0.432729 on 48 procs for 2000 steps with 4000 atoms

Performance: 798652.526 tau/day, 4621.832 timesteps/s
99.6% CPU use with 48 MPI tasks x no OpenMP threads

MPI task timing breakdown:
Section |  min time  |  avg time  |  max time  |%varavg| %total
---------------------------------------------------------------
Pair    | 0.18893    | 0.19967    | 0.23014    |   1.4 | 46.14
Neigh   | 0.031562   | 0.032592   | 0.038232   |   0.6 |  7.53
Comm    | 0.1166     | 0.14983    | 0.16127    |   2.0 | 34.62
Output  | 4.7267e-05 | 4.8707e-05 | 6.2583e-05 |   0.0 |  0.01
Modify  | 0.039559   | 0.046557   | 0.055846   |   2.3 | 10.76
Other   |            | 0.004031   |            |       |  0.93

Nlocal:        83.3333 ave          90 max          77 min
Histogram: 7 2 4 7 3 8 8 2 2 5
Nghost:        1432.77 ave        1448 max        1411 min
Histogram: 3 1 0 4 9 8 4 9 6 4
Neighs:        7757.79 ave        8584 max        7157 min
Histogram: 5 6 8 4 8 7 1 3 4 2

Total # of neighbors = 372374
Ave neighs/atom = 93.093500
Neighbor list builds = 148
Dangerous builds = 0

#############################
# F R E E Z E  S Y S T E M  #
#############################

# Define solid atoms. This closely follows ten Wolde  Ruiz-Montero and Frenkel  Faraday Discuss  1996  104  93-110
# Compute components of the per-atom q6 vector
compute q6 all orientorder/atom degrees 1 6 components 6 nnn NULL cutoff 1.3 # compute the Q6 parameter.
                                                                             # Use all neighbours within 1.3 unit cell.

# get number of connections
compute coord_number all coord/atom orientorder q6 0.5

# An atom is solid if it has 8 or more connections (of a possible 14)
variable is_solid atom c_coord_number>=8
group solid dynamic all var is_solid    # Must be dynamic to update
dynamic group solid defined

# do clustering
compute cluster solid cluster/atom 1.3 # Create a cluster where all atoms within are solid and max 1.3 units from another member

# define chunks one chunk per cluster
compute clus_chunks solid chunk/atom c_cluster nchunk every compress yes  # Says which atoms are in which chunk

# count the size of each chunk
compute size_chunks solid property/chunk clus_chunks count


# Find the maximum entry in the vector of chunk sizes
variable max_n equal max(c_size_chunks)


# Thermo style which includes this variable
thermo_style custom step temp pe vol v_max_n

thermo ${N}  # Print the thermo information every 100 steps
thermo 1000  

# Reset the npt fix at a lower temperature (below freezing)
fix 1  all npt temp  ${temp} ${temp}  0.1  iso  5.68  5.68  0.5  mtk yes tchain  5  pchain  5
fix 1  all npt temp  2 ${temp}  0.1  iso  5.68  5.68  0.5  mtk yes tchain  5  pchain  5
fix 1  all npt temp  2 2  0.1  iso  5.68  5.68  0.5  mtk yes tchain  5  pchain  5

dump dmp2 all dcd ${N} traj_${rand}.dcd
dump dmp2 all dcd 1000 traj_${rand}.dcd
dump dmp2 all dcd 1000 traj_462431.dcd


# fix rnuntil all halt ${N} v_max_n >= 3980 error soft message no   # Stop when solidified


run 1000000 # 5000000  # Run for this many steps
Neighbor list info ...
  update every 1 steps, delay 10 steps, check yes
  max neighbors/atom: 2000, page size: 100000
  master list distance cutoff = 3.8
  ghost atom cutoff = 3.8
  binsize = 1.9, bins = 9 9 9
  4 neighbor lists, perpetual/occasional/extra = 1 3 0
  (1) pair lj/cut, perpetual
      attributes: half, newton on
      pair build: half/bin/atomonly/newton
      stencil: half/bin/3d
      bin: standard
  (2) compute orientorder/atom, occasional
      attributes: full, newton on
      pair build: full/bin/atomonly
      stencil: full/bin/3d
      bin: standard
  (3) compute coord/atom, occasional
      attributes: full, newton on
      pair build: full/bin/atomonly
      stencil: full/bin/3d
      bin: standard
  (4) compute cluster/atom, occasional
      attributes: full, newton on
      pair build: full/bin/atomonly
      stencil: full/bin/3d
      bin: standard
Per MPI rank memory allocation (min/avg/max) = 9.326 | 9.329 | 9.334 Mbytes
Step Temp PotEng Volume v_max_n 
    4000    1.9643383    -4.825715    4902.9392            1 
    5000    2.0200723   -4.8011506    4905.3334            1 
    6000    1.9902315    -4.795099    4922.1836       -1e+20 
    7000    1.9783638   -4.7812276    4887.6209            1 
    8000    1.9740851    -4.793793    4911.8286            1 
    9000     2.013351    -4.831841    4917.2855            2 
   10000    2.0174629   -4.7367161    4953.8998            1 
   11000    1.9710051   -4.7537802    4944.8598       -1e+20 
   12000    1.9991354   -4.8091819    4914.5222            1 
   13000    2.0434792   -4.8739761    4895.6775            1 
   14000     1.992432    -4.796408    4909.0669       -1e+20 
   15000    2.0080222   -4.8075351    4934.9772            2 
   16000    2.0072108    -4.875152    4897.9076            1 
   17000    2.0091752   -4.8010011    4956.4438            2 
   18000    2.0339493   -4.8050157     4922.954            1 
   19000    1.9678045   -4.8237646    4906.2501            1 
   20000    2.0011882    -4.782967    4922.2475            1 
   21000    2.0170342   -4.7594163    4928.1181            2 
   22000    2.0001467   -4.8050352    4930.9331            1 
   23000    2.0282217   -4.7725024    4924.7393            1 
   24000    2.0018724   -4.7988245    4913.8362       -1e+20 
   25000    1.9988197   -4.7802456    4919.0082            1 
   26000     1.996248   -4.8154617     4924.078            2 
   27000    2.0031295   -4.7973389    4918.7419            1 
   28000    2.0000269   -4.7913453    4916.0258            1 
   29000    1.9994278    -4.798037    4917.6801            1 
   30000    1.9868198   -4.7682729     4913.506            1 
   31000    2.0060852   -4.7919776    4937.6163            1 
   32000    2.0228017   -4.7611536    4933.2043            1 
   33000    2.0344045   -4.8004576    4943.3382            1 
   34000    2.0161004   -4.8163367    4893.3614            1 
   35000    2.0253789   -4.8665873     4927.366            1 
   36000    1.9833729   -4.8520315    4906.2486            1 
   37000    1.9685702   -4.8762567    4900.0139            1 
   38000    1.9444496   -4.7636126     4877.696            1 
   39000    1.9493916   -4.7717499     4946.341            1 
   40000    1.9875827    -4.759964    4947.8063            1 
   41000    2.0162208   -4.7884427    4922.2432            1 
   42000    2.0114883   -4.8139834    4939.7897            1 
   43000     1.975413   -4.8312161    4906.0419            1 
   44000    1.9797901   -4.8879815    4903.4162            1 
   45000    2.0545145   -4.8291383     4916.975            1 
   46000    1.9920341   -4.7946314    4922.1383            1 
   47000    2.0051877   -4.8075856     4913.638            2 
   48000    1.9508852   -4.8109491     4946.163            1 
   49000    2.0098723   -4.8453243    4901.8421            3 
   50000    1.9759486   -4.7816009    4916.9608            1 
   51000    2.0208326   -4.8024791    4895.0918            1 
   52000    2.0143329    -4.789951    4930.9011            1 
   53000    1.9704792   -4.7967142    4926.1328            1 
   54000    2.0337223   -4.7999045    4901.7826            1 
   55000     2.027418   -4.7516716     4888.124            1 
   56000    2.0361366   -4.8013705    4927.5771            1 
   57000    1.9991879   -4.8424519    4928.0393            1 
   58000    1.9697966   -4.7343752     4939.682       -1e+20 
   59000    2.0242044   -4.7953178    4935.0531            1 
   60000    1.9964258   -4.8409894    4914.2009            1 
   61000     2.016738   -4.8214202    4905.1149            2 
   62000    1.9671045   -4.8161487    4916.8284            2 
   63000     2.002153   -4.8158417     4908.755            1 
   64000    1.9766784   -4.7322424    4942.0909            1 
   65000     2.021404    -4.778014    4943.2245       -1e+20 
   66000    2.0478985   -4.7959803    4926.3191       -1e+20 
   67000    2.0292055    -4.737571    4924.0336            1 
   68000     1.984679   -4.8532745    4892.5189            1 
   69000    2.0391726   -4.8460051    4919.0376            1 
   70000    2.0274222   -4.8200614    4930.6511            1 
   71000    1.9713977   -4.7580647     4935.322            1 
   72000    1.9860464   -4.7970402    4910.2766            1 
   73000    1.9654561   -4.8331889    4897.0301            1 
   74000    1.9721144   -4.7680588    4893.3256            4 
   75000    2.0192904   -4.7465946    4922.1099            1 
   76000    2.0025285   -4.7339957    4977.4821            1 
   77000    1.9921656    -4.803968    4918.1183            1 
   78000    2.0245404   -4.8318032     4901.227            1 
   79000    1.9679558   -4.8387943    4915.6045            2 
   80000    1.9925634   -4.8084041    4924.2201            1 
   81000    1.9798948   -4.7730462    4925.6574            1 
   82000    2.0289649    -4.846917    4890.5597            1 
   83000    2.0126552   -4.8001423    4962.5404       -1e+20 
   84000    2.0400653   -4.8824972    4901.9564       -1e+20 
   85000    2.0001073   -4.8197296    4910.2444            1 
   86000    2.0382183   -4.8018468     4920.395            1 
   87000    1.9972223   -4.8713139     4903.193            1 
   88000    1.9765358   -4.8305543    4907.8135            1 
   89000    1.9121741   -4.7567662    4914.2369            1 
   90000    2.0131644   -4.7599181    4936.5323            1 
   91000    2.0529093   -4.8251853    4905.6216            1 
   92000    1.9650639   -4.7752393    4943.2551            1 
   93000     1.997602   -4.7959388    4900.1168            1 
   94000    1.9966983   -4.7866832    4942.5243            1 
   95000    1.9898526   -4.7917072    4928.3189            1 
   96000    1.9892808   -4.7811935    4921.7959            1 
   97000    2.0148593   -4.8030736    4906.2444       -1e+20 
   98000    2.0393396   -4.7668459    4931.2394            2 
   99000    1.9831363   -4.7847639    4928.5016            1 
  100000    2.0012229   -4.7801314    4906.4144            1 
  101000    1.9991446   -4.7520985    4897.0305            1 
  102000    2.0361445   -4.8308775    4874.9594            1 
  103000    2.0125344    -4.765976    4935.6826            1 
  104000    1.9871253   -4.7654085    4944.3338            1 
  105000    2.0448507   -4.8443614    4897.1332            1 
  106000    2.0042063   -4.7797499    4934.2571            1 
  107000    1.9854624   -4.8407598    4887.5356            2 
  108000    2.0299951   -4.7842751     4933.118            1 
  109000    1.9586227   -4.8238537    4917.1927            1 
  110000    1.9890838    -4.708461    4965.8098            1 
  111000    2.0416892   -4.8222965     4932.061            1 
  112000    1.9573452   -4.7552222    4946.2136       -1e+20 
  113000    2.0216347   -4.8444235    4909.5465            1 
  114000    2.0024691   -4.7879897    4930.5375            1 
  115000    1.9611022   -4.7677239    4913.7798            1 
  116000    2.0010792    -4.766179    4891.0367            1 
  117000    2.0026559   -4.7933873    4927.3218            1 
  118000    2.0159307   -4.8188238    4913.6307            1 
  119000    1.9687772   -4.8380159    4911.1753            1 
  120000    1.9951095   -4.8019946    4937.2001            2 
  121000    2.0192087   -4.7673949     4928.598       -1e+20 
  122000    1.9914138   -4.8670758    4926.9006            1 
  123000    2.0023498   -4.8187072    4946.7454            1 
  124000    1.9663634   -4.7549236    4916.5828       -1e+20 
  125000    2.0602295   -4.7365911    4929.0686            1 
  126000    1.9544708     -4.79598    4969.5028            1 
  127000    2.0406813   -4.8745752    4881.7618       -1e+20 
  128000    1.9634949   -4.7797244    4911.6266            1 
  129000    2.0046174   -4.7819249    4906.6632            2 
  130000    2.0455266   -4.7965178     4896.304            1 
  131000      2.00154   -4.7966406    4923.6405            1 
  132000    2.0459952   -4.7916272    4927.0096            2 
  133000    1.9769728   -4.7775434    4965.0451       -1e+20 
  134000    1.9656034   -4.7680538     4901.951            1 
  135000    1.9767692   -4.7863127    4916.8283            1 
  136000    1.9996422   -4.8168899    4897.4737            1 
  137000    1.9975496   -4.8055839    4945.3035            1 
  138000    1.9869269   -4.8134205    4882.9259            2 
  139000    2.0218022   -4.7984159    4940.8569            1 
  140000    1.9854545   -4.7043968    4944.2364            1 
  141000    1.9789831    -4.832848    4934.7414            1 
  142000    2.0203254   -4.8567205     4923.247            1 
  143000    1.9415764   -4.8007489    4905.5194            1 
  144000    1.9925816   -4.8150031    4954.1175            1 
  145000    2.0167342   -4.8329347    4925.3998            1 
  146000    1.9749871   -4.8141274    4900.8482            1 
  147000    2.0216036    -4.792613    4919.3594            1 
  148000    2.0217157   -4.8014142    4942.4836            2 
  149000     2.015511   -4.8199732    4923.2715            1 
  150000    2.0103437   -4.7470906    4938.7173            1 
  151000    2.0427348   -4.8250106    4908.8746            1 
  152000    2.0118132    -4.858241      4886.81            1 
  153000    1.9605581   -4.8049727    4943.3597            1 
  154000    1.9800336   -4.8158911    4915.5397            1 
  155000    2.0316007   -4.8157464    4941.3096            1 
  156000    1.9715177   -4.8094078    4905.6313            2 
  157000     2.004759   -4.7938075    4890.6812            1 
  158000    1.9975694   -4.8387858    4932.6314            2 
  159000    2.0020972   -4.8779878    4893.7265            1 
  160000    2.0112337   -4.7949564    4956.9263            1 
  161000    2.0227134   -4.8406554    4917.1453            1 
  162000    2.0288721   -4.7353593    4921.3446            1 
  163000    1.9857618    -4.783094    4933.6086       -1e+20 
  164000    1.9962712   -4.7821764    4925.0059            1 
  165000    2.0095778   -4.7272668    4941.2705       -1e+20 
  166000     2.004137    -4.806471    4913.0286            1 
  167000    2.0435705   -4.8051764    4896.2329            1 
  168000    2.0073341   -4.7397278    4895.8849            2 
  169000    2.0347835   -4.7723158    4909.2644            1 
  170000    2.0211715   -4.8205788     4886.997            1 
  171000    2.0034929   -4.8124388    4916.1446            1 
  172000    1.9960588   -4.7830928    4924.8961            2 
  173000    1.9887114   -4.8041012    4926.5622       -1e+20 
  174000    1.9876228   -4.8361614    4891.9779            1 
  175000    2.0176736   -4.8363531    4904.3699            1 
  176000    1.9849848   -4.8080732    4881.8464            1 
  177000    2.0063992    -4.796315    4937.9082            1 
  178000    1.9774025   -4.8099021    4895.9473            1 
  179000    2.0029259    -4.792697    4920.5992            1 
  180000    2.0146444    -4.770088    4932.5778            2 
  181000    2.0049789   -4.7900177    4905.3877            2 
  182000      1.97788   -4.8252292    4949.0578            1 
  183000     1.979515   -4.7611002    4963.0145            1 
  184000    2.0087264   -4.7708412    4924.7962            1 
  185000    1.9922115   -4.8091011    4949.3012            1 
  186000    2.0794917   -4.8006836    4884.8868            1 
  187000     1.956842    -4.796264    4940.5204            1 
  188000    2.0002587   -4.8375956    4903.3523            1 
  189000     1.962324   -4.7947404    4942.8598            1 
  190000    2.0416674   -4.8286787    4887.4689            2 
  191000    1.9764225   -4.7861276     4935.837            1 
  192000    1.9914218   -4.7738707    4924.7799            1 
  193000    2.0034596   -4.8071246     4933.568            1 
  194000    1.9810147   -4.8305473    4921.1838            2 
  195000    2.0097032   -4.8467042    4895.2258            1 
  196000    2.0211854   -4.7886069    4925.6352            1 
  197000    2.0028077   -4.7903878    4934.7391            1 
  198000    2.0235034   -4.8144298    4953.6345            2 
  199000    1.9934309   -4.8267362    4898.3132            1 
  200000    2.0193233   -4.8069843    4931.7153            1 
  201000    2.0230237   -4.7620584    4942.6429            1 
  202000    2.0107091   -4.8325963    4907.3202            1 
  203000    2.0150459   -4.8060717    4932.6672            1 
  204000    2.0290215   -4.8164138    4941.0055       -1e+20 
  205000     1.980546    -4.799445    4927.7686            1 
  206000    2.0445974   -4.7837309    4943.6455            1 
  207000    1.9779818   -4.8398126    4910.4009       -1e+20 
  208000    1.9880837   -4.8249313    4936.0697            1 
  209000    1.9778692   -4.7888054    4927.4507       -1e+20 
  210000    1.9456415   -4.8403041    4926.9864            1 
  211000    2.0206097   -4.8201153    4913.3499            1 
  212000    2.0022815   -4.7700839    4947.6788            1 
  213000    2.0616445   -4.7592505    4933.1643            1 
  214000    1.9975398   -4.7780344    4933.2351            1 
  215000    1.9562578   -4.7799932    4931.8046            1 
  216000    1.9989373   -4.8081945    4950.4619            2 
  217000    1.9757222    -4.834947    4901.8397            1 
  218000    1.9883693   -4.7677403    4946.1129            1 
  219000    1.9576127    -4.769635    4917.3264            1 
  220000    2.0018637    -4.807327     4923.584            1 
  221000    2.0178552   -4.7990901     4918.608            1 
  222000    1.9706881   -4.7860617    4937.2782            1 
  223000    2.0207106   -4.8074354    4923.4053            1 
  224000    1.9968417   -4.8005145    4930.0301            1 
  225000    2.0074653   -4.7963333    4916.3405            1 
  226000    1.9785428   -4.8064516    4904.8878            1 
  227000    1.9834061   -4.7168788    4982.6745            1 
  228000    1.9382263   -4.7974985    4926.5918            1 
  229000    2.0281097   -4.8234624    4919.7695            1 
  230000    2.0038393   -4.7908784    4904.5597            1 
  231000    1.9417699   -4.8238767    4910.4174            1 
  232000    1.9642899      -4.8061    4930.3014            1 
  233000    2.0498782   -4.7808898    4930.3763            1 
  234000    2.0208973   -4.8117462    4913.2994            2 
  235000    1.9826948   -4.7744278    4934.7364            1 
  236000    2.0177548   -4.7976453    4921.6154            1 
  237000    2.0227101   -4.8010394    4947.7518       -1e+20 
  238000    1.9352332   -4.7737688    4924.4762            1 
  239000    1.9893286   -4.7573056    4950.1088            1 
  240000    1.9877735   -4.8217667    4918.6574            1 
  241000    2.0204874   -4.8462471    4909.1148            1 
  242000    1.9757168    -4.809533    4934.0388            1 
  243000    2.0172582   -4.8144625    4897.2408            1 
  244000    1.9927902   -4.8093371    4943.4522            1 
  245000    2.0359569   -4.7845896    4931.0414            2 
  246000    2.0443491   -4.7600196    4924.2106            1 
  247000    2.0316147   -4.8144671    4883.0938            1 
  248000     2.018985    -4.748943    4950.7141            1 
  249000    1.9947242   -4.8524973    4908.2345            1 
  250000    2.0337396   -4.8094223    4927.9352            1 
  251000    2.0044089   -4.8261829    4914.4977       -1e+20 
  252000    1.9614354   -4.8124162    4930.8739            1 
  253000    1.9502788   -4.7986197    4907.4375            1 
  254000    2.0582182   -4.8082247    4925.3365            1 
  255000    1.9780659   -4.7859964    4932.6037            1 
  256000     1.967264   -4.7798418    4927.3631            1 
  257000    2.0312905   -4.7426211    4928.8292            1 
  258000    1.9920909   -4.8265089    4932.6548            1 
  259000    2.0181492   -4.8457081    4906.3112            1 
  260000    1.9977105   -4.8035837    4911.9523            1 
  261000    1.9971446   -4.8167363     4920.189            3 
  262000    1.9906583   -4.8230441    4959.8418            1 
  263000    1.9910951   -4.8334834    4888.8938            1 
  264000    2.0385154   -4.7716054    4952.6463            1 
  265000    1.9767473   -4.8545943    4909.4563       -1e+20 
  266000    1.9652616   -4.7818938    4931.8006            1 
  267000    2.0325974   -4.8082989    4898.2791            1 
  268000    1.9914586   -4.7942631     4911.434            1 
  269000    1.9959121   -4.7764099    4940.5724            4 
  270000    2.0275046   -4.7601363    4948.8478       -1e+20 
  271000    2.0056046   -4.7930381    4929.7681            1 
  272000    1.9983487   -4.7915433     4950.666            1 
  273000    1.9763686   -4.8180168    4927.4404            1 
  274000    2.0300772   -4.8081089    4915.5815            2 
  275000    1.9870762   -4.8217291    4916.0551            1 
  276000    2.0007663   -4.7941375     4936.887            1 
  277000    2.0158527   -4.8389428    4941.5915            1 
  278000    1.9853153   -4.7417739    4932.4444            1 
  279000    2.0149411   -4.8192332    4911.1773            1 
  280000    2.0388666   -4.8093578    4898.6289       -1e+20 
  281000    2.0105534    -4.820143     4935.675            1 
  282000    1.9938813   -4.8229155    4929.9957            1 
  283000    2.0001047   -4.8054695    4882.2169            1 
  284000    1.9653711   -4.8060744    4943.0957            1 
  285000    1.9952799   -4.7792444    4929.8842            1 
  286000     1.973228   -4.7492338    4929.3323            1 
  287000    1.9351915   -4.8401077    4918.7074            1 
  288000    2.0457115   -4.8199699    4919.6347            1 
  289000    2.0041885   -4.7603738    4906.6034            2 
  290000    2.0026593   -4.7758163    4918.3712            2 
  291000    1.9851582    -4.805201    4935.5009            1 
  292000    2.0547673   -4.8211299    4934.3974       -1e+20 
  293000    1.9993866   -4.7717449    4944.5037            1 
  294000    2.0040204   -4.8141687    4934.5547            1 
  295000    2.0279276   -4.7827482    4939.1171            1 
  296000    2.0543264   -4.7700631    4922.1896            2 
  297000    2.0112893   -4.8259244    4899.8961            2 
  298000    2.0266862   -4.8406153    4909.4587            4 
  299000    2.0335132   -4.7993182    4896.0366            1 
  300000    2.0023998   -4.8343248    4944.7484            1 
  301000    2.0099497   -4.7855115    4937.9228            1 
  302000    1.9969937   -4.7592239    4950.8488            1 
  303000    1.9684144   -4.8069429    4925.3603            1 
  304000     1.979139    -4.803521    4930.1051            1 
  305000    2.0037189   -4.8359926    4943.9761            1 
  306000    1.9883497   -4.7886014    4913.2151            1 
  307000    2.0143817   -4.7414125    4909.7963            2 
  308000    2.0380729    -4.793937     4931.506            1 
  309000    2.0240018   -4.8071293     4926.569            1 
  310000    2.0263512   -4.7927628    4926.8123            1 
  311000    1.9987048   -4.7852634    4932.7354       -1e+20 
  312000    2.0184548   -4.8176594    4904.8249            2 
  313000    1.9760745   -4.7813181    4917.4274            1 
  314000    2.0041167   -4.8381289    4876.3078            1 
  315000    1.9920622   -4.8732936    4902.6186            1 
  316000    1.9806595   -4.8069814    4895.1185            1 
  317000    2.0110073   -4.7889579     4936.245            1 
  318000    2.0023487   -4.7977735    4906.6075            1 
  319000    2.0087271   -4.8013098    4902.9672            1 
  320000    2.0154945   -4.8056388    4897.2881            2 
  321000    1.9768803   -4.7819786    4921.4559            1 
  322000     2.020019    -4.784999     4957.939       -1e+20 
  323000    1.9932616   -4.8048927    4915.8713            1 
  324000    2.0304607   -4.8086126      4914.14            2 
  325000    2.0066108   -4.8258978    4938.3545            1 
  326000    1.9576319   -4.8238744    4883.3319            1 
  327000    1.9861638   -4.7744917    4957.2241            2 
  328000    1.9971565   -4.8365255    4900.2231            1 
  329000     1.978218   -4.8162468    4934.7805            1 
  330000    1.9927898   -4.7237558    4970.6795            1 
  331000    1.9957581   -4.8218587    4918.2888            1 
  332000    1.9968186   -4.8086443    4912.7731            1 
  333000    2.0369872   -4.7724547    4965.5214            1 
  334000    2.0213231   -4.7874538    4948.1385            1 
  335000    1.9730304   -4.8060907    4902.8606            1 
  336000    1.9733708   -4.7576423    4927.2831            4 
  337000    1.9953568    -4.800107    4928.9108            1 
  338000    2.0359538    -4.782637    4930.8799            1 
  339000     2.002368   -4.7972547    4938.7267            1 
  340000    2.0528229   -4.8013995    4945.6479            2 
  341000    1.9933431   -4.7870564    4930.3339            2 
  342000     2.021187   -4.7839825    4937.1416            2 
  343000    2.0201624   -4.8794084    4914.2367            1 
  344000    2.0170285   -4.8003639    4937.8444            1 
  345000    1.9849744   -4.7749927    4926.1509            2 
  346000    2.0000698   -4.7915922    4915.3743       -1e+20 
  347000    1.9940851    -4.828353    4952.2239            2 
  348000    2.0257635   -4.7866239    4904.1584            1 
  349000    2.0154775   -4.8122981    4890.9254            1 
  350000    1.9932756   -4.8617168    4894.9046            1 
  351000    2.0326109   -4.8171165    4915.4261            3 
  352000    1.9824515   -4.7916381    4913.0908            1 
  353000    1.9803785   -4.8678784    4897.1795            1 
  354000    1.9998233   -4.8295238    4922.5287       -1e+20 
  355000    1.9960951   -4.7415229    4968.6034            1 
  356000     1.972391   -4.7935876    4932.0602            2 
  357000    1.9923846   -4.8540393    4902.3289       -1e+20 
  358000    1.9692216   -4.7495316    4936.4784            1 
  359000    1.9473682   -4.7744179    4908.1972            1 
  360000    2.0190029   -4.8299544    4918.8684            1 
  361000    1.9996758   -4.8300897    4920.5322            1 
  362000    1.9816701    -4.762593    4903.3406       -1e+20 
  363000    1.9754011   -4.8410101    4911.0947            1 
  364000    1.9735934   -4.7798979    4916.8938            1 
  365000    1.9932625   -4.8608033    4904.7865            1 
  366000    1.9915033   -4.7896635    4936.6096       -1e+20 
  367000    1.9872297   -4.7933873    4924.4567            1 
  368000    1.9853305   -4.8300224    4959.8918            1 
  369000      1.98421   -4.7694741    4939.1837            1 
  370000    1.9900253    -4.815903    4917.4019            1 
  371000    2.0150705   -4.8040752    4905.7415            1 
  372000    1.9691957   -4.8230723    4907.7816            1 
  373000    2.0488346    -4.779746    4950.4927            1 
  374000    1.9993187   -4.8126218    4900.3314            2 
  375000    1.9928956   -4.7919347    4900.3754            1 
  376000    2.0347674   -4.7825167    4888.8551            1 
  377000     2.054025   -4.7695795    4944.6035       -1e+20 
  378000    1.9964534   -4.7997681    4885.9837            1 
  379000    1.9443324   -4.8104657    4925.6452            1 
  380000    1.9847851   -4.8103588    4896.6405            1 
  381000     1.986903   -4.8221547    4931.3647            1 
  382000    1.9935769   -4.8257917    4917.9047            1 
  383000    1.9850837   -4.7950724    4890.9973            1 
  384000    1.9929091    -4.823482    4922.2019            2 
  385000     1.987868   -4.7593713    4923.0856            1 
  386000    2.0283771   -4.7754952     4918.609            1 
  387000    2.0372579   -4.7688741    4944.8433            1 
  388000    1.9674213   -4.8427824    4903.2716            1 
  389000    1.9850418   -4.8105795    4895.1977            1 
  390000     2.002535   -4.8352362    4905.3752            1 
  391000    2.0120297   -4.7805347    4957.5581            1 
  392000    1.9912322   -4.8424368    4903.1452            1 
  393000    1.9535066   -4.8375358    4912.8471            1 
  394000    1.9941482   -4.7855982    4929.1852            2 
  395000    1.9835167   -4.8670539    4884.6661            1 
  396000     2.031677   -4.7429051    4936.1119            1 
  397000    2.0077513    -4.822288    4908.1831            1 
  398000    1.9814797   -4.7936135    4944.4529            1 
  399000    2.0006319   -4.7852692    4898.5382            1 
  400000    2.0554712   -4.7726639    4907.5377            2 
  401000    1.9134319   -4.7666582    4929.9456            2 
  402000    2.0376695   -4.7726731    4945.1595            1 
  403000    2.0109495   -4.7683894    4917.3394       -1e+20 
  404000    2.0046171   -4.7678328    4921.5118            1 
  405000    1.9507228   -4.7873568    4908.9319            1 
  406000    2.0174955   -4.7390608    4916.0314            1 
  407000    2.0119139   -4.8187834    4923.1146            1 
  408000    2.0002925   -4.8210166    4915.1641            1 
  409000    2.0102597   -4.7836145    4969.2716            2 
  410000    1.9881867   -4.7962983    4916.6041       -1e+20 
  411000    1.9861668   -4.8113031    4902.5696            1 
  412000    1.9884544   -4.8008114    4878.8657            3 
  413000    2.0372904   -4.8159688    4891.3972            1 
  414000    1.9596285   -4.7491097    4900.4892            2 
  415000      1.98797    -4.830493    4916.1237            1 
  416000    2.0067099   -4.7752257    4908.3711       -1e+20 
  417000    2.0284078   -4.7734627    4901.5222            1 
  418000    2.0101003    -4.773861    4945.6259            1 
  419000    2.0214304   -4.8146469    4918.6562       -1e+20 
  420000    1.9648226   -4.8003137    4900.7113            1 
  421000    2.0060916   -4.8017268    4930.6154            1 
  422000    2.0275858    -4.743501    4936.5653       -1e+20 
  423000    2.0411055   -4.8033796    4896.2529            1 
  424000    1.9861371   -4.8166277    4911.5078            1 
  425000    2.0533818   -4.7366645    4920.0609            1 
  426000    1.9626968   -4.8202981    4909.2733            1 
  427000    1.9866625   -4.7764699    4916.8424            1 
  428000    2.0546396   -4.8393123    4914.2082            1 
  429000    2.0066373     -4.73032    4979.3053            2 
  430000    2.0484632   -4.8244337       4916.5            1 
  431000    1.9766015   -4.7931662    4894.8958            2 
  432000     2.056109   -4.8126378    4914.3306            1 
  433000    2.0317079   -4.7717351    4939.6456            2 
  434000    2.0056358   -4.8058176    4916.2911            1 
  435000     2.038725    -4.850429    4919.1808       -1e+20 
  436000    2.0153181   -4.8636251    4870.5521            1 
  437000    2.0127623   -4.7996798    4912.9653            1 
  438000    1.9929357   -4.8212151    4951.5227            1 
  439000    2.0338479    -4.852817    4899.1319            1 
  440000    2.0030769   -4.8509946    4889.8322       -1e+20 
  441000    2.0288393   -4.8481742    4897.0584       -1e+20 
  442000    2.0238258   -4.8255372    4915.3781            1 
  443000    1.9889147   -4.8175827    4903.7527            1 
  444000    2.0208345   -4.7591561    4938.2477            1 
  445000    1.9720509   -4.7820971    4948.9245            1 
  446000    1.9980865   -4.7679191    4913.0751            1 
  447000     1.962218   -4.7870176    4933.8793            1 
  448000    2.0156424   -4.8773651    4864.8523            1 
  449000    1.9769683   -4.7309765    4951.3218            1 
  450000     2.006189   -4.8188149    4888.5382            1 
  451000    2.0252822    -4.763351    4945.8872       -1e+20 
  452000     1.955482   -4.7633048    4932.3495       -1e+20 
  453000    1.9938958   -4.8358733    4928.0699            1 
  454000     1.980403   -4.8029283     4916.995            1 
  455000    2.0034653   -4.7904678    4927.7244            1 
  456000    2.0426328   -4.7741278    4908.9279       -1e+20 
  457000    1.9528311   -4.7790821    4908.0147            2 
  458000    2.0218149   -4.7801994    4910.7559            1 
  459000    1.9584502   -4.8012417     4940.721            2 
  460000    1.9581318   -4.7839058    4929.1801            1 
  461000     1.994821   -4.8546688    4901.2238            1 
  462000    2.0466237   -4.7896074    4898.6747            2 
  463000    1.9434181   -4.8005352    4916.7474            2 
  464000    2.0140312   -4.7633438    4916.4657            2 
  465000    1.9781993   -4.7450053    4917.8755            1 
  466000    1.9613958   -4.8123534    4928.6081            1 
  467000    2.0022877   -4.8124316    4913.0676            1 
  468000    2.0301553   -4.8250656    4947.5994            1 
  469000    1.9823529   -4.8210089    4965.0065       -1e+20 
  470000    2.0038537   -4.8122045    4910.8491            1 
  471000    2.0015246   -4.8004136    4923.1938            1 
  472000    2.0066765   -4.8045217    4953.1067            2 
  473000    1.9816097   -4.7820357    4893.2637            1 
  474000    2.0077964   -4.8583329    4896.2206            1 
  475000    1.9983833   -4.7778927    4910.8604            1 
  476000    1.9372699   -4.8497221    4885.4745            1 
  477000     1.965455   -4.7919921     4894.819            1 
  478000    2.0320232   -4.8290461    4945.0912            2 
  479000    1.9761349   -4.7720479    4934.4933            5 
  480000    1.9757694   -4.7688214    4926.6566            1 
  481000    2.0309999   -4.8061906     4922.046            1 
  482000    1.9903945   -4.7608634    4928.5471            1 
  483000    2.0546447   -4.7697616    4928.9131            1 
  484000    1.9980803   -4.7847003    4941.9773            1 
  485000    1.9902011   -4.7697188    4953.0241            1 
  486000    2.0243871   -4.7483404    4926.2662       -1e+20 
  487000    2.0287107   -4.7821464    4933.1867            1 
  488000    2.0158658   -4.7968201    4936.1099            1 
  489000    1.9858641   -4.7659032    4934.7923            1 
  490000     1.959055   -4.7944373    4937.5403            1 
  491000    1.9769179   -4.8342685     4889.507       -1e+20 
  492000    1.9737895   -4.8044698      4928.44            1 
  493000    1.9824619   -4.7770981     4903.475            1 
  494000    1.9883709   -4.8030609     4895.736            1 
  495000      1.99433   -4.7857501    4919.0873            1 
  496000    1.9956641   -4.7781316    4944.1057            2 
  497000    1.9731175   -4.8223217     4903.338            1 
  498000    1.9936234   -4.8041249    4920.9439            1 
  499000    2.0082569   -4.7462515    4923.1431       -1e+20 
  500000     1.996987   -4.8106842    4904.8804            2 
  501000    1.9657239   -4.8397572    4925.1165            2 
  502000    2.0086795   -4.7968764    4929.1598            1 
  503000    2.0248091   -4.7535562    4943.8496            1 
  504000    1.9991446   -4.8016115    4933.2858            1 
  505000     1.947937   -4.8042345    4911.0426            1 
  506000    2.0082944   -4.7817691    4959.9362            1 
  507000    2.0215856   -4.8344333    4911.0904            1 
  508000    1.9683983   -4.7764439    4929.4847            1 
  509000    2.0251554   -4.8113821    4894.3347            2 
  510000    1.9663923   -4.8072432    4942.2625            1 
  511000    2.0161673    -4.838231    4903.8033            1 
  512000    1.9266293   -4.8449939    4925.4555            1 
  513000    1.9606933    -4.790315      4908.02            1 
  514000     2.020295   -4.7938624    4898.8958       -1e+20 
  515000    1.9355595   -4.8345016     4921.477            1 
  516000    2.0073138   -4.8055063    4946.3217            1 
  517000    1.9584047   -4.8249279    4941.5236            2 
  518000    2.0616724   -4.7264389    4951.0555            1 
  519000    2.0093275   -4.7504694    4932.3662            1 
  520000    2.0371318   -4.8269531    4907.7698            1 
  521000    1.9714403   -4.7905509    4897.4115            3 
  522000    1.9732406   -4.7495211    4936.5732       -1e+20 
  523000    2.0136174   -4.7657606    4921.7376            2 
  524000    1.9920891   -4.8370766    4907.4396            1 
  525000    1.9824455   -4.7847057    4927.2079            1 
  526000    1.9824713   -4.8302122    4926.7242            1 
  527000    1.9995979   -4.8182785    4912.4726            1 
  528000    2.0626749     -4.81115    4966.7655            1 
  529000    1.9685992   -4.7938531      4867.68            2 
  530000    1.9353501   -4.7723251    4916.8444            1 
  531000    2.0370941   -4.7340228    4951.5146            1 
  532000    1.9977201   -4.7599758    4914.0677            1 
  533000     1.993581   -4.8185902    4904.0282            1 
  534000    2.0044689   -4.7803429    4940.2547            1 
  535000    2.0219639   -4.8416166    4900.0069            1 
  536000    1.9633315   -4.7932738    4936.2561            1 
  537000    1.9764487   -4.7652577    4949.0661       -1e+20 
  538000    1.9612479   -4.8700271    4892.8898            1 
  539000    1.9925827   -4.8538996    4899.6076            1 
  540000    1.9450334   -4.7415981    4905.2504            1 
  541000    2.0097738   -4.7704603    4938.0071            1 
  542000    2.0072071   -4.8189701    4915.5677            1 
  543000    1.9933395   -4.8410553     4900.934            1 
  544000    2.0197373   -4.7648254    4925.9477            1 
  545000    2.0186318   -4.7538549    4929.7289            1 
  546000    1.9989112   -4.7561733    4932.1706            1 
  547000    1.9806733   -4.7981517    4935.4396            1 
  548000    2.0251599   -4.8166175    4903.0246            1 
  549000    1.9981356   -4.7913217    4940.3752            1 
  550000    1.9872573   -4.8005917     4911.199            1 
  551000    2.0444725   -4.8372788    4901.9756            1 
  552000    2.0012138   -4.7498686    4953.3305       -1e+20 
  553000    2.0325759   -4.8045977    4886.2115            1 
  554000    1.9491439   -4.8259847    4901.1938            1 
  555000    1.9918647    -4.788048    4946.4067            1 
  556000    1.9898391   -4.8305467    4922.8062            1 
  557000    2.0060763   -4.8066035    4920.4852            2 
  558000    1.9646612   -4.7996159    4921.2582            1 
  559000    2.0180531   -4.8082979    4891.1644            2 
  560000    2.0351958   -4.8126453    4918.4828       -1e+20 
  561000    2.0160327   -4.8182502    4916.4465            1 
  562000    1.9703983   -4.8088707    4912.0984            1 
  563000    1.9972554   -4.8248602    4921.5393            1 
  564000    2.0170901   -4.7866767    4895.1717            1 
  565000    1.9782221   -4.8346808    4946.2494            1 
  566000    1.9968616   -4.7605511    4948.9117            1 
  567000    1.9905981   -4.7546691    4915.6559            2 
  568000    2.0097807   -4.8779023    4906.9223            1 
  569000    2.0048575    -4.747351    4926.1377       -1e+20 
  570000    1.9883668   -4.8091164    4928.0184            1 
  571000     1.980946     -4.79843    4935.0074            1 
  572000    1.9897343   -4.8061796    4919.9123            1 
  573000    2.0273732   -4.8213861    4891.3762            1 
  574000    2.0106096   -4.7787583    4961.8065            1 
  575000    2.0225258   -4.8020268    4927.2675            1 
  576000    2.0205696   -4.7920486    4922.9242            1 
  577000    2.0577883   -4.7735983    4910.0491            1 
  578000    1.9855301   -4.8033504    4941.4487            1 
  579000    2.0234551   -4.8332481    4899.9347            2 
  580000    1.9795182   -4.7991284    4924.9908            1 
  581000    2.0015856   -4.7601668    4953.1406            1 
  582000    2.0546427   -4.7581493    4934.2967            1 
  583000    2.0227489   -4.7917186    4910.0589            1 
  584000    1.9664478   -4.7889438    4924.7323            1 
  585000    1.9946204   -4.7477048    4948.3691            1 
  586000    2.0070644   -4.7909163    4922.2581            1 
  587000    1.9915619   -4.8559963    4909.0257            1 
  588000    1.9601256    -4.831897    4917.9107            1 
  589000    2.0075992   -4.8179315     4880.154            1 
  590000    2.0102907   -4.8389505    4889.1097       -1e+20 
  591000    2.0179618   -4.7703113    4940.9215            1 
  592000    1.9819668   -4.8327096     4898.713            2 
  593000    1.9740285   -4.7685874    4903.9445            1 
  594000    1.9831125   -4.8002007     4900.108            1 
  595000    2.0303466    -4.745903    4949.1849            1 
  596000    1.9949142   -4.8174224    4925.8125            1 
  597000    2.0143179   -4.7966571    4925.8029            1 
  598000     1.944615   -4.8051899    4880.4604            2 
  599000    2.0072287   -4.7929034    4920.9138            1 
  600000    1.9853924   -4.7893134    4942.1244            1 
  601000    2.0034007    -4.812784    4935.4728            2 
  602000    2.0121994   -4.7854105    4931.4478       -1e+20 
  603000    2.0378801   -4.7706766    4933.4646            2 
  604000    1.9734364   -4.7949588    4918.2895            1 
  605000    2.0234629   -4.8243369     4937.828            1 
  606000    2.0405581   -4.7994729    4905.6582            1 
  607000    2.0061143   -4.8109789    4909.6579            2 
  608000    1.9873995   -4.7955617    4915.8781       -1e+20 
  609000    1.9826744   -4.7663375    4962.7636       -1e+20 
  610000    1.9844877    -4.745179    4959.6345            1 
  611000    2.0237925   -4.7908748    4899.9148            1 
  612000    2.0191949   -4.8131534    4918.1271            2 
  613000    2.0021542   -4.7709906    4924.3923            1 
  614000    1.9808704   -4.7687366    4915.3863            1 
  615000    2.0670067   -4.7882876    4917.3169            2 
  616000     1.970776   -4.7931953     4898.374            1 
  617000    1.9997119   -4.8047703    4920.4352            1 
  618000    1.9752029   -4.7526429    4898.9658            1 
  619000    1.9986561   -4.7935439    4893.7258            1 
  620000    1.9964049   -4.8241959     4900.944            1 
  621000     2.021034   -4.8182976    4933.9304            1 
  622000    1.9974081   -4.7815325    4898.8504       -1e+20 
  623000     1.978047   -4.8029937    4962.8556            1 
  624000    1.9577759    -4.765997     4940.561       -1e+20 
  625000    2.0142125   -4.7667899    4907.8613            1 
  626000    2.0073432   -4.8590262    4911.3783            1 
  627000    2.0370982   -4.7728461    4916.7867            1 
  628000    2.0359209   -4.7822366    4954.9788            1 
  629000    2.0106367   -4.7366948    4939.8183       -1e+20 
  630000    1.9972716   -4.7925567    4913.5928            1 
  631000    1.9950407   -4.7822822    4940.9925            2 
  632000    1.9855595   -4.7722745    4943.8225            1 
  633000    1.9646148   -4.8165157    4935.0093            2 
  634000    1.9948037   -4.7956285    4899.5234            1 
  635000    2.0307658   -4.7955509    4893.3847            1 
  636000    2.0366787   -4.8167278    4915.5951            1 
  637000    1.9615975   -4.8609194    4901.2726            1 
  638000    2.0197918   -4.8164876    4916.5744            1 
  639000    2.0142677   -4.7942515    4935.3598            1 
  640000    2.0278668   -4.8635813    4915.1225            2 
  641000    1.9780158   -4.8106524    4923.1824            1 
  642000    1.9958019   -4.8055023    4910.9065            1 
  643000     2.017321    -4.789756     4918.077            1 
  644000    2.0162132   -4.8499966    4908.2643            1 
  645000    2.0203848   -4.7940799    4890.6386            1 
  646000    2.0052388   -4.8357684    4919.8228            1 
  647000     2.015344   -4.7794644      4914.27            1 
  648000    1.9952364   -4.7659267    4923.2064            1 
  649000    1.9839619   -4.8464771    4888.4173            1 
  650000    2.0044915   -4.8227521     4935.234            1 
  651000    2.0398736   -4.7940376    4914.9544            1 
  652000    2.0174449   -4.8494709    4886.4324            1 
  653000    2.0239721   -4.8542033    4878.1439            1 
  654000    1.9964306   -4.7944373    4916.3536            1 
  655000    1.9622171   -4.7462571    4947.9563            1 
  656000    2.0333639   -4.8296421    4932.1338            1 
  657000    2.0015326   -4.7454222    4943.5626            1 
  658000     2.022599   -4.8302928     4903.199            1 
  659000    1.9685323    -4.790241    4942.2396            1 
  660000    1.9813007   -4.7894897    4930.3882       -1e+20 
  661000    1.9976641    -4.753399    4925.1101            3 
  662000    2.0167168   -4.7628765    4930.1326            1 
  663000    2.0343279   -4.7602709    4901.3332            1 
  664000    1.9643282   -4.8229048    4908.1204            1 
  665000     1.977409    -4.768514      4923.34       -1e+20 
  666000    2.0391048   -4.7562886    4927.0886            1 
  667000    1.9415772   -4.7688459    4930.3987            1 
  668000    1.9630457   -4.7961395    4894.5009            1 
  669000    1.9707761   -4.7580419    4939.8868       -1e+20 
  670000    1.9407123   -4.8170643    4911.3929            1 
  671000    2.0446591   -4.7966119    4934.5703            1 
  672000    1.9971397   -4.8132357    4926.0115            1 
  673000    2.0088511   -4.7722104     4917.444            1 
  674000    2.0388684   -4.8075857    4897.5547       -1e+20 
  675000    1.9963598   -4.8143859    4943.6522            1 
  676000    1.9819957   -4.7856246    4909.1398            1 
  677000    1.9868828   -4.8148785     4903.141            1 
  678000    1.9856422   -4.7914004    4910.5225            1 
  679000    2.0215519   -4.8310814    4901.2998            1 
  680000    2.0188959   -4.8418877    4902.7799            1 
  681000    2.0170919   -4.8068565    4923.3699            2 
  682000    1.9406277   -4.7815592    4916.0232            2 
  683000    1.9958897   -4.7711501    4925.6623            1 
  684000    1.9989116   -4.7821353    4916.7791       -1e+20 
  685000    1.9979956   -4.8073822    4947.3777            1 
  686000    2.0570607   -4.8027947    4933.0839       -1e+20 
  687000    1.9824089   -4.7863986    4960.1717            1 
  688000    1.9795814   -4.8089926    4940.3861            4 
  689000    1.9995482   -4.8193315    4925.5073       -1e+20 
  690000    1.9854066   -4.8293334    4922.8706            1 
  691000    2.0441288   -4.7739738    4955.6034            1 
  692000    2.0006104   -4.7775281    4900.4872            1 
  693000    1.9356976   -4.8202225    4907.3391            1 
  694000    1.9804237   -4.8055307    4887.2617            2 
  695000    1.9928367   -4.8497154    4911.8443       -1e+20 
  696000    2.0150102   -4.7682469    4939.0474            2 
  697000    2.0033529   -4.8280607    4911.5512            1 
  698000    1.9731309   -4.7567978    4938.0545            1 
  699000    1.9746329   -4.7762509    4922.7409            1 
  700000    2.0325872   -4.7494223    4946.7881            1 
  701000    1.9909723   -4.7954858    4902.5524            3 
  702000    2.0173059   -4.7580292    4929.6668            1 
  703000    1.9918706   -4.7713765    4919.0388            1 
  704000    2.0032906   -4.8090757    4894.9241            1 
  705000    1.9725301    -4.780963    4951.2925            1 
  706000    1.9845728   -4.8133349    4881.8711            1 
  707000    1.9583856   -4.8355225     4905.293            1 
  708000    2.0023738   -4.8173166    4897.1018            1 
  709000    2.0039735   -4.8234174    4925.9772            1 
  710000    1.9748331   -4.8366838    4930.2692            1 
  711000    1.9835261   -4.8304606    4932.3236            1 
  712000    2.0204263   -4.7901614    4891.5564       -1e+20 
  713000    2.0411394   -4.8125349    4929.2027            1 
  714000    1.9840391   -4.8175534    4916.7352            1 
  715000    2.0012755   -4.7749448     4910.572            1 
  716000    2.0232671   -4.8337115    4910.8299            1 
  717000    1.9583094   -4.7488348    4927.1494            2 
  718000    1.9835944   -4.7914693    4895.5071            1 
  719000    1.9740945   -4.7659192    4925.0759            1 
  720000     1.988871   -4.7309202    4948.9831            1 
  721000    1.9661398   -4.7968144    4920.3542            1 
  722000    1.9808497   -4.8488299    4913.9053            1 
  723000    1.9848565   -4.7862556    4912.7347            1 
  724000    1.9770841   -4.7962968    4869.4267            1 
  725000    1.9986933   -4.8042782    4935.3342            1 
  726000    2.0051784   -4.8081473    4935.1946            1 
  727000    2.0265935   -4.7895117     4901.321            1 
  728000    2.0182925   -4.7978982    4947.7136            2 
  729000     1.985083   -4.8037706    4919.2367            1 
  730000    1.9529996   -4.7974168    4924.5794            1 
  731000    1.9829793   -4.7955892    4927.2901            1 
  732000     2.018299   -4.7524071    4942.8026            1 
  733000    2.0329088    -4.836835    4921.8157            1 
  734000    2.0130414   -4.8124978    4906.6239            1 
  735000    2.0024381   -4.7601381    4932.5559            1 
  736000    1.9960676   -4.7965455    4902.4067       -1e+20 
  737000    1.9915899   -4.8566189    4938.3452            1 
  738000    2.0344713   -4.8067208    4897.7961            1 
  739000    1.9989966   -4.8490082    4904.2127            1 
  740000    2.0137888    -4.779352    4944.7532            1 
  741000    2.0053282     -4.83216    4895.5787            1 
  742000    2.0044724   -4.8394098    4906.1201            1 
  743000    1.9791146   -4.8084505     4934.484            3 
  744000    2.0219663   -4.8114825    4943.3021            4 
  745000    2.0091791   -4.8280642    4890.8243            1 
  746000    1.9779784   -4.8226346    4917.2262            1 
  747000    1.9781162   -4.7715881    4919.9076            1 
  748000    2.0096911   -4.7579177     4941.816            1 
  749000    2.0506178   -4.8231589    4886.3263            1 
  750000    1.9920738   -4.8162484    4938.5089            1 
  751000    2.0335826   -4.7577327    4926.8835            3 
  752000    2.0284247   -4.7871687    4941.0034            1 
  753000    2.0397294   -4.8103862    4912.4931            2 
  754000    1.9800856   -4.8122461    4916.5935            1 
  755000    2.0252758   -4.7600596     4932.225            1 
  756000    1.9739497   -4.7916615    4923.3826       -1e+20 
  757000    2.0269021   -4.8338847    4895.3577            1 
  758000    1.9995949   -4.8004246    4925.6622            1 
  759000     1.964977   -4.8125798    4952.0302            1 
  760000    2.0073858    -4.842254    4892.3251            1 
  761000    2.0088473   -4.7582124    4914.9371            1 
  762000    2.1209974   -4.8444665    4912.4092            1 
  763000    2.0064372   -4.8100278    4920.2778            2 
  764000    1.9604153   -4.8111051    4909.0634            2 
  765000    2.0202274   -4.8318117     4914.565       -1e+20 
  766000     2.027387   -4.8067529    4937.6372            1 
  767000    2.0386798   -4.7904026    4921.3762       -1e+20 
  768000    1.9834291   -4.7855063    4931.9695            1 
  769000    1.9995526   -4.8521819    4888.6952            1 
  770000    1.9685818   -4.7822713    4890.1754            1 
  771000    1.9788211   -4.8604674    4883.4253            1 
  772000    1.9351445   -4.7911965    4960.0848            1 
  773000    2.0068444   -4.7807093    4899.7795            1 
  774000    1.9818443   -4.7940432    4934.9224       -1e+20 
  775000    1.9833193   -4.7905893    4920.7211            1 
  776000     2.037399   -4.8204108    4908.6612            1 
  777000    2.0310581   -4.7734202    4938.5246            1 
  778000    1.9621956    -4.803139    4915.9275            1 
  779000    1.9943776   -4.7658921    4917.5159            4 
  780000    2.0274883   -4.8206666     4915.538            1 
  781000    1.9780486   -4.8050669    4911.5178       -1e+20 
  782000    1.9693387   -4.7939265    4943.7085       -1e+20 
  783000    1.9745713   -4.8382359    4935.6858            1 
  784000    1.9853373   -4.7877744    4895.5159            2 
  785000    1.9906506   -4.7664937    4916.1444            1 
  786000    1.9762336   -4.7957497    4945.5689            1 
  787000     1.988717   -4.8134497    4920.3817            1 
  788000    1.9949831   -4.8167178    4917.7648       -1e+20 
  789000     2.005507   -4.7762714    4913.1638            1 
  790000    2.0053961   -4.8203134    4909.7363            1 
  791000    1.9973484   -4.7815845    4941.9744            1 
  792000    1.9803288   -4.8045659    4923.4957            1 
  793000    2.0264172   -4.7828498    4915.3355            1 
  794000    1.9858864   -4.8159037    4942.8044            1 
  795000    1.9988728   -4.7747325    4941.6305       -1e+20 
  796000    2.0563225   -4.7758578    4949.6077            1 
  797000    1.9540285   -4.8384985    4930.9252            1 
  798000     1.963079   -4.7861266    4933.3723            1 
  799000    1.9864839   -4.8493357    4905.4496       -1e+20 
  800000    2.0094421      -4.7941    4938.0344            1 
  801000    1.9670311    -4.782544    4965.5897            1 
  802000    2.0280286   -4.8013403    4931.1951            1 
  803000    1.9812164   -4.8489654    4923.0743            1 
  804000    2.0332273     -4.77829    4932.9829            1 
  805000    1.9608625   -4.8023151    4939.6834       -1e+20 
  806000    2.0376486   -4.7961508    4949.0465            1 
  807000    1.9847384   -4.7943651    4892.7782            1 
  808000     1.975343   -4.7894569     4923.773            1 
  809000    1.9923194   -4.7873664    4944.4132            1 
  810000    1.9841686   -4.8044774    4937.9525            1 
  811000    1.9881976   -4.7885156    4953.2509            1 
  812000    1.9887902   -4.7836078    4950.0572            1 
  813000    1.9541779   -4.8252916    4909.3271            1 
  814000     2.013468   -4.8268257    4906.1703            1 
  815000    1.9895289   -4.7713248    4933.4186            1 
  816000    2.0069516   -4.7933105    4926.3237            1 
  817000    1.9666387   -4.8631577    4920.9392            1 
  818000    2.0207952   -4.8317327    4916.6494            2 
  819000    2.0197519    -4.878065    4902.8421            3 
  820000    1.9781466   -4.8353684    4923.4318            2 
  821000    2.0346497   -4.8045281    4887.6016            1 
  822000    1.9866285   -4.8056344     4938.671            1 
  823000     1.985271   -4.7898846    4912.0519            1 
  824000    2.0016205   -4.8058944     4911.789            2 
  825000    1.9897246   -4.7796883    4921.0577            1 
  826000     2.013577   -4.8202182    4901.8523            2 
  827000    2.0143107   -4.7749026     4946.094            2 
  828000    1.9556109   -4.8037618    4948.1853            1 
  829000     2.013159    -4.799119    4917.2064            1 
  830000    1.9810793   -4.8030218    4925.7744       -1e+20 
  831000    1.9844185   -4.7450112    4969.4605            2 
  832000    1.9517335   -4.8038489    4934.0113            2 
  833000    2.0052114   -4.7624888    4921.6867            2 
  834000    2.0339654   -4.7806989    4912.7777            1 
  835000    2.0134274   -4.7919855    4944.8111            3 
  836000    2.0130417    -4.758791    4954.2997            1 
  837000    1.9725341   -4.8200507    4897.8907            1 
  838000    2.0165553    -4.824251    4901.0405            1 
  839000    2.0039156   -4.8083706    4928.1963            1 
  840000    2.0126208   -4.7954603    4935.3436            1 
  841000    1.9844825   -4.8372422    4885.5364            1 
  842000    1.9550718   -4.8212076    4901.2846            1 
  843000    2.0244879   -4.7888485    4931.1855            1 
  844000    1.9963489   -4.7948449    4939.2237            1 
  845000    2.0395958   -4.7833273    4922.7557            1 
  846000    2.0186129   -4.7568579    4943.5502            1 
  847000    1.9848428   -4.7690844    4934.7697            1 
  848000    2.0457858   -4.7984695    4924.1823       -1e+20 
  849000    2.0060848   -4.8255518    4907.9422            2 
  850000    1.9914744   -4.8075467    4913.1473            1 
  851000    1.9834088   -4.7838928    4920.8851            1 
  852000    2.0028244   -4.7928365    4914.5004            2 
  853000    1.9761288   -4.7963018    4916.0892            2 
  854000    1.9996189   -4.8248604    4908.8011            1 
  855000    2.0106893   -4.7854226    4908.9038            1 
  856000    2.0270505   -4.8306764    4896.7126            1 
  857000    1.9610455   -4.8162773    4921.1101            1 
  858000    1.9899103    -4.844953    4892.3008            1 
  859000    2.0251498   -4.8193948    4927.0387            1 
  860000    2.0319905   -4.8199957    4926.7953            1 
  861000    1.9915479   -4.8222145    4897.6658            4 
  862000    1.9987866   -4.7904578    4884.4832            1 
  863000     2.039113   -4.7797581     4965.791            1 
  864000    2.0102433   -4.8299355     4906.014            2 
  865000    1.9818733    -4.765396    4940.6845            1 
  866000    2.0114811   -4.8106592    4897.8717            1 
  867000    2.0113392   -4.7792124     4895.011            1 
  868000    1.9882735   -4.8261944    4922.5608            1 
  869000    1.9925204   -4.7519535    4938.5892            1 
  870000    1.9945057   -4.7434822    4970.0681       -1e+20 
  871000    1.9491258   -4.7959548    4940.8268            1 
  872000    2.0479294   -4.7886732    4887.8657            1 
  873000    2.0100557   -4.7742612    4934.3684            1 
  874000    1.9957169   -4.7546352    4915.4889       -1e+20 
  875000    1.9873702   -4.7897768    4900.5892            2 
  876000    2.0190138   -4.8015572    4883.1918       -1e+20 
  877000    1.9558129   -4.8246791    4887.5698            1 
  878000    2.0605728   -4.7929881    4910.0731            1 
  879000    2.0262397   -4.7889608    4932.2023            1 
  880000    2.0525433    -4.785984     4926.856            1 
  881000    1.9804239     -4.83579     4936.166            1 
  882000    2.0106822   -4.8107753    4915.1348            1 
  883000    1.9901222   -4.7937404    4899.1769       -1e+20 
  884000     2.021641   -4.7730428    4899.7429       -1e+20 
  885000    2.0270244   -4.8058609    4933.1138            1 
  886000    1.9742921   -4.8191961    4935.5166            1 
  887000    1.9731561   -4.8065915    4921.9056            1 
  888000    2.0153958   -4.7946375    4914.9137            1 
  889000    1.9721499   -4.8204334    4894.6241       -1e+20 
  890000    1.9901485   -4.8117027    4916.3516            1 
  891000    2.0063605    -4.730016     4928.657            1 
  892000    2.0015593   -4.7948583     4955.513            1 
  893000    1.9751869   -4.7778716    4910.3517            1 
  894000    1.9534351     -4.81199    4911.1235            1 
  895000    2.0126614   -4.7757691    4920.4194            1 
  896000    1.9894985   -4.7874798    4917.2707            2 
  897000    2.0097046   -4.7600034    4952.2666            1 
  898000    2.0191242   -4.8257712    4921.7548       -1e+20 
  899000    2.0356148   -4.8045304    4914.8344            2 
  900000    1.9838051   -4.8401689    4914.4536            1 
  901000    1.9599501   -4.7909777    4910.6015            2 
  902000    2.0169759   -4.8453664    4931.7251            1 
  903000    2.0629952   -4.7930655    4913.6016            1 
  904000    2.0057867   -4.7848781    4934.3172            1 
  905000    1.9981945   -4.8403605    4910.4402            1 
  906000    1.9999865   -4.7974441    4946.7106            1 
  907000    1.9908129   -4.7832311    4927.6327            1 
  908000     2.009279   -4.7573893    4985.0005            1 
  909000    1.9541632   -4.8089789    4931.6823            2 
  910000    1.9868236   -4.8030744    4937.3347            2 
  911000    2.0009812   -4.8039139    4896.4268            1 
  912000    2.0166227   -4.7970544     4944.982            1 
  913000    2.0001067   -4.8128044    4929.1029            2 
  914000    2.0325901   -4.7978937    4908.9573            2 
  915000    2.0057517    -4.786531    4898.3883            1 
  916000    2.0141202   -4.7819024    4950.1593            1 
  917000    1.9787979   -4.8028296    4915.0035            1 
  918000    1.9913419    -4.814647    4919.1815            1 
  919000    1.9840818   -4.8060736    4925.4194       -1e+20 
  920000    2.0147864   -4.7637606    4938.5552            1 
  921000    2.0267098   -4.7562031    4947.4815       -1e+20 
  922000     1.967344    -4.772323    4929.4433            1 
  923000     2.040926    -4.824137    4916.6165            1 
  924000    1.9706932   -4.7634225    4927.6697            1 
  925000    2.0012974   -4.7985562    4896.2396            2 
  926000    2.0020818    -4.809633    4913.6929       -1e+20 
  927000    2.0312818   -4.7865953    4919.0077            1 
  928000    1.9613483   -4.8450872    4927.2828       -1e+20 
  929000    1.9958439   -4.8501002    4886.6172            1 
  930000    1.9580982   -4.7515062     4955.973       -1e+20 
  931000    1.9977739   -4.8576513      4898.05            1 
  932000    1.9987427   -4.8437424    4894.2523            1 
  933000    2.0386186   -4.8238108    4973.6302            1 
  934000     1.990494   -4.7948268    4949.4794            1 
  935000    1.9793913   -4.7539707    4910.9595            1 
  936000    2.0544641   -4.8057347    4952.2018            1 
  937000    1.9494859   -4.7845421    4933.4517            1 
  938000    1.9773734     -4.83525    4914.6317            1 
  939000    1.9560985   -4.8197918    4880.1515            1 
  940000    2.0444844   -4.8297562    4891.6593            2 
  941000    1.9943327   -4.8014751    4915.4824            1 
  942000    1.9815035    -4.814306    4893.4153            1 
  943000    1.9985418   -4.7967042    4911.0709            1 
  944000    2.0261949   -4.8206009    4903.6948            1 
  945000    2.0156341   -4.7914052    4905.6277            1 
  946000    1.9985476    -4.838388    4895.7999            1 
  947000     1.992582   -4.8682425    4886.8582            1 
  948000     1.962164   -4.7842864    4918.1373            1 
  949000    1.9922457   -4.8364977    4907.5623       -1e+20 
  950000    1.9331607   -4.8239687    4918.9815            1 
  951000    2.0226493   -4.8390064    4876.5953            1 
  952000    1.9961176   -4.7917269    4949.6119            1 
  953000    1.9937914   -4.8218503    4902.6179            2 
  954000    2.0229081   -4.7859051    4884.1832            1 
  955000    2.0145862   -4.7504228    4955.9376            1 
  956000    2.0082249   -4.7965843    4937.8697            1 
  957000    1.9886476   -4.7828581    4920.6405            1 
  958000    1.9899398   -4.7523337    4920.4283            1 
  959000    1.9493148   -4.8291983    4922.6254            1 
  960000    2.0049794   -4.8198077    4929.8717            1 
  961000    2.0023724   -4.8078919    4942.4999            2 
  962000    1.9865216   -4.8488417     4924.254            1 
  963000    2.0073092   -4.8037596    4945.8321            1 
  964000    2.0109668   -4.7930993    4904.8158       -1e+20 
  965000    1.9809356   -4.8200812    4902.6985            3 
  966000    2.0070419    -4.808125    4930.8394            1 
  967000     1.980846   -4.7962581    4894.4217       -1e+20 
  968000     1.968703   -4.8068939     4942.151            1 
  969000    2.0101022   -4.7510322    4951.1416            1 
  970000    1.9798962   -4.8053288    4914.5375            2 
  971000    1.9622883   -4.7901233    4895.3537            1 
  972000    1.9602071   -4.8264355    4867.5956            1 
  973000    1.9772932   -4.8233446    4945.1626            1 
  974000    1.9839866   -4.7498168    4926.3739            1 
  975000    1.9783749    -4.773109    4950.6788            1 
  976000    2.0127088   -4.8227399    4932.1967            1 
  977000    2.0156175   -4.7979219    4950.4805            1 
  978000    2.0530995   -4.7890096    4913.8678       -1e+20 
  979000    1.9976971   -4.7511993    4905.1774            1 
  980000    2.0276661   -4.7874174    4932.5401            1 
  981000    2.0257992   -4.7416061    4942.1543            1 
  982000     2.044643   -4.7556047    4900.5031            3 
  983000    2.0210345    -4.768587    4911.2983            1 
  984000    1.9790047    -4.821316    4902.4836            1 
  985000      1.99036    -4.831933    4882.3755            1 
  986000    2.0200146   -4.7803477    4915.1487            1 
  987000    2.0377788   -4.7635025    4944.7576            1 
  988000    1.9690783   -4.8416379    4906.4645            2 
  989000    2.0410753   -4.7723386    4890.9072            1 
  990000     1.996159   -4.8006645    4897.5874            1 
  991000     1.979863   -4.7922301    4919.2029            1 
  992000    1.9927937   -4.8120362    4887.0993            1 
  993000     1.990006   -4.8558784    4921.0067            1 
  994000    1.9936793   -4.8066408    4913.5077            1 
  995000    1.9936319   -4.8058767    4895.4042            2 
  996000    1.9689717   -4.7981432    4959.0047            1 
  997000    1.9969572    -4.793071    4921.8384            1 
  998000    2.0052686   -4.7635996    4911.9354            1 
  999000     1.952266   -4.7827766    4956.7312            1 
 1000000     1.999692   -4.7836791    4913.3276            1 
 1001000    2.0209525   -4.8270242    4899.5516            1 
 1002000    2.0421341   -4.7938857    4898.8809            2 
 1003000    1.9933796   -4.8388763    4916.8707            1 
 1004000    2.0186785   -4.7629185     4930.696       -1e+20 
Loop time of 2022.19 on 48 procs for 1000000 steps with 4000 atoms

Performance: 85452.024 tau/day, 494.514 timesteps/s
99.4% CPU use with 48 MPI tasks x no OpenMP threads

MPI task timing breakdown:
Section |  min time  |  avg time  |  max time  |%varavg| %total
---------------------------------------------------------------
Pair    | 106.55     | 110.84     | 116.97     |  28.0 |  5.48
Neigh   | 20.036     | 20.434     | 21.742     |   7.3 |  1.01
Comm    | 109.85     | 118.19     | 126.33     |  37.1 |  5.84
Output  | 1.1212     | 1.1219     | 1.1395     |   0.2 |  0.06
Modify  | 1748.3     | 1759.8     | 1769.2     |  12.1 | 87.03
Other   |            | 11.78      |            |       |  0.58

Nlocal:        83.3333 ave          92 max          73 min
Histogram: 1 1 3 6 8 9 12 3 3 2
Nghost:        1431.69 ave        1453 max        1406 min
Histogram: 3 2 5 4 9 3 5 10 3 4
Neighs:        7714.54 ave        8737 max        6667 min
Histogram: 1 0 5 10 8 10 8 2 2 2
FullNghs:      15430.0 ave       17119 max       13403 min
Histogram: 2 0 5 2 9 10 11 4 1 4

Total # of neighbors = 740642
Ave neighs/atom = 185.16050
Neighbor list builds = 83500
Dangerous builds = 3164

#clear
#
#next RN
#
#jump SELF
Total wall time: 0:33:43
