
units lj                  # Use reduced LJ style units
atom_style atomic         # Uncharged point particles
atom_modify map hash      # Needed for indexing of clusters etc
                          # Used to be able to find where atoms are in relation to each other.

# Define a lattice with which to populate the simulation cell. With units
# set to 'lj' the second argument to the lattice command is the reduced
# density rho* and the spacings are multiples of that required to acheive
# that density. Also define a simulation cell called 'box' in lattice units
# and fill it with atoms. Here we're creating a box which is ten lattice
# constants in each direction.
lattice fcc 1.0 spacing 1 1 1                 # All equal sizes - gives the right reduced density.
Lattice spacing in x,y,z = 1.5874011 1.5874011 1.5874011

region box block 0 10 0 10 0 10 units lattice # Defines a region, "box", in lattice units
create_box 1 box                              # Creates a simulation box as specified above,
Created orthogonal box = (0.0000000 0.0000000 0.0000000) to (15.874011 15.874011 15.874011)
  3 by 4 by 4 MPI processor grid
                                              # with one type of atom
create_atoms 1 box                            # Creates particles on lattice points
Created 4000 atoms
  using lattice units in orthogonal box = (0.0000000 0.0000000 0.0000000) to (15.874011 15.874011 15.874011)
  create_atoms CPU = 0.002 seconds


# Set the mass of the first (and only) atom type.
mass 1 1.0

# Lennard-Jones interactions between particles, 3.5 sigma cut-off. Apply
# long range tail corrections to energy and pressure and set all coefficients
# to unity since we work in reduced units here. Note that this doesn't shift
# the potential such that it goes to zero at the cutoff. That would require
# pair_modify('shift', 'yes').
pair_style lj/cut  3.5      # non-GPU version
pair_modify tail  yes
pair_coeff 1  1  1.0  1.0   # Intearaction between 1 and 1 set with epsilon = 1 and sigma = 1

write_data data.*
System init for write_data ...
Neighbor list info ...
  update every 1 steps, delay 10 steps, check yes
  max neighbors/atom: 2000, page size: 100000
  master list distance cutoff = 3.8
  ghost atom cutoff = 3.8
  binsize = 1.9, bins = 9 9 9
  1 neighbor lists, perpetual/occasional/extra = 1 0 0
  (1) pair lj/cut, perpetual
      attributes: half, newton on
      pair build: half/bin/atomonly/newton
      stencil: half/bin/3d
      bin: standard

#############################
#   M E L T   S Y S T E M   #
#############################

velocity all create 2.4 1741580 mom yes dist gaussian # Assign velocities
                                                    # Temperature 2.4, random number seed, zero linear momentum
						                                                        # Gaussian distribution

timestep 0.002   # simulation timestep
thermo 1000       # output thermodynamic data every 1000 steps

# Define a fix  in this case with index 1 applied to all
# particles in the simulation. This fix is for simulations
# in the anisotropic NPT ensemble. Note that we use the MTK
# correction.
fix 1 all npt temp 2.4 2.4 0.1 iso 5.68 5.68 0.5 mtk yes tchain 5 pchain 5 # Use NPT ensemble
                                                                         # Set temperature and pressure and damping
                                                                         # Numbers of thermostats in chain and in barostat
run 1000         # run for 10000 steps
Per MPI rank memory allocation (min/avg/max) = 3.642 | 3.644 | 3.648 Mbytes
Step Temp E_pair E_mol TotEng Press Volume 
       0          2.4   -8.3859253            0   -4.7868253   -2.2405722         4000 
    1000    2.3665579   -4.4849007            0  -0.93595129    5.3827989    5183.0868 
Loop time of 0.222292 on 48 procs for 1000 steps with 4000 atoms

Performance: 777356.155 tau/day, 4498.589 timesteps/s
99.2% CPU use with 48 MPI tasks x no OpenMP threads

MPI task timing breakdown:
Section |  min time  |  avg time  |  max time  |%varavg| %total
---------------------------------------------------------------
Pair    | 0.090999   | 0.10089    | 0.11236    |   1.4 | 45.39
Neigh   | 0.017775   | 0.019045   | 0.021478   |   0.5 |  8.57
Comm    | 0.065687   | 0.077462   | 0.089246   |   2.0 | 34.85
Output  | 2.5902e-05 | 2.6401e-05 | 3.2808e-05 |   0.0 |  0.01
Modify  | 0.020956   | 0.02332    | 0.026433   |   1.1 | 10.49
Other   |            | 0.001545   |            |       |  0.69

Nlocal:        83.3333 ave          91 max          76 min
Histogram: 3 1 5 5 12 3 10 3 4 2
Nghost:        1382.46 ave        1409 max        1358 min
Histogram: 1 2 4 9 12 9 4 3 2 2
Neighs:        7343.96 ave        8183 max        6423 min
Histogram: 2 0 5 9 7 7 5 7 4 2

Total # of neighbors = 352510
Ave neighs/atom = 88.127500
Neighbor list builds = 88
Dangerous builds = 18

# Equilibrate just above the melting temperature to avoid step fn in T

fix 1 all npt temp 1.25 1.25 0.1 iso 5.68 5.68 0.5 mtk yes tchain 5 pchain 5
run 1000
Per MPI rank memory allocation (min/avg/max) = 3.642 | 3.644 | 3.648 Mbytes
Step Temp E_pair E_mol TotEng Press Volume 
    1000    2.3665579   -4.4849007            0  -0.93595129    5.3827989    5183.0868 
    2000    1.2409378   -5.8351603            0   -3.9742191    5.6352422    4349.8189 
Loop time of 0.219998 on 48 procs for 1000 steps with 4000 atoms

Performance: 785463.209 tau/day, 4545.505 timesteps/s
99.6% CPU use with 48 MPI tasks x no OpenMP threads

MPI task timing breakdown:
Section |  min time  |  avg time  |  max time  |%varavg| %total
---------------------------------------------------------------
Pair    | 0.094695   | 0.10018    | 0.10785    |   0.9 | 45.53
Neigh   | 0.01568    | 0.016293   | 0.017353   |   0.3 |  7.41
Comm    | 0.06917    | 0.077314   | 0.083081   |   1.2 | 35.14
Output  | 2.4043e-05 | 2.4853e-05 | 3.1449e-05 |   0.0 |  0.01
Modify  | 0.021605   | 0.024234   | 0.027401   |   1.2 | 11.02
Other   |            | 0.001956   |            |       |  0.89

Nlocal:        83.3333 ave          92 max          76 min
Histogram: 3 4 3 11 3 10 8 2 3 1
Nghost:        1552.58 ave        1572 max        1532 min
Histogram: 3 2 3 5 7 13 5 4 0 6
Neighs:        8747.67 ave        9575 max        7948 min
Histogram: 5 1 3 11 5 4 9 4 4 2

Total # of neighbors = 419888
Ave neighs/atom = 104.97200
Neighbor list builds = 75
Dangerous builds = 9


# Small amount of linear quench

fix 1 all npt temp 1.25 ${temp} 0.1 iso 5.68 5.68 0.5 mtk yes tchain 5 pchain 5
fix 1 all npt temp 1.25 0.13 0.1 iso 5.68 5.68 0.5 mtk yes tchain 5 pchain 5
run 2000
Per MPI rank memory allocation (min/avg/max) = 3.643 | 3.645 | 3.648 Mbytes
Step Temp E_pair E_mol TotEng Press Volume 
    2000    1.2409378   -5.8351603            0   -3.9742191    5.6352422    4349.8189 
    3000   0.78775915   -6.5068837            0   -5.3255404     5.727457     4050.335 
    4000   0.26160983   -7.3133736            0    -6.921057     5.617395    3766.7753 
Loop time of 0.448115 on 48 procs for 2000 steps with 4000 atoms

Performance: 771230.363 tau/day, 4463.139 timesteps/s
99.7% CPU use with 48 MPI tasks x no OpenMP threads

MPI task timing breakdown:
Section |  min time  |  avg time  |  max time  |%varavg| %total
---------------------------------------------------------------
Pair    | 0.21464    | 0.22474    | 0.23719    |   1.2 | 50.15
Neigh   | 0.023021   | 0.023854   | 0.024675   |   0.3 |  5.32
Comm    | 0.13504    | 0.15004    | 0.16486    |   1.8 | 33.48
Output  | 4.8665e-05 | 4.9783e-05 | 6.3398e-05 |   0.0 |  0.01
Modify  | 0.038745   | 0.043937   | 0.04876    |   1.4 |  9.80
Other   |            | 0.005492   |            |       |  1.23

Nlocal:        83.3333 ave          89 max          75 min
Histogram: 2 1 4 5 2 10 3 13 3 5
Nghost:        1713.04 ave        1729 max        1699 min
Histogram: 3 2 6 8 9 9 1 2 3 5
Neighs:        10216.2 ave       11032 max        9160 min
Histogram: 1 2 7 3 3 9 8 6 8 1

Total # of neighbors = 490380
Ave neighs/atom = 122.59500
Neighbor list builds = 104
Dangerous builds = 0

#############################
# F R E E Z E  S Y S T E M  #
#############################

# Define solid atoms. This closely follows ten Wolde  Ruiz-Montero and Frenkel  Faraday Discuss  1996  104  93-110
# Compute components of the per-atom q6 vector
compute q6 all orientorder/atom degrees 1 6 components 6 nnn NULL cutoff 1.3 # compute the Q6 parameter.
                                                                             # Use all neighbours within 1.3 unit cell.

# get number of connections
compute coord_number all coord/atom orientorder q6 0.5

# An atom is solid if it has 8 or more connections (of a possible 14)
variable is_solid atom c_coord_number>=8
group solid dynamic all var is_solid    # Must be dynamic to update
dynamic group solid defined

# do clustering
compute cluster solid cluster/atom 1.3 # Create a cluster where all atoms within are solid and max 1.3 units from another member

# define chunks one chunk per cluster
compute clus_chunks solid chunk/atom c_cluster nchunk every compress yes  # Says which atoms are in which chunk

# count the size of each chunk
compute size_chunks solid property/chunk clus_chunks count


# Find the maximum entry in the vector of chunk sizes
variable max_n equal max(c_size_chunks)


# Thermo style which includes this variable
thermo_style custom step temp pe vol v_max_n

thermo ${N}  # Print the thermo information every 100 steps
thermo 1000  

# Reset the npt fix at a lower temperature (below freezing)
fix 1  all npt temp  ${temp} ${temp}  0.1  iso  5.68  5.68  0.5  mtk yes tchain  5  pchain  5
fix 1  all npt temp  0.13 ${temp}  0.1  iso  5.68  5.68  0.5  mtk yes tchain  5  pchain  5
fix 1  all npt temp  0.13 0.13  0.1  iso  5.68  5.68  0.5  mtk yes tchain  5  pchain  5

dump dmp2 all dcd ${N} traj_${rand}.dcd
dump dmp2 all dcd 1000 traj_${rand}.dcd
dump dmp2 all dcd 1000 traj_462431.dcd


# fix rnuntil all halt ${N} v_max_n >= 3980 error soft message no   # Stop when solidified


run 1000000 # 5000000  # Run for this many steps
Neighbor list info ...
  update every 1 steps, delay 10 steps, check yes
  max neighbors/atom: 2000, page size: 100000
  master list distance cutoff = 3.8
  ghost atom cutoff = 3.8
  binsize = 1.9, bins = 9 9 9
  4 neighbor lists, perpetual/occasional/extra = 1 3 0
  (1) pair lj/cut, perpetual
      attributes: half, newton on
      pair build: half/bin/atomonly/newton
      stencil: half/bin/3d
      bin: standard
  (2) compute orientorder/atom, occasional
      attributes: full, newton on
      pair build: full/bin/atomonly
      stencil: full/bin/3d
      bin: standard
  (3) compute coord/atom, occasional
      attributes: full, newton on
      pair build: full/bin/atomonly
      stencil: full/bin/3d
      bin: standard
  (4) compute cluster/atom, occasional
      attributes: full, newton on
      pair build: full/bin/atomonly
      stencil: full/bin/3d
      bin: standard
Per MPI rank memory allocation (min/avg/max) = 9.392 | 9.396 | 9.401 Mbytes
Step Temp PotEng Volume v_max_n 
    4000   0.26160983   -7.3133736    3766.7753           32 
    5000   0.12965259   -7.5344128    3694.5178           50 
    6000   0.12898048   -7.5502579     3687.204          264 
    7000   0.13391856   -7.5633346    3684.3751          290 
    8000   0.13333161   -7.5842215    3682.0851          317 
    9000   0.13288974   -7.5964405    3680.3352          457 
   10000   0.13009316   -7.5958567    3676.4434          442 
   11000   0.13129652   -7.5955343    3673.5785          453 
   12000   0.13207123   -7.6065746    3674.0004          416 
   13000   0.12868588   -7.6076714    3675.3621          451 
   14000   0.12754561    -7.612747    3673.1865          375 
   15000   0.13124815   -7.6090859    3668.6574          187 
   16000   0.12936248   -7.6184876    3675.0621          455 
   17000   0.12982136   -7.6151632     3671.683          470 
   18000   0.13154777   -7.6158588    3667.7542          459 
   19000   0.12932845   -7.6161511    3670.6719          452 
   20000   0.12753124   -7.6177262    3674.2089          430 
   21000   0.12936049   -7.6202232     3669.905          582 
   22000   0.12965113   -7.6172487    3666.7689          524 
   23000   0.13012916   -7.6221774    3668.8501          534 
   24000   0.12904712    -7.625928    3667.7269          677 
   25000   0.13165964   -7.6290623    3668.0015          677 
   26000   0.13064011   -7.6254079    3665.3362          694 
   27000   0.12876357   -7.6261469    3666.4737          745 
   28000   0.12939846   -7.6283865    3668.5275          716 
   29000   0.12655896    -7.636347    3670.9913          713 
   30000   0.12852128   -7.6279132    3664.8882          705 
   31000   0.13086369   -7.6299947    3665.1329          751 
   32000   0.12732452   -7.6332561    3667.1144          792 
   33000   0.13104284   -7.6322921    3663.4053          810 
   34000   0.13194757   -7.6292226    3666.4334          798 
   35000    0.1301481   -7.6342418    3668.3541          819 
   36000   0.13139558   -7.6339693    3670.1374          818 
   37000   0.12992011   -7.6330739    3665.5737          818 
   38000   0.12886312   -7.6369963    3667.2874          809 
   39000   0.13145973    -7.631332    3664.9467          816 
   40000     0.127502   -7.6330063    3665.5374          802 
   41000   0.12952231   -7.6385855    3665.5096          807 
   42000   0.12860043   -7.6405439    3668.5757          850 
   43000   0.13022842   -7.6341286    3665.8357          854 
   44000   0.12736198       -7.633    3663.5153          872 
   45000   0.13294307    -7.628802    3661.7684          885 
   46000   0.12795684   -7.6373268    3665.9888          876 
   47000   0.12924826   -7.6408559    3666.4814          831 
   48000   0.13041065    -7.637566    3663.1131          846 
   49000   0.13117771   -7.6296957    3664.1282          826 
   50000    0.1282057   -7.6386136    3664.6965          829 
   51000   0.12899115   -7.6409723    3665.1135          883 
   52000   0.12903185   -7.6329777    3662.8191          875 
   53000   0.13066702   -7.6400755    3664.1883          901 
   54000   0.13132507    -7.641278    3665.7104          927 
   55000   0.12819201   -7.6328297    3664.0436          882 
   56000   0.12985198   -7.6363076    3662.6157          872 
   57000   0.12987916   -7.6347531    3663.6004          895 
   58000   0.13245866   -7.6431338    3665.4088          924 
   59000   0.12735343   -7.6382573    3663.0579          872 
   60000   0.13338959   -7.6365488    3662.0974          893 
   61000   0.12826794   -7.6424452    3665.7672          885 
   62000   0.12945665   -7.6439967    3665.7015          928 
   63000   0.12988673   -7.6410156    3663.2249          928 
   64000   0.13038186    -7.639344    3662.4624          925 
   65000   0.13296123   -7.6436509    3665.6821          913 
   66000   0.12640279   -7.6431525    3666.3531          910 
   67000   0.12954003   -7.6370989    3664.8624          922 
   68000   0.12782202   -7.6352842    3660.1977          922 
   69000   0.13047924   -7.6390052    3665.2426          896 
   70000   0.12955692   -7.6470663    3665.8739          945 
   71000   0.13008515   -7.6366365    3660.6202          921 
   72000   0.13006869   -7.6424469    3661.6016          932 
   73000   0.12717076   -7.6443933    3665.1451          943 
   74000   0.12921015   -7.6438705    3668.3936          930 
   75000   0.13126431   -7.6418203    3664.0668          915 
   76000   0.13263653   -7.6349152    3662.5271          919 
   77000   0.13213277    -7.638853    3665.4297          955 
   78000   0.13025747   -7.6497807    3672.1017          937 
   79000   0.13068081   -7.6389199    3664.8458          926 
   80000   0.12910015   -7.6340315    3663.4436          897 
   81000   0.12804099   -7.6370985    3662.6588          940 
   82000   0.12960391   -7.6417342    3665.1876          903 
   83000   0.13351825   -7.6443492    3667.0122          915 
   84000   0.13089017   -7.6400933    3665.6796          923 
   85000   0.12819709   -7.6350669    3661.5115          911 
   86000   0.13098831   -7.6398464    3664.3771          921 
   87000   0.12776152    -7.639243    3664.3999          905 
   88000   0.12756221   -7.6479343     3667.904          897 
   89000   0.13171471   -7.6407288    3664.9435          910 
   90000   0.13056002   -7.6359027     3661.677          915 
   91000   0.12684624   -7.6442089    3666.0237          909 
   92000   0.13034788   -7.6420409    3664.5442          920 
   93000     0.129765    -7.642483    3665.7278          943 
   94000   0.13193915   -7.6339159    3664.5723          897 
   95000   0.13220126   -7.6400399    3662.9478          939 
   96000   0.13087579   -7.6428505    3664.0576          945 
   97000   0.13064127   -7.6408936       3666.3          921 
   98000   0.13128065   -7.6439271    3667.0559          916 
   99000   0.12766781   -7.6401052    3663.5533          941 
  100000   0.12999581   -7.6387389    3668.3574          942 
  101000   0.12949915   -7.6439379    3665.3341          911 
  102000   0.12973395   -7.6353894    3660.3423          911 
  103000   0.12886625    -7.637714    3662.3617          962 
  104000    0.1306232   -7.6442114    3664.6697          929 
  105000   0.13195716   -7.6408798    3664.7101          963 
  106000   0.12875501    -7.637295    3661.3225          932 
  107000   0.12970639   -7.6393782    3663.6602          911 
  108000   0.12885921   -7.6435289    3665.0694          916 
  109000   0.13228768    -7.639724    3664.6647          898 
  110000   0.12940248   -7.6349383    3663.6522          918 
  111000   0.13046045   -7.6420583    3666.6062          933 
  112000   0.12825466   -7.6442898    3665.6693          912 
  113000   0.13246899   -7.6375298     3661.743          898 
  114000   0.12824493   -7.6346165    3662.8538          881 
  115000   0.13182221    -7.639877    3666.6532          931 
  116000   0.12802247   -7.6504693    3665.9775          898 
  117000   0.12936011    -7.636622    3662.5129          952 
  118000    0.1313917   -7.6390849       3663.5          917 
  119000   0.13035404   -7.6418912    3666.2694          931 
  120000   0.12935313   -7.6395495    3664.1077          887 
  121000   0.13311682   -7.6373961    3661.1808          900 
  122000   0.12936447   -7.6419427    3666.6064          943 
  123000    0.1299675   -7.6404324    3664.6276          900 
  124000    0.1299072   -7.6392795    3660.8758          919 
  125000   0.13123677   -7.6403475    3663.5911          923 
  126000   0.12946056   -7.6446351    3665.7192          929 
  127000   0.13088886   -7.6396299    3663.3103          948 
  128000   0.13134531   -7.6373491    3660.7457          929 
  129000   0.12986249   -7.6374078    3664.9663          932 
  130000   0.13192586    -7.641804    3665.8377          903 
  131000    0.1307831   -7.6414123    3664.1683          896 
  132000   0.13318848   -7.6409909    3665.4977          905 
  133000   0.13106828   -7.6377649    3662.5453          927 
  134000    0.1294355   -7.6384995    3664.3632          880 
  135000   0.12839847   -7.6467137    3668.2445          915 
  136000   0.12674455    -7.641877    3662.8356          920 
  137000     0.131951   -7.6427894    3666.0946          919 
  138000   0.13010928   -7.6421815    3664.7333          915 
  139000   0.13055724   -7.6349418    3662.9332          913 
  140000   0.13050012   -7.6397657    3663.4193          933 
  141000    0.1274481   -7.6417909    3667.6648          898 
  142000   0.13150179   -7.6412889    3664.6644          933 
  143000   0.12550423   -7.6443972    3667.7306          924 
  144000   0.13043305   -7.6382454    3664.7909          901 
  145000    0.1322313   -7.6439023    3667.1806          906 
  146000   0.12765753    -7.637276    3663.8854          954 
  147000   0.12910071   -7.6328465    3662.8726          945 
  148000    0.1297762   -7.6420118    3666.3633          915 
  149000   0.12909551   -7.6414711    3665.8741          949 
  150000   0.13250727   -7.6351544    3661.8334          910 
  151000   0.13142272   -7.6333911    3663.8918          904 
  152000   0.13229998   -7.6435215    3667.2835          923 
  153000   0.12896298   -7.6417218    3665.4343          905 
  154000   0.13106165   -7.6372631    3664.1612          925 
  155000   0.13054106   -7.6436507    3666.8348          904 
  156000   0.13249164   -7.6381582    3665.2526          893 
  157000   0.13063819   -7.6372134    3664.8577          941 
  158000   0.13411431   -7.6485601    3668.0884          924 
  159000   0.13199001   -7.6371459    3661.8309          913 
  160000   0.13379595   -7.6411275    3662.2811          911 
  161000   0.12906976   -7.6421249    3666.1177          887 
  162000    0.1294845   -7.6472374     3668.295          891 
  163000   0.13270547    -7.638418    3663.7525          898 
  164000   0.13330914   -7.6372375    3663.4437          909 
  165000   0.13130151   -7.6488713    3669.3878          898 
  166000    0.1289523   -7.6417212     3664.609          893 
  167000   0.13349113    -7.636724    3661.5616          920 
  168000   0.13009143   -7.6367105    3663.1057          916 
  169000   0.13035551   -7.6442919    3667.1752          916 
  170000   0.12818467   -7.6408324    3664.2396          913 
  171000    0.1296095   -7.6341331    3660.1806          931 
  172000    0.1316545   -7.6405031    3664.1982          925 
  173000   0.13032638   -7.6435437    3667.8021          924 
  174000   0.13309768     -7.64052    3662.9282          895 
  175000   0.13251664    -7.638368    3661.4177          926 
  176000   0.13105237   -7.6405575    3665.6171          894 
  177000   0.13006332   -7.6446607    3666.1365          897 
  178000   0.13037839   -7.6391704    3663.0337          889 
  179000    0.1297949   -7.6344352    3661.6428          975 
  180000   0.13383465   -7.6384524    3664.1911          915 
  181000   0.13370088    -7.642596    3667.3352          913 
  182000   0.12946895    -7.635919    3665.0558          921 
  183000   0.13067003   -7.6389186    3660.4925          921 
  184000   0.13210204   -7.6383611     3661.481          904 
  185000   0.12829341   -7.6417399    3665.0866          919 
  186000   0.12975023   -7.6460074    3666.3773          950 
  187000   0.12737954   -7.6397472    3662.5855          924 
  188000   0.13011751   -7.6439602    3662.8506          908 
  189000   0.12984802   -7.6389842    3664.6529          907 
  190000   0.13209975   -7.6428028    3666.9453          936 
  191000   0.12780242   -7.6414995    3664.2351          957 
  192000   0.12828052   -7.6329824    3660.5104          930 
  193000   0.12879518   -7.6422853    3664.3774          911 
  194000   0.12858323   -7.6371321    3662.6865          976 
  195000   0.12794621   -7.6391916    3662.7574          879 
  196000   0.12844911   -7.6411711    3663.7305          963 
  197000   0.13298017   -7.6411248    3664.3734          937 
  198000   0.13070035    -7.639231     3665.835          918 
  199000   0.13210505     -7.64298    3664.4537          919 
  200000   0.12667345   -7.6347134    3661.0135          967 
  201000   0.13191991   -7.6401739    3664.6436          935 
  202000   0.13186061   -7.6469663    3667.5598          944 
  203000    0.1331106   -7.6376724    3662.5893          929 
  204000   0.12804696    -7.637184    3662.7682          924 
  205000   0.13100983   -7.6468558    3663.7942          937 
  206000   0.13065266    -7.645517     3662.325          961 
  207000   0.12909167   -7.6386156    3660.8429          976 
  208000   0.13207713   -7.6438707    3663.5837          931 
  209000    0.1296371   -7.6422715    3663.5077          970 
  210000    0.1291268    -7.647992    3667.0601          980 
  211000   0.12786317    -7.641019    3665.2416          959 
  212000    0.1304563   -7.6395605    3661.1862          959 
  213000   0.12911377   -7.6399775    3664.6917          970 
  214000   0.13025804   -7.6407203    3664.6169          981 
  215000    0.1321834   -7.6433124    3664.4699          997 
  216000   0.13055483   -7.6433157    3664.6712          971 
  217000   0.12991618   -7.6353983    3661.1882          922 
  218000   0.12742457   -7.6422187    3663.1677          985 
  219000    0.1265103   -7.6489879    3666.4187          938 
  220000   0.13262784   -7.6438705    3662.7307         1003 
  221000   0.12964795    -7.639202    3661.3291          941 
  222000   0.13006078   -7.6466964    3662.9845          938 
  223000    0.1324844   -7.6508232    3667.1561          940 
  224000   0.13157529    -7.643933    3660.6189          969 
  225000    0.1299225   -7.6441961    3660.0143          939 
  226000   0.12722511   -7.6456638    3663.6529          985 
  227000   0.13171362   -7.6478273    3664.5222          951 
  228000   0.13183248   -7.6433183    3660.7551          974 
  229000   0.13029205   -7.6353966    3660.0727          969 
  230000   0.12691192    -7.646611    3662.6382          976 
  231000   0.12889175   -7.6428419    3665.9026          989 
  232000   0.13097875   -7.6506621    3664.4585          963 
  233000   0.12910815   -7.6394707    3659.8249          955 
  234000   0.12725677   -7.6447127    3662.9691         1012 
  235000   0.12911354   -7.6445385    3662.0773          945 
  236000   0.12687263   -7.6408985    3659.6466          971 
  237000   0.12837116   -7.6467557    3664.2482         1016 
  238000   0.12683673   -7.6429552    3661.9836         1004 
  239000   0.13210727   -7.6406199    3658.2067          992 
  240000   0.13019402   -7.6447658     3661.491          963 
  241000   0.12894597   -7.6472104    3663.6616         1013 
  242000   0.12776676   -7.6505565    3666.2084          968 
  243000   0.12924658   -7.6447012     3662.225         1012 
  244000   0.12853634   -7.6417481    3659.5512         1010 
  245000   0.12968249   -7.6454271    3662.9892         1028 
  246000   0.12938627   -7.6479052    3667.2622         1013 
  247000   0.13035158   -7.6478092    3662.7162          990 
  248000   0.12922997    -7.640778    3661.4518         1001 
  249000   0.12989126   -7.6421075    3661.4957          950 
  250000    0.1295886   -7.6481827    3662.0316         1018 
  251000   0.13088814   -7.6443706    3661.8395          955 
  252000   0.13190022   -7.6475575    3664.8624         1003 
  253000   0.13296304   -7.6440346    3665.5031          968 
  254000   0.12974824    -7.642959    3661.3945          997 
  255000   0.12985046   -7.6433305    3660.9185          993 
  256000   0.12938229   -7.6465514    3663.6063          993 
  257000   0.13137139   -7.6448694    3661.8656         1016 
  258000   0.12843647   -7.6469389    3661.7523          994 
  259000   0.13037954   -7.6471394    3664.7901          962 
  260000   0.12932986   -7.6447156    3662.2854          990 
  261000   0.13061154   -7.6427992    3660.0141         1027 
  262000   0.12937419   -7.6452682    3662.7428         1017 
  263000   0.12820095   -7.6461103     3664.379          944 
  264000   0.13166097   -7.6368395    3660.7234         1031 
  265000    0.1294988   -7.6435677    3663.6332         1000 
  266000   0.12906352   -7.6512306    3666.9491          995 
  267000   0.13122581   -7.6446731    3662.9335         1006 
  268000   0.12716084   -7.6424599    3659.8889         1001 
  269000    0.1322665   -7.6439747    3663.6399         1014 
  270000   0.12524684   -7.6456118    3663.6927         1008 
  271000   0.12854154   -7.6400646    3659.8085         1040 
  272000   0.13169386   -7.6448536    3662.1899         1007 
  273000   0.12839127   -7.6440861    3662.0151         1022 
  274000   0.13138988   -7.6478623    3666.5056         1005 
  275000   0.13054538   -7.6418167     3662.648          982 
  276000   0.13096362   -7.6414213    3661.1579         1024 
  277000   0.13213725   -7.6459039    3664.7784          987 
  278000   0.12874121   -7.6487025    3663.1171          983 
  279000   0.13185691     -7.63748    3658.1935          999 
  280000   0.12983985    -7.643267    3664.1797          979 
  281000   0.12790247   -7.6494137    3666.6611          984 
  282000   0.13141727    -7.645007    3660.4556         1007 
  283000   0.13146125    -7.641859    3662.2221          987 
  284000   0.13174114   -7.6477209    3663.4048          995 
  285000   0.13032314   -7.6466787    3662.5638          978 
  286000   0.12818803   -7.6406906    3662.0525          986 
  287000   0.12818778   -7.6461584    3661.8912          979 
  288000    0.1295914   -7.6476904     3666.965         1023 
  289000   0.13118296   -7.6507753    3661.6891         1037 
  290000   0.12921638   -7.6443534    3659.6282          971 
  291000    0.1325285   -7.6403686     3660.434          995 
  292000   0.13098908   -7.6485791    3664.8698         1016 
  293000   0.12931002   -7.6473844    3663.7089          966 
  294000   0.12903883   -7.6394877    3661.3202         1004 
  295000   0.12964819   -7.6453585    3662.6763          971 
  296000   0.12987875   -7.6460881    3664.5265         1013 
  297000   0.12862412   -7.6469583    3664.3763          983 
  298000   0.13070226   -7.6413294    3660.7668          997 
  299000    0.1267941   -7.6427136    3660.9119          979 
  300000   0.12921918   -7.6474667     3663.651          989 
  301000    0.1288922   -7.6415642    3660.7855          997 
  302000   0.13103736   -7.6451021    3660.7756          993 
  303000   0.12463601   -7.6472139    3664.3896         1005 
  304000   0.13008793   -7.6411727    3661.4921          980 
  305000   0.12960699   -7.6455984    3660.8044          994 
  306000   0.12968815   -7.6527379    3665.1167          992 
  307000   0.12961837   -7.6488255    3663.9612          991 
  308000   0.12952632   -7.6438878    3660.4157          979 
  309000   0.13246159   -7.6422518    3661.4484          973 
  310000   0.13173788   -7.6517626    3664.5667          994 
  311000   0.12990204   -7.6511808    3661.6969          988 
  312000   0.13204132   -7.6470744    3658.9346         1019 
  313000   0.13052625   -7.6473078    3662.0636         1038 
  314000   0.12674947    -7.653507    3665.2239          975 
  315000   0.12757524   -7.6469388    3661.6732          968 
  316000   0.13024971   -7.6431474    3658.7682         1007 
  317000   0.13166175   -7.6470005    3661.1271          984 
  318000   0.12875306   -7.6505722    3666.1215          974 
  319000   0.12863627   -7.6446022    3661.4336         1046 
  320000   0.12590431   -7.6492973    3663.4756         1029 
  321000   0.12777879   -7.6532634    3664.6776         1042 
  322000   0.13283636   -7.6490401    3662.5476         1022 
  323000    0.1309721   -7.6450391    3660.6614         1010 
  324000   0.13175654   -7.6457254    3662.8911          958 
  325000   0.13038518       -7.649    3663.4505         1022 
  326000    0.1320381   -7.6484328    3662.3987         1020 
  327000    0.1306675     -7.64601    3663.2437         1013 
  328000    0.1286673   -7.6394609    3658.0124          989 
  329000   0.13285119   -7.6482615    3662.3005         1012 
  330000   0.13261669    -7.644184    3660.2354         1046 
  331000   0.13128197   -7.6509463    3660.5751         1052 
  332000   0.13018164   -7.6557148    3664.0153         1032 
  333000   0.13077815   -7.6515045    3662.5291          996 
  334000   0.13595483   -7.6477171    3660.5506         1025 
  335000   0.12975086   -7.6505214    3660.3839         1032 
  336000   0.12783761   -7.6427989    3658.6194         1019 
  337000    0.1282808   -7.6494163    3662.1317         1015 
  338000    0.1289616    -7.654232    3664.9537          995 
  339000   0.12796849   -7.6461148    3662.7152         1022 
  340000   0.12815705   -7.6476725     3659.526          994 
  341000   0.13060719   -7.6501758    3661.4393         1043 
  342000   0.12976272   -7.6531156      3668.19         1013 
  343000   0.13030518   -7.6458078     3663.204         1071 
  344000   0.12775757   -7.6484693     3659.751         1049 
  345000   0.13357707   -7.6504676    3664.4319          964 
  346000   0.13161876   -7.6496681    3663.2431         1033 
  347000   0.12972118   -7.6440118    3661.1421         1026 
  348000   0.12808538   -7.6495396    3661.7587         1050 
  349000   0.13066689   -7.6533144    3664.1408         1082 
  350000   0.13035968   -7.6498033    3660.9414         1063 
  351000    0.1302431   -7.6522804    3661.8927         1052 
  352000   0.12860416    -7.646592    3661.5822         1093 
  353000    0.1275783   -7.6462422    3660.2904         1088 
  354000   0.12893811   -7.6532747    3662.7339         1050 
  355000   0.12931545   -7.6494094    3659.0792         1089 
  356000   0.12970407   -7.6434536    3658.2045         1074 
  357000   0.13134411    -7.650734    3662.4524         1068 
  358000   0.12585187   -7.6496038    3665.2691         1049 
  359000   0.12705861   -7.6436353    3661.1383         1087 
  360000   0.13038949   -7.6495149    3663.8591         1063 
  361000   0.12796613   -7.6449094    3662.4244         1063 
  362000   0.13102824    -7.648175    3658.4649         1086 
  363000   0.12646604   -7.6528792    3664.1899         1103 
  364000   0.13088391   -7.6487716    3661.7307         1083 
  365000   0.13064461   -7.6483052    3660.1397         1095 
  366000   0.13157826   -7.6454008    3660.5332         1082 
  367000   0.12768485   -7.6535135    3661.6386         1079 
  368000   0.13204096   -7.6573437    3663.2521         1038 
  369000   0.12999698    -7.650537    3662.7847         1071 
  370000   0.12995869   -7.6453242    3657.9793         1076 
  371000   0.12879783    -7.649851    3661.6562         1032 
  372000   0.13154649    -7.653037    3664.5734         1056 
  373000   0.13078151   -7.6439733    3660.3498         1056 
  374000   0.12935908   -7.6501172    3661.9735         1083 
  375000    0.1280023   -7.6472031    3661.2228         1067 
  376000   0.12921233   -7.6491938    3659.8235         1117 
  377000   0.13103135   -7.6525616    3663.5137         1065 
  378000   0.12970915   -7.6502911    3664.3847         1070 
  379000   0.12829276   -7.6467543    3660.8856         1089 
  380000   0.13211609    -7.648051    3661.9071         1118 
  381000   0.13003641   -7.6534356    3665.7175         1056 
  382000   0.12842934   -7.6496351    3662.7507         1072 
  383000   0.12964808   -7.6478169     3660.276         1075 
  384000   0.12960084   -7.6463779    3662.6114         1053 
  385000   0.13060298   -7.6534195    3663.8273         1021 
  386000    0.1299548   -7.6474223     3662.379         1085 
  387000   0.13155309   -7.6437644    3658.6524         1065 
  388000   0.12950609   -7.6488619    3661.6415         1108 
  389000   0.13143339   -7.6559587    3665.1829         1095 
  390000   0.12767641   -7.6467547    3661.1942         1072 
  391000   0.12544348   -7.6490518     3660.685         1078 
  392000    0.1285505   -7.6562093    3663.4268         1068 
  393000   0.12919537   -7.6509809    3662.8216         1046 
  394000   0.13198369   -7.6438447    3657.1825         1064 
  395000   0.12915144   -7.6427178    3659.1465         1061 
  396000   0.12822015   -7.6530771    3664.3953         1093 
  397000    0.1290935   -7.6508966    3661.0528         1070 
  398000   0.12817504   -7.6482828    3660.9917         1073 
  399000   0.13033685   -7.6535857     3664.068         1058 
  400000   0.13231782   -7.6480582      3662.88         1069 
  401000   0.13289976   -7.6428344    3656.7708         1091 
  402000   0.12683946   -7.6499658    3661.5608         1069 
  403000   0.12828607   -7.6540598    3664.3915         1099 
  404000   0.12892215   -7.6492809    3662.0556         1099 
  405000   0.12817496   -7.6495554    3662.0437         1078 
  406000   0.13053658   -7.6500307    3662.7617         1089 
  407000    0.1284069   -7.6533846    3663.2854         1073 
  408000   0.12845876   -7.6484334    3659.4644         1063 
  409000   0.13261278   -7.6522042    3662.9083         1069 
  410000     0.129341   -7.6522086      3661.23         1071 
  411000    0.1302003   -7.6521466    3662.2472         1128 
  412000   0.13335399    -7.645873     3660.437         1082 
  413000   0.12809952   -7.6456837    3657.8997         1138 
  414000   0.12637299   -7.6548843     3664.304         1097 
  415000   0.12900092   -7.6503235    3662.2178         1118 
  416000   0.12716032   -7.6444886    3658.6975         1084 
  417000   0.13154239   -7.6495684     3661.542         1050 
  418000   0.13014354   -7.6520902    3664.5051         1109 
  419000   0.13090957   -7.6536604    3662.1507         1107 
  420000   0.13025093   -7.6413214     3658.783         1108 
  421000   0.13108549   -7.6488421    3661.9922         1084 
  422000   0.12852568   -7.6485725    3660.2513         1116 
  423000   0.13070295   -7.6488722    3662.6359         1147 
  424000   0.13183695    -7.660142     3665.129         1102 
  425000    0.1299544   -7.6513764    3661.1562         1099 
  426000   0.12932026   -7.6460201    3660.4099         1137 
  427000   0.13278719   -7.6519262    3661.4709         1132 
  428000   0.12846928   -7.6542282    3662.9976         1162 
  429000   0.13363871   -7.6464146    3654.4977         1101 
  430000   0.13367332   -7.6476734    3660.8426         1137 
  431000   0.12935967   -7.6507806    3661.6063         1122 
  432000   0.12889359   -7.6582063    3663.3395         1127 
  433000   0.12855813   -7.6489819    3661.9682         1118 
  434000   0.12935616   -7.6482704    3658.3671         1144 
  435000    0.1335069   -7.6485241    3663.1793         1152 
  436000   0.12867496   -7.6524788     3662.301         1146 
  437000   0.12882168   -7.6508239    3660.5091         1148 
  438000   0.12966536   -7.6463816    3658.8599         1142 
  439000   0.13163148   -7.6520262    3662.1462         1146 
  440000   0.12861252   -7.6532789    3663.8596         1125 
  441000   0.13032405   -7.6472302    3659.3843         1123 
  442000   0.12928218   -7.6489205    3657.9237         1140 
  443000   0.12958814   -7.6528366    3663.9085         1204 
  444000   0.13071446    -7.650628    3660.1493         1216 
  445000   0.13158599   -7.6496561     3660.236         1256 
  446000   0.13183117   -7.6559756    3661.6415         1296 
  447000   0.13013581   -7.6574766    3662.4157         1282 
  448000     0.129854    -7.651164    3659.5671         1259 
  449000   0.13020903   -7.6430146    3658.9912         1256 
  450000   0.12979329   -7.6508351    3662.0298         1263 
  451000   0.12909455   -7.6561584    3666.0731         1264 
  452000   0.12884122   -7.6512639    3661.3267         1272 
  453000   0.12855105   -7.6524712    3660.1804         1258 
  454000   0.13298764   -7.6556496    3660.5584         1296 
  455000   0.13228277    -7.654615    3664.7718         1215 
  456000   0.13299627   -7.6479872    3658.4621         1284 
  457000   0.13151174   -7.6485216    3661.1366         1223 
  458000   0.13039186   -7.6599285    3664.5572         1261 
  459000   0.13225909   -7.6559046    3662.2949         1262 
  460000   0.12903011   -7.6497615    3659.6763         1260 
  461000   0.12793639   -7.6538729    3659.2258         1218 
  462000   0.12926066   -7.6603395    3667.0429         1222 
  463000   0.13021777   -7.6573803    3660.5007         1260 
  464000   0.13294479    -7.651205    3658.1691         1236 
  465000   0.12820092   -7.6511961    3661.7568         1260 
  466000   0.13032848   -7.6586687    3663.2591         1296 
  467000   0.13202171   -7.6519796    3661.1243         1184 
  468000   0.12766766   -7.6517108    3657.7966         1226 
  469000   0.13048738   -7.6560178    3664.0813         1229 
  470000   0.13149093   -7.6588851    3662.7108         1267 
  471000    0.1284608   -7.6544395     3658.788         1257 
  472000   0.13188971   -7.6499154    3660.6215         1217 
  473000   0.13020437   -7.6614268    3664.8712         1252 
  474000   0.12819161   -7.6560219    3659.6728         1228 
  475000   0.12965504   -7.6508795    3656.9445         1240 
  476000   0.12891317   -7.6525915    3661.5296         1219 
  477000   0.12765135   -7.6601805     3664.046         1225 
  478000   0.12649407   -7.6521316    3661.6341         1240 
  479000   0.12854702   -7.6538834    3656.9785         1222 
  480000   0.13093573   -7.6526198    3660.3056         1232 
  481000   0.12953498   -7.6558771    3664.2693         1244 
  482000   0.12565483   -7.6541676    3659.0663         1283 
  483000   0.12577336   -7.6501144    3661.0981         1219 
  484000   0.12963264   -7.6581888    3664.2923         1221 
  485000   0.13137121   -7.6538394    3660.4853         1254 
  486000   0.12775661   -7.6464551    3658.6568         1230 
  487000   0.13041808   -7.6580301     3660.145         1256 
  488000   0.12936425    -7.657513    3660.6765         1231 
  489000   0.12975343   -7.6510018    3656.4164         1242 
  490000   0.13119168   -7.6544015    3660.0319         1226 
  491000   0.12639974   -7.6604297    3663.6637         1230 
  492000   0.13001004    -7.658308    3661.1617         1262 
  493000   0.12788155   -7.6545335    3662.0147         1240 
  494000   0.12947794   -7.6458444    3657.1504         1236 
  495000   0.13096787    -7.653614    3662.2297         1196 
  496000   0.13004176   -7.6579861    3663.9563         1289 
  497000   0.12949657    -7.652236    3660.9943         1267 
  498000   0.12917967   -7.6490051    3656.5601         1271 
  499000   0.12978956   -7.6540083    3660.7054         1273 
  500000   0.12793506   -7.6602963    3664.8019         1241 
  501000   0.12998253   -7.6494169    3659.8529         1243 
  502000   0.12806234   -7.6539181    3658.8205         1278 
  503000   0.13089059   -7.6605356    3663.4227         1245 
  504000   0.12793312   -7.6572262    3661.9637         1251 
  505000   0.12922128    -7.655235    3658.6995         1233 
  506000   0.13054426   -7.6530397    3659.8823         1217 
  507000   0.12995313   -7.6589882    3661.8093         1229 
  508000   0.13240345   -7.6541912    3657.1828         1269 
  509000   0.13227893   -7.6547846    3661.4391         1258 
  510000   0.13090186   -7.6577158    3662.7526         1245 
  511000   0.12796491    -7.654496    3659.5621         1235 
  512000   0.12935188   -7.6545374    3660.4306         1245 
  513000   0.13074927   -7.6593837    3661.6963         1241 
  514000   0.13099194   -7.6565946    3661.3246         1239 
  515000   0.12854029   -7.6491998    3658.3399         1198 
  516000   0.12756598   -7.6520307    3659.3643         1292 
  517000    0.1293108   -7.6592749     3661.719         1257 
  518000   0.13027811   -7.6541825    3661.2202         1243 
  519000   0.12883988   -7.6466865    3656.8541         1228 
  520000   0.12791409    -7.660535    3661.9448         1253 
  521000   0.13086873   -7.6572594    3661.5361         1232 
  522000   0.13390189   -7.6534874     3655.333         1224 
  523000   0.12710658   -7.6512741    3659.8661         1195 
  524000   0.13115455   -7.6608874    3662.2394         1255 
  525000   0.12791752   -7.6579443    3661.2057         1208 
  526000   0.12881249   -7.6535136    3658.4402         1198 
  527000   0.13051962   -7.6553079    3660.3498         1234 
  528000   0.12995096   -7.6612536    3664.0102         1240 
  529000   0.13093923   -7.6544588    3659.5432         1208 
  530000   0.13106498   -7.6529118    3659.9973         1261 
  531000   0.12970727    -7.656431    3660.7013         1278 
  532000   0.13081119   -7.6512272    3659.5401         1230 
  533000   0.13020158    -7.653596    3659.9847         1260 
  534000   0.12884718   -7.6552749    3659.7395         1226 
  535000   0.12984023   -7.6562447    3662.7544         1235 
  536000   0.13034983   -7.6526721    3662.3041         1246 
  537000   0.13022635   -7.6471055    3655.8285         1271 
  538000   0.13099615   -7.6558421     3658.513         1274 
  539000   0.13140268    -7.656828    3662.7907         1309 
  540000   0.13095203   -7.6573572    3660.9048         1320 
  541000   0.12995084   -7.6483567    3652.7452         1287 
  542000   0.13174668   -7.6555405    3660.2549         1323 
  543000   0.13063569   -7.6586139    3661.6942         1390 
  544000   0.12984245    -7.658876    3660.9784         1337 
  545000   0.12869814   -7.6481889    3654.7723         1320 
  546000   0.13185537   -7.6559749    3660.8573         1297 
  547000   0.12996442   -7.6563265    3662.5369         1285 
  548000   0.12877891    -7.650507    3660.0612         1359 
  549000   0.13251076   -7.6516344    3657.9217         1319 
  550000   0.13211259   -7.6533627    3659.8498         1310 
  551000    0.1279173   -7.6607782    3662.0017         1322 
  552000   0.12681694    -7.658175    3660.4627         1312 
  553000   0.13088245    -7.652322    3657.0994         1340 
  554000   0.13149617   -7.6569434    3660.1996         1313 
  555000   0.12878575   -7.6608032    3660.7116         1323 
  556000   0.12657292   -7.6588834    3659.1753         1343 
  557000   0.13298769   -7.6552499    3659.8685         1360 
  558000   0.12941216   -7.6570329     3658.002         1349 
  559000   0.13049281   -7.6590258    3659.9801         1388 
  560000   0.12689011   -7.6557632    3658.1711         1391 
  561000   0.13085257    -7.651869    3658.9349         1379 
  562000   0.13133637   -7.6615533    3660.8422         1349 
  563000   0.12946616   -7.6620603    3663.4269         1389 
  564000   0.12954132   -7.6504899    3656.7088         1408 
  565000   0.13066012   -7.6598827    3660.0006         1350 
  566000   0.12935303   -7.6587633    3664.7723         1398 
  567000   0.12860577   -7.6537315    3655.9775         1373 
  568000   0.13107452   -7.6535526    3659.6594         1360 
  569000    0.1330147   -7.6612738    3661.8964         1376 
  570000    0.1299536    -7.663154    3663.6177         1381 
  571000   0.12799818   -7.6592219    3656.5041         1384 
  572000   0.13039934   -7.6605081     3658.124         1398 
  573000    0.1287897   -7.6591985    3661.5382         1345 
  574000   0.13075918   -7.6566563    3660.8717         1371 
  575000   0.13346083   -7.6543242    3659.6415         1383 
  576000   0.13356283   -7.6611177    3659.0218         1378 
  577000   0.13170991   -7.6624019    3659.6415         1340 
  578000   0.13166251   -7.6573109    3657.9007         1322 
  579000   0.13139397    -7.655761     3659.205         1376 
  580000   0.13259374   -7.6633045    3662.7522         1372 
  581000   0.13335051    -7.660014    3658.4348         1369 
  582000   0.12945436   -7.6540076    3657.3085         1375 
  583000   0.13039504   -7.6591336    3659.9707         1365 
  584000   0.12762921   -7.6609367    3660.6399         1372 
  585000   0.13033642   -7.6550035    3658.8599         1354 
  586000   0.13100433   -7.6597319    3661.3475         1343 
  587000    0.1328341   -7.6604218     3663.275         1358 
  588000   0.13081979   -7.6556055    3659.1753         1336 
  589000    0.1290951   -7.6530376    3658.4325         1379 
  590000   0.13185769    -7.659149    3662.6977         1329 
  591000   0.12893062   -7.6577581    3661.5373         1369 
  592000   0.13201021   -7.6558476    3659.0555         1392 
  593000   0.12954247   -7.6543741    3659.5735         1370 
  594000   0.12910235   -7.6596574    3661.7838         1347 
  595000   0.12812551   -7.6592483    3662.1532         1342 
  596000    0.1297098   -7.6555278    3655.5334         1384 
  597000   0.12870611   -7.6553504    3659.5203         1383 
  598000   0.12970076   -7.6594044    3661.8757         1393 
  599000   0.12836356   -7.6598189    3658.9002         1367 
  600000   0.12934077   -7.6532069    3655.9463         1367 
  601000   0.13181855   -7.6558558    3661.6945         1394 
  602000   0.13151927   -7.6587118    3662.1538         1343 
  603000   0.12965438   -7.6497515    3655.9212         1392 
  604000   0.13473715   -7.6569173    3659.7406         1329 
  605000   0.12987875   -7.6605136    3662.7986         1371 
  606000   0.12914726   -7.6626101    3662.4891         1400 
  607000   0.12981083   -7.6566967    3658.5693         1371 
  608000   0.13049225   -7.6558472    3659.2928         1366 
  609000   0.12765299   -7.6652308    3664.0586         1322 
  610000   0.12750573   -7.6598456    3659.7976         1394 
  611000   0.12920208   -7.6527011    3658.8286         1405 
  612000   0.12967697   -7.6519374    3660.0652         1322 
  613000   0.13002317   -7.6573144    3660.7652         1331 
  614000   0.13024146   -7.6596733    3661.4101         1384 
  615000   0.13046991   -7.6554678    3658.9184         1345 
  616000   0.12842256   -7.6618287    3658.1954         1395 
  617000   0.13358031   -7.6607853    3662.3622         1341 
  618000    0.1295445   -7.6574656    3659.7219         1368 
  619000   0.12982903   -7.6531022    3657.4241         1307 
  620000   0.13238117   -7.6616917    3662.5116         1345 
  621000   0.13186775   -7.6568801    3660.6848         1371 
  622000   0.13420875   -7.6542231    3656.5013         1401 
  623000   0.13121332   -7.6573841    3660.3669         1350 
  624000   0.13175176   -7.6616693    3662.8785         1335 
  625000   0.13216999    -7.658697    3660.7427         1384 
  626000   0.13166859   -7.6527255    3657.6883         1357 
  627000   0.12939271   -7.6566481    3658.5017         1341 
  628000   0.12818857   -7.6626444    3661.9703         1327 
  629000    0.1289607   -7.6579129    3660.4005         1345 
  630000   0.12954403   -7.6517366     3655.525         1357 
  631000   0.12941048   -7.6615223    3660.1302         1331 
  632000   0.13035816   -7.6574847    3660.2557         1369 
  633000   0.12932197   -7.6490487    3655.8139         1341 
  634000    0.1298095   -7.6594832    3658.5902         1322 
  635000   0.12961572     -7.66159    3661.9297         1353 
  636000   0.13123267    -7.656951      3657.82         1355 
  637000   0.12792115   -7.6564747    3657.4304         1372 
  638000   0.12967175   -7.6596353    3660.2862         1373 
  639000   0.13110703   -7.6520946    3655.7817         1393 
  640000   0.13394469   -7.6571415    3659.1768         1389 
  641000   0.12872654   -7.6570955    3661.4977         1312 
  642000   0.13132384    -7.655776    3658.9215         1395 
  643000   0.12925046   -7.6577441    3660.6433         1361 
  644000   0.12931059   -7.6604537    3661.1162         1377 
  645000   0.13102297   -7.6547427    3658.3091         1372 
  646000   0.12975394   -7.6568968    3657.1102         1387 
  647000   0.12780441   -7.6611945    3662.9845         1352 
  648000    0.1323684   -7.6623256     3660.629         1357 
  649000   0.12995613   -7.6531614    3656.4509         1375 
  650000   0.12967333   -7.6552366    3657.7292         1355 
  651000   0.13224937   -7.6581817    3662.1625         1407 
  652000   0.13036081    -7.659017    3660.7643         1376 
  653000   0.13112115   -7.6506928    3659.6417         1385 
  654000   0.13238501   -7.6585463    3660.5739         1367 
  655000   0.13024212   -7.6609475    3663.2675         1332 
  656000   0.12969329   -7.6547872    3659.0194         1379 
  657000   0.12804416   -7.6564026    3658.7659         1307 
  658000   0.12785382   -7.6633657    3663.2072         1379 
  659000   0.13039542   -7.6566714    3659.6245         1387 
  660000   0.13098653   -7.6526112    3658.1945         1384 
  661000   0.13312183    -7.656354    3661.8891         1405 
  662000   0.13007135   -7.6584469    3662.3064         1404 
  663000   0.12809678   -7.6570623    3660.0049         1367 
  664000   0.13163277   -7.6520523    3656.9476         1411 
  665000   0.12991234   -7.6567907     3661.172         1380 
  666000   0.12967509   -7.6563485    3660.9714         1370 
  667000   0.12958057   -7.6618862    3659.1277         1386 
  668000   0.12806483   -7.6590038    3657.2909         1376 
  669000   0.12827128   -7.6626561    3661.0336         1387 
  670000   0.13329458   -7.6575869    3660.3833         1359 
  671000   0.12932152   -7.6515987    3656.0779         1354 
  672000   0.13233985   -7.6590145    3659.5269         1390 
  673000   0.13121365   -7.6630801    3664.9297         1384 
  674000   0.12660867   -7.6576547     3660.017         1406 
  675000   0.12825335    -7.654129    3658.0666         1351 
  676000    0.1322723   -7.6602434    3658.6489         1367 
  677000   0.13255284   -7.6577081    3661.0906         1361 
  678000   0.12800389   -7.6538843    3660.2282         1371 
  679000   0.12971525   -7.6538125    3659.1471         1337 
  680000   0.12870803   -7.6597992    3657.4131         1368 
  681000   0.12659391   -7.6647165    3664.1391         1393 
  682000   0.12951287   -7.6608479    3659.9569         1345 
  683000   0.12973585   -7.6579796    3655.0856         1371 
  684000   0.12835284   -7.6635065    3664.5945         1365 
  685000   0.13274683   -7.6576085    3662.3343         1387 
  686000   0.12856818   -7.6586338    3657.0109         1359 
  687000   0.12958992   -7.6519752    3658.5069         1363 
  688000   0.12763518   -7.6637152     3663.657         1356 
  689000   0.13110242   -7.6583075    3658.9384         1390 
  690000    0.1285331   -7.6533996    3657.8736         1394 
  691000   0.13113123   -7.6599904    3661.7364         1401 
  692000   0.13203109   -7.6567449    3657.1623         1371 
  693000    0.1297825   -7.6598431     3659.764         1374 
  694000   0.13073511   -7.6630814    3662.1109         1409 
  695000   0.12833405   -7.6574756     3657.131         1340 
  696000   0.12924018   -7.6535629    3657.9314         1373 
  697000   0.12942614   -7.6598738    3661.2869         1343 
  698000   0.13126314   -7.6574666    3660.2936         1392 
  699000   0.13234224   -7.6538312    3657.1506         1394 
  700000   0.12951836   -7.6606631    3660.8879         1350 
  701000   0.12781052   -7.6589443    3659.4612         1362 
  702000   0.12860095   -7.6644481    3661.4893         1366 
  703000   0.12911397   -7.6570047    3660.0885         1379 
  704000   0.12730834   -7.6554206    3656.9925         1358 
  705000   0.12950937   -7.6578228    3661.4148         1395 
  706000    0.1309971   -7.6605984    3662.3854         1391 
  707000   0.12752947   -7.6534636    3650.5636         1371 
  708000   0.13030099   -7.6606873     3657.984         1382 
  709000   0.13343398   -7.6595331    3662.5317         1382 
  710000   0.13053639   -7.6564455    3661.4293         1395 
  711000   0.13143481   -7.6555606    3658.4311         1373 
  712000   0.13137636   -7.6583447    3660.2508         1394 
  713000   0.13077195   -7.6576937    3657.6987         1363 
  714000   0.13171399   -7.6583135    3660.8196         1358 
  715000   0.12807235   -7.6642074    3664.5329         1378 
  716000     0.131063   -7.6533684    3658.2795         1361 
  717000   0.13265436   -7.6524792    3661.0099         1404 
  718000   0.12938568   -7.6645219    3664.3177         1358 
  719000   0.13290049   -7.6590666    3660.0053         1372 
  720000   0.13106674   -7.6535923    3658.0386         1359 
  721000   0.12907468   -7.6592412    3659.2189         1396 
  722000   0.12763944   -7.6625825    3657.8731         1360 
  723000   0.13087536   -7.6558073    3659.5971         1345 
  724000   0.13146971   -7.6589485    3661.7772         1362 
  725000   0.12907035   -7.6576128    3661.9294         1394 
  726000   0.12838368   -7.6497259    3656.4908         1363 
  727000   0.12881001   -7.6573068    3657.3818         1358 
  728000   0.12849293   -7.6606374    3659.9684         1382 
  729000   0.12816815   -7.6626508    3662.7548         1368 
  730000   0.13069873   -7.6565818    3656.9048         1358 
  731000    0.1307072   -7.6581982    3660.5379         1368 
  732000    0.1292018   -7.6667188    3665.8735         1363 
  733000   0.12704866   -7.6559801     3660.539         1364 
  734000   0.12877912   -7.6524259     3657.952         1371 
  735000   0.12832067   -7.6588941    3659.1776         1364 
  736000   0.12651211   -7.6661824    3662.5532         1393 
  737000   0.13099028   -7.6608989    3660.4518         1372 
  738000   0.13234539   -7.6557624    3656.1446         1382 
  739000   0.13187521   -7.6569831    3660.2282         1370 
  740000   0.12953859   -7.6603496     3664.198         1346 
  741000   0.12978472   -7.6588961     3659.191         1377 
  742000   0.12747283   -7.6561586    3658.3577         1380 
  743000   0.12946054   -7.6581714    3658.8948         1349 
  744000   0.12901096    -7.662155    3662.7051         1363 
  745000   0.12978692   -7.6569179    3660.9261         1372 
  746000   0.13050135   -7.6566075    3660.0844         1385 
  747000   0.13070959   -7.6628341     3661.693         1365 
  748000   0.12885245   -7.6573118    3657.0826         1382 
  749000   0.12884099   -7.6573966    3658.6239         1377 
  750000   0.13186063   -7.6588392    3661.4578         1389 
  751000   0.12982607   -7.6596764    3663.2749         1366 
  752000   0.13304433   -7.6556322    3660.0916         1390 
  753000   0.12973845   -7.6630319    3662.9755         1344 
  754000   0.12976722   -7.6582686    3660.6723         1386 
  755000     0.130789    -7.654701    3655.6068         1351 
  756000   0.12816536   -7.6599087    3659.8877         1388 
  757000   0.13232444   -7.6612858    3660.4959         1408 
  758000    0.1311536   -7.6534865    3659.5108         1395 
  759000   0.12867827   -7.6592779    3659.8404         1379 
  760000   0.12948515   -7.6677422    3665.0849         1382 
  761000   0.13010265   -7.6585982    3658.8153         1336 
  762000   0.13012547   -7.6539072    3658.7347         1347 
  763000   0.12857336   -7.6552577    3661.5751         1342 
  764000   0.13100982   -7.6637992    3662.4799         1387 
  765000   0.13220618   -7.6589664    3660.2626         1354 
  766000   0.13105239   -7.6584095     3658.628         1361 
  767000   0.13195945   -7.6575618    3661.1631         1359 
  768000   0.13002156   -7.6690525    3662.7771         1342 
  769000   0.12949172   -7.6555204     3658.841         1361 
  770000   0.12882636   -7.6550603     3658.245         1366 
  771000   0.13423182   -7.6594769    3664.3261         1350 
  772000   0.12934054   -7.6589291    3661.5356         1362 
  773000   0.13035314   -7.6602678     3658.445         1327 
  774000   0.12844788   -7.6563199    3660.7305         1351 
  775000   0.12820891   -7.6612891     3660.372         1409 
  776000   0.12997935   -7.6523777    3659.9235         1374 
  777000   0.13021868   -7.6493732    3656.2285         1374 
  778000    0.1319192   -7.6581323    3660.5034         1367 
  779000   0.12801481   -7.6632221    3660.5365         1381 
  780000   0.12897681   -7.6569287    3659.4248         1352 
  781000   0.13029952   -7.6578527    3658.4864         1404 
  782000   0.12830423   -7.6606866     3661.474         1363 
  783000   0.13082026   -7.6639364    3660.6778         1368 
  784000   0.13187372   -7.6606163    3658.3156         1387 
  785000   0.13263168   -7.6553504    3658.3774         1381 
  786000   0.12941144   -7.6615534    3659.4631         1378 
  787000   0.12845179   -7.6637057    3662.3509         1337 
  788000   0.12941187   -7.6593238    3659.0668         1338 
  789000   0.13163663   -7.6550514    3656.9298         1373 
  790000   0.13369976   -7.6572376    3659.3854         1360 
  791000   0.12877111   -7.6596909    3663.1287         1363 
  792000   0.12711687   -7.6554572    3660.1148         1386 
  793000   0.13273522   -7.6523871    3659.1291         1377 
  794000   0.13130591   -7.6632145    3661.4427         1375 
  795000   0.13063972   -7.6659945    3664.3204         1375 
  796000   0.12996101   -7.6546813    3658.0878         1359 
  797000   0.12895525    -7.660189    3657.0239         1389 
  798000   0.12699082   -7.6641512    3662.1865         1374 
  799000   0.12982468   -7.6576307    3659.6793         1395 
  800000   0.12977828   -7.6546962    3658.6728         1361 
  801000    0.1304524   -7.6588311    3659.6701         1380 
  802000   0.13129626   -7.6554558    3661.2783         1369 
  803000   0.12825284   -7.6577041    3658.7303         1395 
  804000   0.13000707   -7.6627417      3660.85         1400 
  805000    0.1311735   -7.6609681    3661.6103         1355 
  806000   0.12950702   -7.6588691    3659.5991         1355 
  807000   0.13298152   -7.6547444    3657.7955         1360 
  808000   0.12989558   -7.6605663    3659.8547         1374 
  809000   0.13203869   -7.6644348    3662.2255         1367 
  810000   0.13123798   -7.6589091    3658.6092         1369 
  811000   0.13015588    -7.657702    3657.7222         1358 
  812000   0.12546772   -7.6593228    3659.7128         1403 
  813000    0.1288037   -7.6670566    3661.6516         1383 
  814000   0.12835222   -7.6607745    3659.2285         1373 
  815000   0.13167336   -7.6593769     3656.903         1373 
  816000   0.12887266   -7.6532218    3656.4937         1350 
  817000   0.13141859   -7.6620137    3659.8414         1387 
  818000   0.13152085   -7.6588737    3661.4865         1360 
  819000   0.12908775   -7.6535037    3660.1857         1394 
  820000   0.12800295   -7.6565641    3660.2344         1341 
  821000   0.12986777   -7.6615024    3664.6797         1346 
  822000   0.12943309   -7.6611207    3659.5638         1402 
  823000    0.1273212   -7.6591862     3658.307         1362 
  824000   0.12799524   -7.6512267    3656.0278         1338 
  825000   0.12777146   -7.6612754    3660.4579         1359 
  826000    0.1334341   -7.6654366    3660.5091         1348 
  827000   0.13184781   -7.6560241     3654.831         1381 
  828000   0.12979174   -7.6569282    3659.1398         1371 
  829000   0.13216552   -7.6635671    3661.4871         1392 
  830000   0.13051727   -7.6595736     3659.408         1413 
  831000   0.12855146   -7.6579104    3660.7399         1356 
  832000   0.13134633    -7.662429    3662.9637         1395 
  833000   0.12915839   -7.6549745     3656.789         1367 
  834000   0.12877961   -7.6613884    3660.2072         1387 
  835000   0.13026527   -7.6623907    3662.0131         1405 
  836000   0.13058716   -7.6589102    3659.2174         1438 
  837000   0.13241862   -7.6555872    3656.2898         1414 
  838000   0.13313825   -7.6633955    3662.4657         1385 
  839000    0.1314065   -7.6605254    3660.2551         1383 
  840000    0.1270547   -7.6570015    3657.8039         1416 
  841000   0.13163826   -7.6557441    3655.3769         1415 
  842000   0.13188262   -7.6618367    3661.5505         1389 
  843000    0.1297963   -7.6673973    3658.9506         1371 
  844000   0.12821387   -7.6545738    3654.2382         1372 
  845000   0.13090923   -7.6604963    3659.7927         1402 
  846000   0.12780511   -7.6633689    3661.7794         1378 
  847000   0.12953953   -7.6602532    3655.6622         1415 
  848000   0.12908243   -7.6584489    3658.6987         1368 
  849000   0.12982474   -7.6629909    3662.0688         1386 
  850000    0.1330208   -7.6622542    3659.6101         1377 
  851000   0.12954945   -7.6556867    3658.7005         1371 
  852000    0.1312268    -7.662167    3658.6779         1387 
  853000   0.13558646   -7.6607524     3661.388         1363 
  854000   0.12979724   -7.6588696    3661.5336         1419 
  855000   0.12784636   -7.6603212    3659.4134         1396 
  856000   0.12864855   -7.6565414    3658.0232         1398 
  857000   0.13044328   -7.6595115    3659.6114         1365 
  858000   0.13234847   -7.6595479    3660.2874         1415 
  859000   0.12739854    -7.655241    3656.9383         1417 
  860000   0.13205643   -7.6608494    3661.4499         1402 
  861000   0.13142523   -7.6641161    3660.1169         1401 
  862000    0.1254959   -7.6537389    3656.3591         1415 
  863000   0.13132949   -7.6588206    3658.3283         1415 
  864000   0.13118435   -7.6586336    3659.6115         1446 
  865000   0.13103135   -7.6611108    3662.9475         1407 
  866000   0.13003832   -7.6571947    3659.0585         1427 
  867000   0.12932177   -7.6588413    3657.5317         1407 
  868000   0.12977363   -7.6582916    3659.3416         1397 
  869000   0.13169049   -7.6575641    3660.0388         1409 
  870000   0.12850165   -7.6524397     3656.264         1403 
  871000   0.13158386   -7.6627451     3658.087         1391 
  872000   0.12762285   -7.6628702    3661.5418         1417 
  873000   0.12789528   -7.6580905    3658.9949         1418 
  874000   0.12755282   -7.6530532    3656.8332         1411 
  875000   0.12848915   -7.6608441    3659.3608         1375 
  876000   0.12897613   -7.6630446    3660.9465         1406 
  877000   0.13291524   -7.6606143    3657.9122         1407 
  878000    0.1274969   -7.6550724    3657.0626         1437 
  879000   0.13092167   -7.6613524    3659.8186         1438 
  880000   0.12930904   -7.6625359    3659.0102         1396 
  881000    0.1305743   -7.6611323    3656.9728         1393 
  882000   0.12887098   -7.6600626    3658.3399         1398 
  883000   0.13045983   -7.6610965      3661.28         1426 
  884000   0.13077225   -7.6624619    3660.7539         1388 
  885000   0.13491232   -7.6514511    3658.1025         1437 
  886000   0.13098001   -7.6586751    3660.6157         1392 
  887000    0.1349326   -7.6622379    3658.9621         1409 
  888000   0.12835612   -7.6564733     3657.908         1432 
  889000   0.13058066    -7.655798     3658.978         1402 
  890000   0.13032488   -7.6639466    3659.1489         1403 
  891000   0.12913996   -7.6591228    3658.7252         1380 
  892000   0.12948533   -7.6580727    3659.1395         1341 
  893000   0.12994347   -7.6629346    3662.3374         1375 
  894000   0.13031931   -7.6612313     3658.676         1360 
  895000   0.13024271   -7.6563275    3656.5835         1421 
  896000   0.13095271   -7.6581696    3660.6709         1396 
  897000   0.12986273   -7.6666202    3662.7451         1427 
  898000   0.13061636   -7.6556767    3656.7883         1365 
  899000   0.13286323   -7.6558747    3658.9809         1423 
  900000   0.12999317   -7.6647725    3661.4161         1373 
  901000   0.13025674   -7.6606226    3659.5432         1393 
  902000   0.13146928   -7.6636094    3657.5188         1444 
  903000   0.12826072   -7.6582743    3656.7476         1415 
  904000   0.13181931   -7.6607803     3660.526         1431 
  905000   0.13011808   -7.6611955    3660.3125         1439 
  906000   0.12997855    -7.658657    3657.6514         1437 
  907000   0.13181716   -7.6562853    3657.0063         1404 
  908000    0.1298958   -7.6638507    3660.2926         1416 
  909000   0.12997476     -7.66529     3663.751         1422 
  910000   0.13181252    -7.656796    3657.7039         1422 
  911000   0.12950364   -7.6576548    3658.7552         1391 
  912000   0.13210623   -7.6631332    3660.8825         1396 
  913000   0.12915334   -7.6604547    3659.5192         1397 
  914000   0.13433196   -7.6584764     3658.128         1439 
  915000   0.12748245   -7.6639876     3659.073         1411 
  916000   0.12957778     -7.65872    3658.1717         1417 
  917000   0.13049201   -7.6565895    3656.6561         1447 
  918000   0.12802513    -7.659858    3660.7664         1377 
  919000   0.13158111   -7.6633467    3661.0731         1401 
  920000   0.13010546   -7.6559944    3656.7819         1423 
  921000   0.12940444   -7.6559994     3659.047         1407 
  922000   0.12882392   -7.6705596    3661.7001         1429 
  923000   0.12713168   -7.6611992    3658.5225         1411 
  924000   0.12745873   -7.6579285    3657.7444         1381 
  925000   0.13111324   -7.6635778    3663.7153         1396 
  926000   0.13134229     -7.66444    3660.0202         1410 
  927000   0.12851302   -7.6569522    3658.1154         1430 
  928000   0.12960459   -7.6614254    3658.8967         1417 
  929000   0.12966964   -7.6555975    3656.8114         1379 
  930000   0.12951092   -7.6598175     3660.053         1384 
  931000    0.1289454   -7.6546461    3657.4355         1430 
  932000     0.132233   -7.6571086    3660.2535         1377 
  933000    0.1303445   -7.6599087    3661.9443         1405 
  934000   0.12804732   -7.6550498    3657.7964         1384 
  935000   0.13025586   -7.6558098    3657.1255         1392 
  936000   0.12862777   -7.6603796    3660.9791         1387 
  937000   0.13213559    -7.661194    3661.8033         1394 
  938000   0.12977225   -7.6488297    3654.8296         1409 
  939000   0.13189544   -7.6612143    3659.8858         1384 
  940000   0.12928704   -7.6607579    3662.2617         1407 
  941000   0.13088166   -7.6578253    3659.5148         1399 
  942000   0.12936092   -7.6560652    3654.0129         1400 
  943000   0.12934593   -7.6601895    3660.4416         1392 
  944000   0.12921197   -7.6601255    3660.9352         1399 
  945000   0.12981566   -7.6673614    3660.7157         1406 
  946000   0.13160023    -7.656892    3658.3269         1407 
  947000   0.12937584   -7.6577635    3658.4607         1353 
  948000   0.12702204   -7.6672893    3662.4508         1416 
  949000   0.13044472   -7.6629988    3660.2419         1406 
  950000   0.12962815   -7.6605674    3657.5904         1392 
  951000   0.13005423   -7.6612318    3660.2692         1397 
  952000   0.13111767    -7.661368    3661.1253         1337 
  953000   0.13279873   -7.6536178     3656.681         1400 
  954000   0.12917317   -7.6610218      3658.79         1419 
  955000   0.13177655   -7.6629657    3663.8354         1360 
  956000   0.13127418   -7.6576629    3660.1644         1388 
  957000    0.1296881   -7.6561685    3658.0496         1394 
  958000   0.13058329    -7.659875    3660.8331         1424 
  959000   0.13087724    -7.664116     3659.918         1389 
  960000   0.12837482   -7.6636333    3658.6672         1379 
  961000   0.13399647   -7.6594361    3657.5252         1434 
  962000   0.12950221    -7.659063    3660.5667         1371 
  963000   0.12785272   -7.6653593    3660.3118         1401 
  964000   0.12858706   -7.6527556    3657.2516         1394 
  965000   0.12982504   -7.6594371    3659.6291         1394 
  966000   0.12903513   -7.6617528    3661.8058         1355 
  967000   0.13285099   -7.6571517    3658.8696         1381 
  968000    0.1287383   -7.6606227    3659.1416         1388 
  969000   0.13059691   -7.6664201    3659.0964         1390 
  970000   0.12772085   -7.6592806    3660.0455         1354 
  971000   0.12935147   -7.6629609    3656.6013         1433 
  972000   0.12835767   -7.6607548    3657.8608         1431 
  973000    0.1283374   -7.6601005     3660.419         1404 
  974000    0.1310824   -7.6513754    3656.9404         1396 
  975000   0.12870851   -7.6579204    3659.5267         1393 
  976000   0.13120016   -7.6650516    3662.0297         1415 
  977000   0.13043429   -7.6602535    3660.3799         1422 
  978000   0.13354975   -7.6608411     3659.778         1409 
  979000   0.12901818   -7.6696038    3660.5607         1394 
  980000   0.12825345   -7.6586913    3657.4966         1398 
  981000    0.1288785   -7.6575944    3655.9098         1410 
  982000   0.13087207   -7.6624903    3660.7281         1417 
  983000    0.1314347   -7.6627728    3660.9647         1407 
  984000   0.13026667    -7.655124    3655.3786         1384 
  985000   0.12820477   -7.6595333    3656.4579         1400 
  986000    0.1300285   -7.6630476    3659.7057         1400 
  987000   0.13044384   -7.6653003     3661.226         1387 
  988000    0.1313869   -7.6572359    3660.9856         1410 
  989000   0.13271824   -7.6523435    3654.5245         1402 
  990000   0.12936971   -7.6638215    3658.5181         1392 
  991000   0.13201005   -7.6590848    3661.0803         1378 
  992000   0.12605145   -7.6581091     3656.927         1382 
  993000   0.12862637   -7.6593867    3659.6098         1403 
  994000   0.13199236   -7.6581098    3660.3971         1404 
  995000   0.12924456   -7.6531699    3657.1877         1389 
  996000   0.12853187   -7.6599092     3660.274         1367 
  997000    0.1326373   -7.6619874    3662.0539         1435 
  998000   0.13235288   -7.6584856    3660.4699         1371 
  999000     0.127876    -7.656187    3657.1937         1408 
 1000000    0.1311855   -7.6610621    3660.7145         1372 
 1001000   0.12850043   -7.6611501    3660.2103         1435 
 1002000   0.12748113   -7.6570558    3655.9812         1410 
 1003000   0.13202088   -7.6595089    3658.4137         1403 
 1004000   0.12973477   -7.6646634    3662.2283         1379 
Loop time of 2118.19 on 48 procs for 1000000 steps with 4000 atoms

Performance: 81579.201 tau/day, 472.102 timesteps/s
99.4% CPU use with 48 MPI tasks x no OpenMP threads

MPI task timing breakdown:
Section |  min time  |  avg time  |  max time  |%varavg| %total
---------------------------------------------------------------
Pair    | 138.21     | 152.58     | 170.91     |  72.1 |  7.20
Neigh   | 4.1739     | 4.4042     | 4.601      |   5.2 |  0.21
Comm    | 92.853     | 111.38     | 128.3      |  82.8 |  5.26
Output  | 2.4441     | 2.4449     | 2.4615     |   0.2 |  0.12
Modify  | 1800.8     | 1811.6     | 1824.7     |  12.9 | 85.52
Other   |            | 35.81      |            |       |  1.69

Nlocal:        83.3333 ave          89 max          79 min
Histogram: 2 3 8 6 6 6 8 6 1 2
Nghost:        1742.46 ave        1759 max        1723 min
Histogram: 1 2 2 8 6 7 14 4 1 3
Neighs:        10565.3 ave       11229 max        9966 min
Histogram: 4 4 6 5 7 5 7 5 3 2
FullNghs:      21130.9 ave       22579 max       20035 min
Histogram: 5 5 7 5 6 8 7 2 2 1

Total # of neighbors = 1014281
Ave neighs/atom = 253.57025
Neighbor list builds = 17445
Dangerous builds = 0

#clear
#
#next RN
#
#jump SELF
Total wall time: 0:35:19
