
units lj                  # Use reduced LJ style units
atom_style atomic         # Uncharged point particles
atom_modify map hash      # Needed for indexing of clusters etc
                          # Used to be able to find where atoms are in relation to each other.

# Define a lattice with which to populate the simulation cell. With units
# set to 'lj' the second argument to the lattice command is the reduced
# density rho* and the spacings are multiples of that required to acheive
# that density. Also define a simulation cell called 'box' in lattice units
# and fill it with atoms. Here we're creating a box which is ten lattice
# constants in each direction.
lattice fcc 1.0 spacing 1 1 1                 # All equal sizes - gives the right reduced density.
Lattice spacing in x,y,z = 1.5874011 1.5874011 1.5874011

region box block 0 10 0 10 0 10 units lattice # Defines a region, "box", in lattice units
create_box 1 box                              # Creates a simulation box as specified above,
Created orthogonal box = (0.0000000 0.0000000 0.0000000) to (15.874011 15.874011 15.874011)
  2 by 4 by 4 MPI processor grid
                                              # with one type of atom
create_atoms 1 box                            # Creates particles on lattice points
Created 4000 atoms
  using lattice units in orthogonal box = (0.0000000 0.0000000 0.0000000) to (15.874011 15.874011 15.874011)
  create_atoms CPU = 0.002 seconds


# Set the mass of the first (and only) atom type.
mass 1 1.0

# Lennard-Jones interactions between particles, 3.5 sigma cut-off. Apply
# long range tail corrections to energy and pressure and set all coefficients
# to unity since we work in reduced units here. Note that this doesn't shift
# the potential such that it goes to zero at the cutoff. That would require
# pair_modify('shift', 'yes').
pair_style lj/cut  3.5      # non-GPU version
pair_modify tail  yes
pair_coeff 1  1  1.0  1.0   # Intearaction between 1 and 1 set with epsilon = 1 and sigma = 1

write_data data.*
System init for write_data ...
Neighbor list info ...
  update every 1 steps, delay 10 steps, check yes
  max neighbors/atom: 2000, page size: 100000
  master list distance cutoff = 3.8
  ghost atom cutoff = 3.8
  binsize = 1.9, bins = 9 9 9
  1 neighbor lists, perpetual/occasional/extra = 1 0 0
  (1) pair lj/cut, perpetual
      attributes: half, newton on
      pair build: half/bin/atomonly/newton
      stencil: half/bin/3d
      bin: standard

#############################
#   M E L T   S Y S T E M   #
#############################

velocity all create 2.4 6583654 mom yes dist gaussian # Assign velocities
                                                    # Temperature 2.4, random number seed, zero linear momentum
						                                                        # Gaussian distribution

timestep 0.002   # simulation timestep
thermo 100       # output thermodynamic data every 100 steps

# Define a fix  in this case with index 1 applied to all
# particles in the simulation. This fix is for simulations
# in the anisotropic NPT ensemble. Note that we use the MTK
# correction.
fix 1 all npt temp 2.4 2.4 0.1 iso 5.68 5.68 0.5 mtk yes tchain 5 pchain 5 # Use NPT ensemble
                                                                         # Set temperature and pressure and damping
                                                                         # Numbers of thermostats in chain and in barostat
run 1000         # run for 10000 steps
Per MPI rank memory allocation (min/avg/max) = 3.660 | 3.660 | 3.660 Mbytes
Step Temp E_pair E_mol TotEng Press Volume 
       0          2.4   -8.3859253            0   -4.7868253   -2.2405722         4000 
     100    1.2691967   -6.5422289            0   -4.6389098    5.3378653    4090.7551 
     200    1.4787625   -6.3158233            0   -4.0982341    6.0374862    4137.2558 
     300    1.5708342   -6.0123056            0   -3.6566434    5.8269752    4273.6084 
     400    1.6935755   -5.7191311            0    -3.179403    5.9540602    4395.1747 
     500    1.7875886   -5.4095267            0   -2.7288141    6.0322401    4536.9038 
     600    1.8873111   -5.1521313            0   -2.3218724    5.7297832     4702.884 
     700    2.0258918   -4.9144312            0   -1.8763532    5.9082203    4824.8495 
     800    2.1522544   -4.7292823            0   -1.5017078    5.7781683    4963.9277 
     900     2.239714   -4.5446635            0   -1.1859323    5.7477122    5090.6319 
    1000    2.3765823   -4.4738755            0  -0.90989327    5.6796077     5154.488 
Loop time of 0.258294 on 32 procs for 1000 steps with 4000 atoms

Performance: 669004.611 tau/day, 3871.554 timesteps/s
99.6% CPU use with 32 MPI tasks x no OpenMP threads

MPI task timing breakdown:
Section |  min time  |  avg time  |  max time  |%varavg| %total
---------------------------------------------------------------
Pair    | 0.13545    | 0.13997    | 0.1466     |   0.7 | 54.19
Neigh   | 0.025625   | 0.026487   | 0.027424   |   0.2 | 10.25
Comm    | 0.06085    | 0.06961    | 0.075593   |   1.2 | 26.95
Output  | 0.00019223 | 0.00019595 | 0.0002607  |   0.0 |  0.08
Modify  | 0.018282   | 0.020083   | 0.021727   |   0.8 |  7.78
Other   |            | 0.001947   |            |       |  0.75

Nlocal:        125.000 ave         138 max         116 min
Histogram: 1 2 6 7 6 8 0 1 0 1
Nghost:        1666.91 ave        1703 max        1646 min
Histogram: 3 5 7 4 5 4 1 0 2 1
Neighs:        11088.0 ave       12468 max       10095 min
Histogram: 1 2 5 8 9 2 2 1 1 1

Total # of neighbors = 354817
Ave neighs/atom = 88.704250
Neighbor list builds = 86
Dangerous builds = 20

# Equilibrate just above the melting temperature to avoid step fn in T

fix 1 all npt temp 1.25 1.25 0.1 iso 5.68 5.68 0.5 mtk yes tchain 5 pchain 5
run 1000
Per MPI rank memory allocation (min/avg/max) = 3.661 | 3.661 | 3.661 Mbytes
Step Temp E_pair E_mol TotEng Press Volume 
    1000    2.3765823   -4.4738755            0  -0.90989327    5.6796077     5154.488 
    1100    1.9625951   -4.6989107            0   -1.7557541    5.6812496    4983.8841 
    1200    1.7289901   -4.9599136            0   -2.3670769    5.8142104    4790.1519 
    1300    1.5792657   -5.2249024            0   -2.8565961    5.6289859    4660.4039 
    1400    1.4517319   -5.4215948            0   -3.2445414    5.5197346    4561.4045 
    1500     1.364265   -5.5680033            0   -3.5221174    5.5958139    4483.3542 
    1600    1.3084699   -5.6759595            0   -3.7137453    5.6057769    4426.4503 
    1700    1.2550401   -5.7394736            0   -3.8573841    5.7381181    4381.4433 
    1800    1.2507956   -5.8140506            0   -3.9383263    5.7576039    4349.7766 
    1900    1.2205858   -5.8218536            0   -3.9914327    5.7234503    4347.2659 
    2000    1.2599896   -5.8219529            0    -3.932441    5.7139167    4350.4536 
Loop time of 0.249369 on 32 procs for 1000 steps with 4000 atoms

Performance: 692950.378 tau/day, 4010.130 timesteps/s
99.8% CPU use with 32 MPI tasks x no OpenMP threads

MPI task timing breakdown:
Section |  min time  |  avg time  |  max time  |%varavg| %total
---------------------------------------------------------------
Pair    | 0.13417    | 0.13831    | 0.14378    |   0.6 | 55.46
Neigh   | 0.022636   | 0.023149   | 0.024131   |   0.2 |  9.28
Comm    | 0.058352   | 0.066424   | 0.070754   |   1.2 | 26.64
Output  | 0.00018607 | 0.00019118 | 0.00023777 |   0.0 |  0.08
Modify  | 0.017455   | 0.019039   | 0.021277   |   0.9 |  7.63
Other   |            | 0.002261   |            |       |  0.91

Nlocal:        125.000 ave         130 max         115 min
Histogram: 1 0 0 2 4 3 6 7 4 5
Nghost:        1853.16 ave        1868 max        1832 min
Histogram: 1 0 2 6 2 5 3 6 3 4
Neighs:        13129.4 ave       13744 max       12058 min
Histogram: 1 0 2 3 3 2 5 8 5 3

Total # of neighbors = 420140
Ave neighs/atom = 105.03500
Neighbor list builds = 75
Dangerous builds = 9


# Small amount of linear quench

fix 1 all npt temp 1.25 ${temp} 0.1 iso 5.68 5.68 0.5 mtk yes tchain 5 pchain 5
fix 1 all npt temp 1.25 2.32 0.1 iso 5.68 5.68 0.5 mtk yes tchain 5 pchain 5
run 2000
Per MPI rank memory allocation (min/avg/max) = 3.661 | 3.662 | 3.662 Mbytes
Step Temp E_pair E_mol TotEng Press Volume 
    2000    1.2599896   -5.8219529            0    -3.932441    5.7139167    4350.4536 
    2100    1.2998761   -5.8270254            0   -3.8776986     5.745764    4347.4119 
    2200     1.295717   -5.7476773            0   -3.8045877    5.7382546    4378.2794 
    2300    1.3727708   -5.7309299            0   -3.6722885    5.6958497    4396.5851 
    2400    1.4011391     -5.65392            0   -3.5527368    5.6307849    4440.2189 
    2500    1.4731377   -5.6249302            0    -3.415776    5.4951856    4469.7656 
    2600    1.4964535   -5.5255214            0   -3.2814023    5.4799924    4519.6142 
    2700    1.5469119   -5.4496443            0   -3.1298566    5.5577222    4551.3822 
    2800    1.6220228   -5.3918929            0   -2.9594669    5.5207619    4590.6226 
    2900    1.6695893   -5.2953885            0   -2.7916306     5.695718     4623.415 
    3000    1.6993566   -5.2093814            0   -2.6609837     5.464392    4697.3185 
    3100    1.7590077   -5.1209111            0   -2.4830592    5.6681007    4725.5834 
    3200    1.8364977   -5.0448477            0   -2.2907899    5.7946958    4757.4252 
    3300    1.8911184   -4.9841117            0   -2.1481433    5.7469428    4799.1886 
    3400    1.9409168   -4.8946252            0   -1.9839778    5.8347125    4837.3528 
    3500     2.013295   -4.8613709            0   -1.8421834    5.6896819    4885.7261 
    3600    2.0378281   -4.7817833            0   -1.7258054    5.6528547    4943.3712 
    3700    2.0921754   -4.6927416            0    -1.555263    5.7531571     4983.773 
    3800    2.1457982   -4.6065987            0    -1.388706    5.8161835    5025.4303 
    3900    2.2485549   -4.6093711            0   -1.2373819    5.5813334    5075.3086 
    4000    2.2751083   -4.5166849            0   -1.1048757    5.6097151    5124.8441 
Loop time of 0.494637 on 32 procs for 2000 steps with 4000 atoms

Performance: 698694.220 tau/day, 4043.369 timesteps/s
99.8% CPU use with 32 MPI tasks x no OpenMP threads

MPI task timing breakdown:
Section |  min time  |  avg time  |  max time  |%varavg| %total
---------------------------------------------------------------
Pair    | 0.26246    | 0.26948    | 0.27767    |   0.7 | 54.48
Neigh   | 0.045673   | 0.046652   | 0.047793   |   0.2 |  9.43
Comm    | 0.124      | 0.13493    | 0.14331    |   1.4 | 27.28
Output  | 0.00037866 | 0.0003848  | 0.00048168 |   0.0 |  0.08
Modify  | 0.035535   | 0.038796   | 0.043206   |   1.2 |  7.84
Other   |            | 0.004396   |            |       |  0.89

Nlocal:        125.000 ave         135 max         116 min
Histogram: 4 0 2 5 6 7 2 4 0 2
Nghost:        1670.62 ave        1683 max        1656 min
Histogram: 3 2 2 2 5 2 4 6 4 2
Neighs:        11140.0 ave       12441 max       10240 min
Histogram: 4 3 4 4 5 5 4 1 1 1

Total # of neighbors = 356479
Ave neighs/atom = 89.119750
Neighbor list builds = 154
Dangerous builds = 2

#############################
# F R E E Z E  S Y S T E M  #
#############################

# Define solid atoms. This closely follows ten Wolde  Ruiz-Montero and Frenkel  Faraday Discuss  1996  104  93-110
# Compute components of the per-atom q6 vector
compute q6 all orientorder/atom degrees 1 6 components 6 nnn NULL cutoff 1.3 # compute the Q6 parameter.
                                                                             # Use all neighbours within 1.3 unit cell.

# get number of connections
compute coord_number all coord/atom orientorder q6 0.5

# An atom is solid if it has 8 or more connections (of a possible 14)
variable is_solid atom c_coord_number>=8
group solid dynamic all var is_solid    # Must be dynamic to update
dynamic group solid defined

# do clustering
compute cluster solid cluster/atom 1.3 # Create a cluster where all atoms within are solid and max 1.3 units from another member

# define chunks one chunk per cluster
compute clus_chunks solid chunk/atom c_cluster nchunk every compress yes  # Says which atoms are in which chunk

# count the size of each chunk
compute size_chunks solid property/chunk clus_chunks count


# Find the maximum entry in the vector of chunk sizes
variable max_n equal max(c_size_chunks)


# Thermo style which includes this variable
thermo_style custom step temp pe vol v_max_n

thermo ${N}  # Print the thermo information every 100 steps
thermo 100  

# Reset the npt fix at a lower temperature (below freezing)
fix 1  all npt temp  ${temp} ${temp}  0.1  iso  5.68  5.68  0.5  mtk yes tchain  5  pchain  5
fix 1  all npt temp  2.32 ${temp}  0.1  iso  5.68  5.68  0.5  mtk yes tchain  5  pchain  5
fix 1  all npt temp  2.32 2.32  0.1  iso  5.68  5.68  0.5  mtk yes tchain  5  pchain  5

dump dmp2 all dcd ${N} traj_${rand}.dcd
dump dmp2 all dcd 100 traj_${rand}.dcd
dump dmp2 all dcd 100 traj_462431.dcd


# fix rnuntil all halt ${N} v_max_n >= 3980 error soft message no   # Stop when solidified


run 100000 # 5000000  # Run for this many steps
Neighbor list info ...
  update every 1 steps, delay 10 steps, check yes
  max neighbors/atom: 2000, page size: 100000
  master list distance cutoff = 3.8
  ghost atom cutoff = 3.8
  binsize = 1.9, bins = 10 10 10
  4 neighbor lists, perpetual/occasional/extra = 1 3 0
  (1) pair lj/cut, perpetual
      attributes: half, newton on
      pair build: half/bin/atomonly/newton
      stencil: half/bin/3d
      bin: standard
  (2) compute orientorder/atom, occasional
      attributes: full, newton on
      pair build: full/bin/atomonly
      stencil: full/bin/3d
      bin: standard
  (3) compute coord/atom, occasional
      attributes: full, newton on
      pair build: full/bin/atomonly
      stencil: full/bin/3d
      bin: standard
  (4) compute cluster/atom, occasional
      attributes: full, newton on
      pair build: full/bin/atomonly
      stencil: full/bin/3d
      bin: standard
Per MPI rank memory allocation (min/avg/max) = 9.382 | 9.386 | 9.389 Mbytes
Step Temp PotEng Volume v_max_n 
    4000    2.2751083   -4.5166849    5124.8441       -1e+20 
    4100     2.320488   -4.4789792    5149.2834            1 
    4200     2.320955    -4.413323    5192.9611            1 
    4300    2.2919396   -4.3972949    5195.7236            1 
    4400    2.2700038   -4.4552114    5129.9535            1 
    4500    2.3323293   -4.4989175    5138.4039            1 
    4600    2.3374323   -4.4206808    5177.4181            1 
    4700    2.3872114   -4.4094655    5217.8979            1 
    4800    2.3244515   -4.3941883    5189.4644       -1e+20 
    4900    2.2894899   -4.4183923    5183.4845            1 
    5000    2.2921733   -4.5020957    5110.1879       -1e+20 
    5100    2.2842696   -4.4486444    5159.9564            1 
    5200    2.3519441    -4.468012    5189.9835            1 
    5300    2.3102588   -4.4480136    5186.0996       -1e+20 
    5400    2.3704308   -4.4600453    5173.5339       -1e+20 
    5500    2.2934079   -4.4159758    5198.3413            2 
    5600    2.3501318   -4.3896811    5171.0455       -1e+20 
    5700    2.3187362   -4.4772373    5147.7966       -1e+20 
    5800    2.2836348   -4.4612749    5146.8814       -1e+20 
    5900    2.3244319   -4.4420816    5174.6521       -1e+20 
    6000    2.3387156    -4.414436    5191.9097            1 
    6100    2.2591351    -4.410549    5182.2008       -1e+20 
    6200    2.3426896   -4.4295329    5150.8593            1 
    6300    2.2610597   -4.4803729    5133.1655       -1e+20 
    6400    2.3011881   -4.4755861    5150.5324       -1e+20 
    6500    2.3574485   -4.4437972    5186.5922            1 
    6600    2.3405408   -4.4868426    5159.9183            1 
    6700    2.3552217   -4.4642147    5177.7741            1 
    6800    2.3365166   -4.4545767    5193.9883            1 
    6900    2.3398352   -4.4620332     5168.564            1 
    7000    2.2976376   -4.4449374    5143.1675       -1e+20 
    7100     2.362805   -4.4587099    5193.3879       -1e+20 
    7200    2.3108174   -4.4450442    5162.4877            1 
    7300    2.2944975   -4.4158745     5193.224       -1e+20 
    7400    2.3063069   -4.3824465    5178.3593       -1e+20 
    7500    2.3304147   -4.4086987    5173.7743       -1e+20 
    7600    2.2952429   -4.4659936    5195.1241       -1e+20 
    7700    2.3396948   -4.4254393    5137.9845            1 
    7800    2.2421707   -4.4105974    5194.3058       -1e+20 
    7900    2.3343009   -4.3669236    5145.6671            1 
    8000    2.2871592   -4.4402568    5164.8859            1 
    8100    2.3322496   -4.4631234    5180.7816            1 
    8200    2.2608783   -4.3741096    5154.8751            1 
    8300    2.3077691   -4.4346829    5166.5765       -1e+20 
    8400    2.3155409   -4.4842344    5139.1536            1 
    8500    2.3258738   -4.4465643    5152.2382       -1e+20 
    8600    2.3254086   -4.4258605    5191.2022       -1e+20 
    8700    2.2950464   -4.4672474    5156.6493            1 
    8800    2.3032375   -4.4267081    5171.1615       -1e+20 
    8900    2.3489043   -4.4777744    5181.0614            1 
    9000    2.2826597   -4.4631334    5145.0241            1 
    9100    2.3425609   -4.4576733    5161.6667            1 
    9200    2.3172784   -4.4384015    5202.2204       -1e+20 
    9300    2.3708122   -4.4332524     5173.314            1 
    9400    2.3145236   -4.4401087     5155.617            2 
    9500    2.2572739   -4.4606688    5163.4718            1 
    9600     2.341699   -4.4476246    5132.5375       -1e+20 
    9700    2.2696236   -4.4396873    5184.0316       -1e+20 
    9800    2.3562072   -4.4200629    5171.1345       -1e+20 
    9900    2.3216544   -4.4680815    5152.4765            1 
   10000    2.2728923   -4.4860564    5136.5395            1 
   10100    2.3539419   -4.5296938    5093.7991       -1e+20 
   10200    2.2978161   -4.4750109    5174.3055       -1e+20 
   10300     2.349832   -4.4280703    5163.5997            1 
   10400    2.2660026   -4.4312953    5184.5538            1 
   10500     2.337669   -4.4007272    5160.6963            1 
   10600    2.2545232   -4.4354744    5176.5082            1 
   10700    2.3327778   -4.4125046     5171.535       -1e+20 
   10800     2.326567   -4.4593374    5155.2418            1 
   10900    2.2492538   -4.4505031    5140.6775            1 
   11000    2.3061107   -4.4155038     5145.103            1 
   11100    2.3033257    -4.441727    5181.3159            2 
   11200    2.2928788   -4.4793539    5133.9663            1 
   11300    2.3147749    -4.435389    5168.4727            1 
   11400     2.309542   -4.3508761    5249.1352       -1e+20 
   11500    2.3507895   -4.4172695    5170.0356       -1e+20 
   11600    2.2816052   -4.4120294    5198.0031            1 
   11700    2.3413837   -4.3915033    5209.1143            1 
   11800    2.3141222   -4.3478376    5193.8822       -1e+20 
   11900    2.3410533   -4.4537588    5162.1271            1 
   12000    2.3135507   -4.4664718    5184.0524            1 
   12100    2.3567287   -4.4105341    5189.1503            1 
   12200    2.3342568   -4.4683537    5195.1275       -1e+20 
   12300    2.2990309    -4.457827    5120.9149            1 
   12400    2.3016889   -4.4472376    5198.3136       -1e+20 
   12500    2.3581674   -4.4342544    5195.9844       -1e+20 
   12600    2.2918343   -4.4220458    5176.9881            1 
   12700    2.3117902   -4.4963466     5133.853            1 
   12800    2.3019445   -4.4401895    5186.2637       -1e+20 
   12900    2.3353683   -4.4209283    5155.7567       -1e+20 
   13000    2.2832381   -4.4468264    5152.4244            1 
   13100    2.3104642   -4.4364944    5164.0086            1 
   13200    2.3590558   -4.4035526    5166.9378       -1e+20 
   13300    2.2732704   -4.4301178     5231.676            1 
   13400    2.3842451   -4.3894148    5151.8113            1 
   13500    2.3132283   -4.4421654    5184.3126            1 
   13600    2.2879128    -4.451584    5169.9462            1 
   13700    2.3056967   -4.4349893    5142.3457            1 
   13800    2.3073822   -4.4212326    5163.8672            1 
   13900    2.3798919   -4.3922405    5181.9868            1 
   14000    2.2900946   -4.4113712     5211.877            1 
   14100    2.3587094    -4.496297    5155.5243       -1e+20 
   14200    2.3292428   -4.4653673    5169.7796            1 
   14300    2.3037003    -4.419081    5187.4771            1 
   14400    2.3398306   -4.4333333    5151.1597       -1e+20 
   14500    2.3219471   -4.4414334    5196.9771       -1e+20 
   14600    2.3427674    -4.449484    5193.5908            1 
   14700    2.3316715     -4.45185    5144.0632            1 
   14800    2.2598774   -4.5025921    5163.9601            1 
   14900     2.309831     -4.42669    5155.2695       -1e+20 
   15000     2.364845   -4.4376099    5183.1987            1 
   15100      2.26328   -4.4013666    5185.5544            1 
   15200    2.3287939   -4.4137635    5172.0539       -1e+20 
   15300    2.3157263   -4.4505125    5191.5317            1 
   15400    2.3851639   -4.4496407    5202.8693            1 
   15500    2.3086837   -4.4254314    5192.3696            1 
   15600     2.298107   -4.4671341    5137.6347            1 
   15700    2.3282224   -4.4190078    5206.1646       -1e+20 
   15800    2.3412945    -4.424417    5149.0501            1 
   15900    2.2972943   -4.4614122    5156.2456            1 
   16000    2.3227856   -4.4041669    5151.7443            2 
   16100    2.3441361   -4.3722348    5218.8412       -1e+20 
   16200    2.3101882   -4.4258789    5175.4689            1 
   16300    2.2994387   -4.4708144    5146.3039       -1e+20 
   16400    2.3058509   -4.3982262    5167.8702       -1e+20 
   16500    2.3161331   -4.4206197    5193.4938            1 
   16600    2.3603976    -4.409834    5189.0826       -1e+20 
   16700    2.2864365   -4.4271626    5205.7341       -1e+20 
   16800    2.3275166   -4.4192807    5136.3415            1 
   16900    2.3006058   -4.4531994    5156.1905            1 
   17000    2.3031271   -4.4714404    5159.1631            1 
   17100     2.314393   -4.4000133    5154.7173       -1e+20 
   17200    2.3504611    -4.469074    5198.8579       -1e+20 
   17300    2.2915831   -4.4557212    5162.0307            1 
   17400    2.3343789   -4.4091868    5168.5503            1 
   17500    2.3375994   -4.4347144    5207.5516       -1e+20 
   17600    2.2993875   -4.4385422    5126.3545       -1e+20 
   17700    2.3423921   -4.5019213    5178.5984       -1e+20 
   17800    2.3153884   -4.4302019    5173.1711       -1e+20 
   17900    2.3204076   -4.4289147    5180.5633       -1e+20 
   18000    2.3571396   -4.3878649    5188.8974            1 
   18100    2.3049558   -4.4515231    5205.2949       -1e+20 
   18200    2.3375439   -4.3898569    5191.4342            1 
   18300    2.3655228   -4.3753234    5241.1127       -1e+20 
   18400    2.3626757   -4.4265133    5205.7597       -1e+20 
   18500    2.3116903   -4.4344709    5168.2524            1 
   18600    2.3174772   -4.4359039    5156.1811            1 
   18700    2.3066146   -4.3797754    5204.6263       -1e+20 
   18800      2.33755   -4.3848965    5186.2331            1 
   18900    2.3490147   -4.4579989    5204.6844       -1e+20 
   19000    2.3245981   -4.4177369    5171.4712       -1e+20 
   19100    2.2954191   -4.4468291    5193.6861            1 
   19200    2.3340608   -4.3964843    5186.2627            1 
   19300    2.3230722   -4.4228005     5147.604            1 
   19400    2.2580968   -4.4584523    5152.3385       -1e+20 
   19500     2.347693   -4.4765296    5141.8648       -1e+20 
   19600    2.3457431   -4.5147185    5164.3846       -1e+20 
   19700    2.3306781    -4.450736    5178.5364            1 
   19800    2.3410322    -4.406108    5188.1826            1 
   19900    2.3281636   -4.4520521    5178.2878       -1e+20 
   20000     2.330296   -4.4749631    5142.9859            1 
   20100    2.2714197   -4.5344921    5138.5756            1 
   20200    2.3363725   -4.5089728    5123.6194       -1e+20 
   20300    2.3176513   -4.4579442    5177.6695            1 
   20400    2.3042997   -4.4163268    5171.5303       -1e+20 
   20500    2.3389129   -4.3987869    5158.6567       -1e+20 
   20600    2.2687105   -4.4297682    5200.2702            1 
   20700    2.3721165   -4.4135937     5141.187            1 
   20800     2.343179   -4.3433764    5247.3155            1 
   20900    2.3084763   -4.3729344    5201.9598            1 
   21000    2.3219162   -4.3962208    5175.6392       -1e+20 
   21100    2.3233067   -4.4649416    5169.0438            2 
   21200    2.2766043   -4.4304022    5148.0859            1 
   21300    2.3378309   -4.4099322    5172.5552            1 
   21400    2.2772172   -4.4353746    5191.0144       -1e+20 
   21500    2.3736043   -4.4105865    5154.1799            1 
   21600    2.3202569   -4.4456999    5201.6794            1 
   21700    2.3128966   -4.5042278    5136.1762       -1e+20 
   21800    2.3354245   -4.4570307     5159.282       -1e+20 
   21900    2.3047089   -4.4387709    5162.7063            2 
   22000    2.3281484   -4.4093536    5181.8081            1 
   22100     2.346607   -4.4180223    5191.3439            1 
   22200    2.3268392   -4.4658325    5180.9725            1 
   22300    2.3043938   -4.4538029    5150.9553       -1e+20 
   22400    2.3505101   -4.4384288    5179.0087            1 
   22500    2.2848868   -4.4172521     5184.199            1 
   22600    2.3245242    -4.414872     5145.192            1 
   22700    2.2603047   -4.4595555     5150.013       -1e+20 
   22800    2.3308143   -4.4594291    5133.3887            1 
   22900    2.3159652   -4.4513613    5156.8792       -1e+20 
   23000    2.3423276   -4.4472019     5207.218            1 
   23100    2.3362883   -4.4820025    5133.9037            1 
   23200    2.2606327   -4.5079635    5146.6683            1 
   23300     2.348118     -4.48853    5107.3174       -1e+20 
   23400    2.3140418    -4.468952    5161.3652       -1e+20 
   23500    2.3214834   -4.4630103    5179.8978       -1e+20 
   23600    2.3313538   -4.4486377    5149.8049       -1e+20 
   23700    2.2716755     -4.47943    5156.1086       -1e+20 
   23800    2.2973961   -4.3957654    5192.5186       -1e+20 
   23900    2.3489452   -4.3705397    5217.9238            1 
   24000    2.3457347   -4.3982514    5185.3757            1 
   24100    2.2963088   -4.4319919     5166.216            1 
   24200    2.3530646    -4.445757     5158.278            1 
   24300    2.3115778   -4.4042731    5205.6485            1 
   24400    2.3195417   -4.4105592    5139.4323            1 
   24500    2.2908553   -4.4177381    5199.4569            1 
   24600    2.3468845   -4.4294511     5170.198       -1e+20 
   24700    2.3114281   -4.4256124    5158.9676            1 
   24800    2.3320498   -4.4485115    5195.4282            1 
   24900    2.3418898   -4.3892921    5191.0961            1 
   25000    2.3105701   -4.4235131     5173.304       -1e+20 
   25100    2.3313172   -4.4952993    5160.1258            1 
   25200    2.3134507   -4.4712132    5125.0565       -1e+20 
   25300    2.3268047   -4.4535537    5155.4069            1 
   25400    2.3397236   -4.4814865    5157.5143            1 
   25500    2.3077025   -4.4690024    5147.0523            1 
   25600    2.3204445   -4.4496654     5171.434       -1e+20 
   25700     2.288761   -4.4292237    5127.9796       -1e+20 
   25800    2.3054057   -4.5190626    5113.9535            2 
   25900    2.3151193   -4.4682043    5198.6033            1 
   26000    2.3368473   -4.4246666    5152.7385       -1e+20 
   26100    2.2642373   -4.4322893    5166.6262            1 
   26200    2.3133624   -4.4499183    5168.5902            1 
   26300    2.3747967   -4.4124757    5172.3033       -1e+20 
   26400    2.3300007   -4.4673394    5199.3614       -1e+20 
   26500    2.2993945   -4.4205348    5132.3722            1 
   26600    2.3087771   -4.4210911    5164.6436            1 
   26700    2.3097498   -4.4201197    5210.4961       -1e+20 
   26800    2.3945033   -4.3990805     5181.623            1 
   26900    2.2910908   -4.4023608    5198.0131       -1e+20 
   27000    2.3369281   -4.4505796    5167.3489            1 
   27100    2.3507215    -4.478472    5175.7995            1 
   27200    2.3263175   -4.4270973     5187.642            1 
   27300    2.3293357   -4.4654881    5131.5103       -1e+20 
   27400    2.2873922   -4.4868207    5149.2747            1 
   27500      2.30846   -4.4342485    5142.3709       -1e+20 
   27600    2.3728059   -4.4465241    5200.2838       -1e+20 
   27700    2.3204542   -4.3913012     5209.137       -1e+20 
   27800    2.3299266   -4.5011166    5151.9133       -1e+20 
   27900    2.2929971   -4.4828311    5144.8113            1 
   28000    2.3509658   -4.4472371    5154.5911            2 
   28100    2.3099802   -4.4572627     5172.784       -1e+20 
   28200    2.2518439   -4.4632457    5126.2614       -1e+20 
   28300    2.3324248   -4.4650549    5164.6261            1 
   28400    2.3280824    -4.440839    5161.8597            1 
   28500    2.2770464    -4.423021     5145.177            1 
   28600     2.318293   -4.4280603    5181.6326       -1e+20 
   28700    2.3264206   -4.4167311    5182.6247            1 
   28800     2.307354   -4.4916245    5184.9031       -1e+20 
   28900    2.3336306   -4.4180508    5143.5055       -1e+20 
   29000    2.3464799   -4.4129096    5203.6167       -1e+20 
   29100    2.3004668   -4.4142467    5199.1401            1 
   29200    2.3732098   -4.4467999    5178.1351       -1e+20 
   29300    2.3004149   -4.4541564    5157.9962       -1e+20 
   29400    2.2834784   -4.3712476    5198.5775       -1e+20 
   29500    2.3499485   -4.4239398    5167.6786            1 
   29600    2.2707985   -4.4187634    5135.8915            2 
   29700    2.3433795   -4.4952165    5141.2116            1 
   29800    2.3468514   -4.4636323    5206.7727       -1e+20 
   29900    2.3365346   -4.4053808    5157.8207       -1e+20 
   30000    2.3194569   -4.4767153    5154.4412       -1e+20 
   30100    2.3405418   -4.4956501    5175.3516            1 
   30200    2.3767993   -4.4530542    5175.9106       -1e+20 
   30300    2.2926748   -4.4536488    5168.2863            1 
   30400    2.2977756   -4.4556655    5128.0049            1 
   30500    2.3363155   -4.4332836    5139.8035            1 
   30600    2.2962198   -4.4839899    5168.3615            1 
   30700    2.3940888   -4.4492409    5151.8501       -1e+20 
   30800    2.3143164    -4.446123    5180.8159       -1e+20 
   30900    2.2726466   -4.4479114    5134.2861            1 
   31000    2.2785936   -4.4323654    5109.6433       -1e+20 
   31100    2.2907787   -4.4508683    5139.4259            1 
   31200    2.3302465    -4.427915    5175.8954       -1e+20 
   31300     2.322682   -4.4025995    5178.2465            1 
   31400    2.3062255   -4.4153439    5185.6306            1 
   31500    2.3385173   -4.4582456    5162.0006            1 
   31600    2.2615097   -4.4650076    5141.0627            1 
   31700     2.336476   -4.4582071    5162.4101       -1e+20 
   31800    2.3410125   -4.4561306    5177.6376       -1e+20 
   31900    2.3259001    -4.431861    5199.3474            1 
   32000    2.3316936   -4.4626889    5121.8532       -1e+20 
   32100    2.2984492   -4.4938452    5174.7033            1 
   32200     2.310577   -4.4172123    5154.3538       -1e+20 
   32300    2.3431015   -4.4508217     5195.131            1 
   32400    2.3016833   -4.4190958    5179.8492       -1e+20 
   32500    2.3102418   -4.3934096    5179.4922            1 
   32600    2.3239048   -4.4146786     5206.467       -1e+20 
   32700    2.2866509   -4.4645113    5181.8113            1 
   32800    2.3663115   -4.4762008    5130.3652            1 
   32900    2.2491086   -4.3896832    5185.0969            1 
   33000    2.3095437   -4.4005043    5157.8091       -1e+20 
   33100    2.3325124   -4.4613854    5187.0396            2 
   33200    2.3423876   -4.4969298    5200.8426            1 
   33300    2.3218081    -4.421141    5131.0577            1 
   33400    2.2966223   -4.4428547    5179.0959            1 
   33500    2.3154227   -4.4696623     5146.876            1 
   33600     2.315374    -4.443926     5156.734            1 
   33700    2.3278328   -4.4679739    5183.3235            3 
   33800    2.3386519   -4.4155343    5174.4324       -1e+20 
   33900     2.349229   -4.4026935    5233.3617       -1e+20 
   34000    2.3023511   -4.4183238    5162.0784            1 
   34100    2.3015358   -4.4826648    5151.0335            1 
   34200    2.3287338   -4.4598528    5139.7078            1 
   34300    2.3121653   -4.4343179    5195.6838            1 
   34400    2.3324222   -4.3762495    5215.3451       -1e+20 
   34500    2.3322071   -4.4269834    5164.0117            1 
   34600    2.3396306   -4.5188469    5155.5563       -1e+20 
   34700    2.3331788   -4.4563064    5139.6031            2 
   34800    2.3217846   -4.4636098    5188.4466       -1e+20 
   34900    2.3444195    -4.446641    5191.1196       -1e+20 
   35000    2.3336848   -4.4377806    5176.8824            2 
   35100    2.3119403   -4.4544568    5190.0711            1 
   35200    2.3929042   -4.4187314    5141.9195            1 
   35300     2.292907   -4.4800105    5198.6046            1 
   35400    2.3385839   -4.4273497    5178.8673            1 
   35500    2.3041102   -4.4325776    5136.5272            2 
   35600    2.2852013   -4.4588349    5154.3856            1 
   35700    2.3440987   -4.4339747    5171.4644            2 
   35800    2.3304201   -4.4011838    5196.0588            1 
   35900    2.3150828   -4.3964012    5206.9639       -1e+20 
   36000    2.3588951   -4.4458362    5184.8987            1 
   36100    2.3214097   -4.4495602    5204.2313            2 
   36200    2.3622618   -4.3890957    5190.5132       -1e+20 
   36300     2.314581   -4.4153619    5214.7718       -1e+20 
   36400    2.3279876   -4.4301745     5155.992            1 
   36500    2.3237257   -4.4620374    5168.5765            1 
   36600     2.331727   -4.4514959    5181.8327            1 
   36700    2.3126444   -4.4402097    5155.4572       -1e+20 
   36800    2.3324046    -4.461821    5177.1644            1 
   36900    2.2894788   -4.4529186    5140.4014            1 
   37000    2.3629984   -4.4797151    5148.2447            1 
   37100    2.2897814   -4.4470356    5171.9904       -1e+20 
   37200    2.3929525    -4.431714    5142.5299       -1e+20 
   37300    2.2735029   -4.4083001    5192.8768       -1e+20 
   37400    2.2994624   -4.4137056     5182.113            1 
   37500    2.3737969   -4.3817688    5171.8562            1 
   37600    2.2863678   -4.4339707    5190.2203            1 
   37700     2.280783   -4.4176847    5155.4809       -1e+20 
   37800    2.3657268   -4.4262175    5153.9916            1 
   37900    2.3010167   -4.4761532    5183.4407            1 
   38000    2.3200297    -4.448266    5148.6282            1 
   38100    2.3205411   -4.4829522     5150.426       -1e+20 
   38200    2.2936489   -4.4400028    5150.0924            1 
   38300    2.3673968   -4.4568915    5172.4861       -1e+20 
   38400    2.3030035   -4.4588596    5189.0366            1 
   38500    2.3417714   -4.4198468    5133.1036            1 
   38600    2.2516785   -4.4529349    5167.2097       -1e+20 
   38700    2.3496917   -4.4998631    5149.8572            1 
   38800    2.3336153   -4.4574464    5178.0234       -1e+20 
   38900    2.3053425   -4.4668021    5166.4225            1 
   39000    2.3840849   -4.4830384    5144.2823       -1e+20 
   39100    2.2167759   -4.4325368    5208.9615            1 
   39200    2.3563773   -4.4227648    5151.1198            1 
   39300     2.307034   -4.4518679    5174.1902            1 
   39400    2.2798844   -4.4585275    5143.3722            2 
   39500    2.3048087   -4.4270183    5145.3483            1 
   39600    2.3212703   -4.4202792    5213.3019            1 
   39700    2.3701399   -4.4918198    5170.4748            1 
   39800     2.297619   -4.4232331    5145.4665            1 
   39900    2.3873042   -4.4705274    5170.3271            1 
   40000    2.2712107   -4.4381879    5185.1887            1 
   40100    2.3679415   -4.4299869    5146.5949       -1e+20 
   40200    2.2846266    -4.452207     5208.268       -1e+20 
   40300    2.3200106    -4.382852    5177.4375       -1e+20 
   40400    2.2980103    -4.428766    5184.9014       -1e+20 
   40500    2.3554245   -4.4811552    5147.5994            1 
   40600    2.3024785   -4.4664284    5130.0647            1 
   40700    2.3198418   -4.3869674    5186.2514            1 
   40800    2.3340251   -4.3828755    5212.2175       -1e+20 
   40900    2.3065074   -4.4182904    5158.5976       -1e+20 
   41000    2.3424466   -4.4374271    5196.2495            1 
   41100    2.3353557   -4.4255296    5170.2269            1 
   41200    2.2967405   -4.4239648    5165.2414            1 
   41300    2.3812634    -4.428645    5174.6481            1 
   41400    2.2792775   -4.3869531    5219.9175       -1e+20 
   41500    2.3949857   -4.4218875    5158.4205            1 
   41600    2.2687294   -4.4219044    5186.5219            1 
   41700    2.3276511   -4.4734416    5150.5981            1 
   41800    2.3146356   -4.4546801    5128.8363            2 
   41900     2.320915   -4.4511972    5177.2898            1 
   42000    2.3471404    -4.438065    5176.5411            1 
   42100    2.3217486    -4.442706     5163.718            1 
   42200    2.3160054   -4.4786282    5164.5456       -1e+20 
   42300    2.3233577   -4.3963137    5195.0568            1 
   42400    2.3372673   -4.3937099    5209.9705       -1e+20 
   42500    2.3354574   -4.4885361    5166.1509            1 
   42600    2.3247686   -4.4958415    5147.4366            1 
   42700    2.3507282     -4.43784    5160.6985            1 
   42800    2.3347306   -4.4176403     5207.788            1 
   42900    2.3084211   -4.4572724    5179.4321            2 
   43000    2.3439905   -4.4936857    5130.2505            1 
   43100    2.2789531   -4.5049386    5150.3882            1 
   43200    2.3318378   -4.4762193    5143.2063            1 
   43300    2.3453463   -4.4009312    5177.8219       -1e+20 
   43400    2.2986178   -4.4401981     5191.167            1 
   43500    2.3490663   -4.4485622    5138.3976            1 
   43600    2.2972805   -4.4821478    5148.7996            1 
   43700    2.2943536   -4.4466362    5157.8276       -1e+20 
   43800    2.3385847   -4.4579161     5146.716       -1e+20 
   43900     2.340433   -4.4586254    5199.5466       -1e+20 
   44000     2.286313    -4.482026    5142.9876            1 
   44100    2.3115706    -4.442193    5161.5601       -1e+20 
   44200    2.3172721   -4.4000786     5203.701            1 
   44300    2.2808609   -4.3625678    5174.8706            1 
   44400    2.3330514   -4.4202246    5188.2018       -1e+20 
   44500    2.2711306   -4.3753589    5195.0439            1 
   44600     2.328674   -4.4010068    5160.4887            1 
   44700    2.3093814   -4.4432585    5185.8138       -1e+20 
   44800    2.3537764   -4.4499167    5174.2969       -1e+20 
   44900    2.3354539   -4.4502319    5195.5185       -1e+20 
   45000    2.3285765   -4.4494716    5155.7732            1 
   45100    2.2964957   -4.4746847    5177.9366       -1e+20 
   45200    2.3482071   -4.4222228    5186.5683            1 
   45300    2.3049975   -4.4034459    5167.3779       -1e+20 
   45400    2.3150382   -4.4960704    5157.4467            1 
   45500     2.249987   -4.4362901    5127.2691            1 
   45600    2.3072567   -4.4300642    5198.6212            1 
   45700    2.3164297    -4.378094    5193.4627       -1e+20 
   45800    2.2921732   -4.4164722    5179.2811       -1e+20 
   45900    2.3437268   -4.5220261    5146.1363            1 
   46000    2.3834049   -4.4514828    5161.2989       -1e+20 
   46100    2.2718573   -4.3983285    5205.9954       -1e+20 
   46200     2.325924   -4.4638412    5135.6926            1 
   46300    2.2838583   -4.4994717    5137.5218       -1e+20 
   46400    2.2971205   -4.4429666    5174.5115            1 
   46500    2.3525892    -4.429318    5189.9485       -1e+20 
   46600    2.2918506   -4.4101301    5199.3941       -1e+20 
   46700    2.2844656   -4.4260836    5152.9056            1 
   46800    2.3410626   -4.4793484    5140.3209            1 
   46900    2.2963739   -4.5009837    5157.9451            2 
   47000    2.3399533   -4.4418824    5172.0222            1 
   47100     2.334853   -4.4607872    5150.7423       -1e+20 
   47200     2.269683   -4.4452173    5170.7211            1 
   47300     2.360139   -4.4580394    5172.3607            1 
   47400    2.2900105   -4.4559875    5167.2171            1 
   47500     2.309517   -4.4178208    5168.2204            1 
   47600    2.3233893   -4.4107896    5186.5432       -1e+20 
   47700    2.2799887    -4.433674    5166.9599       -1e+20 
   47800     2.345758   -4.4511303    5165.1371       -1e+20 
   47900    2.2712215   -4.4048028    5166.0001            1 
   48000    2.3563086   -4.4634527    5159.9957       -1e+20 
   48100    2.2523669   -4.4409098    5201.2176            1 
   48200    2.3448453   -4.3942064    5178.3736            1 
   48300    2.3097792   -4.4425612      5173.58            1 
   48400    2.2973978   -4.4464794    5179.5108       -1e+20 
   48500    2.3433703   -4.4200379    5165.4643       -1e+20 
   48600    2.2934222   -4.4605095    5197.6603       -1e+20 
   48700    2.3480425   -4.3747751    5155.8662            2 
   48800    2.3087327   -4.4527259    5177.6335            1 
   48900    2.2863315   -4.4778779    5154.3327       -1e+20 
   49000    2.3496794     -4.46523    5147.8381       -1e+20 
   49100    2.3207626    -4.464928    5180.7369       -1e+20 
   49200    2.3708606   -4.4080468     5163.833       -1e+20 
   49300    2.3257429   -4.4697782    5167.5295            1 
   49400    2.2796455   -4.4537451      5163.71            1 
   49500    2.3446753   -4.4799206    5122.9107       -1e+20 
   49600    2.3059282   -4.4754252    5173.8405            1 
   49700    2.3006302   -4.4579627    5135.5135            1 
   49800    2.3123025   -4.4358822    5174.9517            1 
   49900    2.3214322   -4.4685617    5162.4757       -1e+20 
   50000    2.3025628   -4.4702465      5132.01       -1e+20 
   50100    2.3052699   -4.4468132    5205.3715            1 
   50200    2.3651531    -4.423413    5171.5955            1 
   50300     2.288456   -4.4514567     5177.029            1 
   50400    2.2826801   -4.4810801    5130.9164       -1e+20 
   50500     2.315599   -4.4748243    5158.3101       -1e+20 
   50600    2.2954321   -4.4322191     5167.643       -1e+20 
   50700    2.3653694   -4.4417528    5183.9846       -1e+20 
   50800    2.3106448   -4.4259961     5197.937            1 
   50900     2.337276   -4.4890385    5165.6188            1 
   51000    2.3367952    -4.475565    5157.6519            1 
   51100    2.2879476   -4.4320849    5156.9205            1 
   51200    2.3353834   -4.4883518    5157.4236            1 
   51300    2.3439948   -4.4240418    5212.0173            1 
   51400    2.3271663   -4.4241969    5157.0865       -1e+20 
   51500    2.3456239   -4.4893204    5183.9028            1 
   51600    2.3017206   -4.5171797    5126.9604            1 
   51700    2.3010338   -4.4540231    5155.9485       -1e+20 
   51800     2.325605   -4.4155118    5199.6475       -1e+20 
   51900    2.3409043   -4.4251594    5207.1014       -1e+20 
   52000    2.3117528   -4.4051906    5163.3581       -1e+20 
   52100    2.2851093   -4.4831814    5147.3211            1 
   52200    2.2841555   -4.4470522    5171.8728            1 
   52300    2.3425518   -4.3888918     5180.629            1 
   52400    2.2968068   -4.4195159    5160.9224            1 
   52500    2.3377344   -4.4343311    5186.8229            1 
   52600    2.3309435   -4.4426014    5216.8804            1 
   52700    2.3014512   -4.4588953    5138.2002            1 
   52800    2.3363436    -4.498135    5154.1834       -1e+20 
   52900    2.3154212   -4.4531239    5155.4622            1 
   53000    2.3143746   -4.4619172    5143.8581            1 
   53100    2.3230981    -4.446174    5167.1799            1 
   53200    2.3021726   -4.4763565    5174.9105            1 
   53300    2.3374711     -4.39734    5147.7671       -1e+20 
   53400    2.2426365    -4.396219    5184.8318            2 
   53500      2.38315      -4.4393     5165.566            1 
   53600    2.3205464   -4.4517835    5198.5654       -1e+20 
   53700    2.3185714   -4.4191014    5188.7182            1 
   53800    2.3571402   -4.3883707    5191.2933            1 
   53900    2.2938874   -4.4069678    5239.8904       -1e+20 
   54000    2.3694712   -4.4503983     5146.517            1 
   54100    2.3076635   -4.4690201     5175.645            1 
   54200    2.3201439    -4.427721     5166.326            1 
   54300    2.3091295   -4.4789127    5172.2145            1 
   54400    2.3392949   -4.4084607    5181.6179       -1e+20 
   54500    2.2945383   -4.4823605    5161.9214            1 
   54600    2.3160147   -4.4915621    5124.9936            1 
   54700    2.3347505   -4.4521416     5184.017            2 
   54800    2.3465014    -4.427883    5192.7614            1 
   54900    2.2619945   -4.4195313    5177.8088       -1e+20 
   55000    2.3820481    -4.437358    5157.8288       -1e+20 
   55100    2.2812514   -4.3736969    5215.3349       -1e+20 
   55200    2.3420929   -4.4368444    5167.1207            1 
   55300    2.3376655   -4.5116951    5130.4519       -1e+20 
   55400    2.3088584   -4.4946206    5138.8684            3 
   55500    2.3293765   -4.4599626    5163.9713       -1e+20 
   55600    2.3367933   -4.4361609    5173.4709            1 
   55700    2.3235342   -4.4546568    5178.7169            1 
   55800    2.3026923    -4.403398    5169.1458            1 
   55900    2.3024571   -4.3672513    5202.3487            1 
   56000    2.2810127   -4.3680714    5169.9538            2 
   56100     2.258181   -4.4256379    5167.4197            1 
   56200    2.3225338   -4.4541346    5160.5909       -1e+20 
   56300    2.3293292   -4.4001633    5160.9392            1 
   56400    2.2874502   -4.3909201     5171.574       -1e+20 
   56500    2.3665184   -4.4647744    5185.0365       -1e+20 
   56600    2.2836459   -4.4264311    5174.4734       -1e+20 
   56700    2.3513133   -4.4441754    5168.5656       -1e+20 
   56800    2.3333656    -4.472688    5185.9389            1 
   56900    2.2802096    -4.465884     5131.264       -1e+20 
   57000     2.317786   -4.4860105    5141.2016            3 
   57100    2.3254444   -4.5020447    5132.3753       -1e+20 
   57200    2.3355933    -4.459264    5167.2266       -1e+20 
   57300    2.3421912   -4.4579413    5159.2567            1 
   57400    2.3068328      -4.4954    5136.2764            1 
   57500    2.3183962   -4.4529586    5153.3737       -1e+20 
   57600    2.3401948   -4.4344527    5198.2334            1 
   57700    2.3227857   -4.4499199    5192.6835       -1e+20 
   57800    2.3279688   -4.4540655     5150.662       -1e+20 
   57900    2.3070141    -4.488001    5168.6793            1 
   58000    2.3270577   -4.4398023    5126.4425            1 
   58100    2.3380477   -4.4358317    5206.6947            1 
   58200    2.3280573   -4.4395373    5170.6972            1 
   58300    2.3021285   -4.4212348    5155.6856            1 
   58400    2.3395257    -4.400851    5181.1531            1 
   58500    2.3312257   -4.4677449    5198.9885       -1e+20 
   58600    2.3356496   -4.4492024     5138.154            1 
   58700    2.3573507   -4.4086252    5193.2157            1 
   58800    2.3137849    -4.450255    5203.3126       -1e+20 
   58900    2.3118723   -4.4002282    5141.3294            1 
   59000    2.2731084   -4.4782626    5151.9707            1 
   59100    2.3228409   -4.4846592    5156.2376       -1e+20 
   59200    2.3320083   -4.4533884     5154.086       -1e+20 
   59300    2.3107425   -4.4041969    5200.0437       -1e+20 
   59400    2.3527392   -4.3499164    5219.6986            1 
   59500     2.307288   -4.3704254    5187.2506            1 
   59600    2.3217241   -4.4712279    5169.2808       -1e+20 
   59700    2.3086534   -4.4374208    5141.8265       -1e+20 
   59800    2.3654257   -4.4540514     5194.665       -1e+20 
   59900    2.2934865   -4.4484874    5175.9944       -1e+20 
   60000    2.3624701   -4.4967543    5137.6853       -1e+20 
   60100    2.2998196   -4.4750388    5183.5761            1 
   60200    2.3496849   -4.4479538    5168.1974            1 
   60300    2.3199807   -4.4489549    5154.3638            1 
   60400     2.303438   -4.4663546    5183.2165            4 
   60500    2.3562741   -4.4147571    5199.3816       -1e+20 
   60600    2.3425788   -4.4529428    5159.5347            2 
   60700    2.3050034   -4.4583999    5180.8076            1 
   60800    2.3581962   -4.3991046    5157.0983            1 
   60900    2.3100043   -4.4911819     5177.457       -1e+20 
   61000    2.3140467   -4.4234347    5167.4973            1 
   61100    2.3540857   -4.3669679    5202.0509       -1e+20 
   61200    2.2861581   -4.3948948    5179.6395            1 
   61300    2.2831205   -4.4101845    5159.2438            1 
   61400    2.3841379   -4.4641986     5185.696            1 
   61500    2.3019733   -4.4499524    5183.4511       -1e+20 
   61600      2.36053   -4.4669737    5163.0116            1 
   61700    2.3225768   -4.4750182    5177.3958            1 
   61800    2.3518472   -4.5070305    5150.6566            1 
   61900    2.3110217   -4.4974632    5135.4054            1 
   62000    2.2881964   -4.4182079    5170.1565       -1e+20 
   62100    2.3468018   -4.4158397    5176.0418            1 
   62200    2.2846778   -4.4558605    5184.0472            1 
   62300    2.4125916   -4.4639446     5147.485            1 
   62400    2.3006044   -4.4365454    5192.0342       -1e+20 
   62500    2.3029667   -4.4185645    5156.0901            1 
   62600    2.3387663   -4.4619607    5166.1529       -1e+20 
   62700    2.3220143    -4.451108    5177.4132       -1e+20 
   62800    2.3130919   -4.4762797    5127.7294       -1e+20 
   62900     2.283261   -4.5142034    5130.4461            1 
   63000     2.322176   -4.4661962    5174.0988            1 
   63100    2.3495148   -4.4091945    5199.3767            1 
   63200    2.3267066   -4.4222682     5167.264       -1e+20 
   63300    2.3048161   -4.4594998    5180.2294       -1e+20 
   63400    2.3697225   -4.4302998     5153.312            1 
   63500    2.2786234   -4.4413315    5199.3292       -1e+20 
   63600    2.3663749   -4.4662787    5149.6057       -1e+20 
   63700    2.2999139   -4.4270475    5167.4803            1 
   63800    2.3282081    -4.449976    5176.7003       -1e+20 
   63900    2.3152696   -4.4609281    5164.0033       -1e+20 
   64000     2.362336   -4.4483994    5170.6007            1 
   64100    2.3002258   -4.4394754    5213.9116       -1e+20 
   64200    2.3206422   -4.4376055    5121.1537            1 
   64300    2.2688273   -4.4332428    5169.7428            1 
   64400    2.3026188   -4.4004789    5162.6861            1 
   64500    2.3350314   -4.4199422    5188.6864            1 
   64600    2.3273922   -4.4233744    5198.8873            1 
   64700    2.3324062   -4.4348755    5148.5264            1 
   64800     2.263889   -4.4227085     5174.692            1 
   64900    2.3499766   -4.4273881    5165.5925            1 
   65000    2.3028088   -4.4363279    5181.0267            1 
   65100    2.3071503   -4.4217837    5185.2438       -1e+20 
   65200    2.3472423   -4.3616745    5195.9282       -1e+20 
   65300    2.3502805   -4.3827357    5259.6734            1 
   65400    2.3411794     -4.43001    5173.0825            1 
   65500    2.3015365   -4.4555192    5160.1133            1 
   65600    2.3437961   -4.4136258    5161.2957            1 
   65700    2.2992831   -4.4742894    5176.3701       -1e+20 
   65800    2.2916168   -4.4385092    5144.5697            1 
   65900    2.3689025   -4.4450201    5167.4804            1 
   66000    2.2951679   -4.4474361    5190.4498       -1e+20 
   66100    2.3314856   -4.4368482    5149.4967            1 
   66200    2.2413821   -4.4393718    5155.8415       -1e+20 
   66300     2.335007   -4.4782267     5145.198       -1e+20 
   66400    2.3695774   -4.4409328    5162.9619       -1e+20 
   66500    2.3005494   -4.4569366    5202.6373            1 
   66600    2.3562049   -4.4795877    5147.8969            1 
   66700    2.3117765   -4.5017627    5154.1044            1 
   66800    2.3280269   -4.4691227    5147.4558       -1e+20 
   66900    2.3317049   -4.4478179    5171.9931            1 
   67000    2.3060048   -4.4658353    5165.3122       -1e+20 
   67100    2.3132949   -4.4334897    5162.5007       -1e+20 
   67200    2.3050995   -4.4209058    5190.8316       -1e+20 
   67300     2.368552   -4.3921153    5206.0629       -1e+20 
   67400    2.3054025     -4.43239    5191.0694            1 
   67500    2.2979955   -4.4483185    5169.4819            2 
   67600    2.3309457   -4.4033807    5167.2623       -1e+20 
   67700    2.2991051   -4.3933687    5194.0146            1 
   67800    2.3406295   -4.4315128     5161.897       -1e+20 
   67900    2.2886936   -4.4160828    5192.4423       -1e+20 
   68000    2.3685475   -4.4473269     5185.565       -1e+20 
   68100    2.2996083   -4.3979435    5184.0926            1 
   68200    2.3405087    -4.453605    5178.1756            1 
   68300    2.3102971   -4.4444844    5160.2056       -1e+20 
   68400    2.3360658   -4.4251713    5166.1234       -1e+20 
   68500    2.2742757   -4.4234225     5195.958            1 
   68600    2.3588267   -4.4352297    5131.0061            1 
   68700     2.275891   -4.4703442    5171.9551       -1e+20 
   68800    2.3276278   -4.4380988    5144.5559       -1e+20 
   68900    2.3335611   -4.4715783    5176.0255            2 
   69000    2.3167295    -4.449415    5176.9484            1 
   69100    2.3677132    -4.464788    5171.2086            1 
   69200    2.3122424    -4.451712    5186.2681            1 
   69300    2.3423911   -4.3887075    5175.6166       -1e+20 
   69400    2.3023604   -4.4237912    5187.1443            1 
   69500    2.3612335    -4.464129    5176.3716            1 
   69600    2.3344707   -4.4171274    5198.3374            1 
   69700    2.3278295   -4.4281209    5211.7464            1 
   69800    2.3010997   -4.4140059    5168.8024       -1e+20 
   69900    2.3622023    -4.429547    5197.1728       -1e+20 
   70000    2.2845039   -4.4244764    5173.1136            1 
   70100    2.3061323   -4.4197729    5151.5221       -1e+20 
   70200    2.3442032   -4.4005851    5184.9596       -1e+20 
   70300     2.317761   -4.4497764    5191.4796            1 
   70400    2.3699269   -4.4444621    5148.9765       -1e+20 
   70500    2.2964306   -4.4806126    5158.3718            1 
   70600    2.3417734   -4.4651349    5173.0421            1 
   70700    2.3032018   -4.4213678    5163.5994            1 
   70800    2.2968789   -4.4473459     5151.165       -1e+20 
   70900    2.3256923   -4.4485029     5187.641       -1e+20 
   71000    2.3106843   -4.4703835    5138.7324            1 
   71100    2.3151389   -4.4737831    5111.5722            1 
   71200    2.2788737   -4.4724925    5189.4245       -1e+20 
   71300    2.3794269    -4.415384    5127.7251            1 
   71400    2.3127343   -4.4435432    5208.6453            1 
   71500     2.325247   -4.5132925      5147.64            1 
   71600    2.3191089   -4.4745006    5129.1858            1 
   71700    2.3055994   -4.4764444    5165.2335       -1e+20 
   71800    2.3468013   -4.4559552    5161.0656       -1e+20 
   71900    2.2476855   -4.4333364    5180.2534       -1e+20 
   72000    2.3494262   -4.4299801     5157.927       -1e+20 
   72100    2.3037584   -4.4405878    5150.8136       -1e+20 
   72200    2.3336281   -4.4266143    5212.1726       -1e+20 
   72300    2.3386237   -4.3677137      5192.74            1 
   72400    2.3419597   -4.4437865    5186.2594            1 
   72500    2.3126711   -4.4551508    5165.4175            1 
   72600    2.2512688   -4.4848127    5115.0292            1 
   72700    2.2908902   -4.4778378    5130.5376            1 
   72800    2.3337178   -4.4774945     5161.218       -1e+20 
   72900    2.3349025   -4.4631709    5171.5847            1 
   73000    2.2935567   -4.4437503    5171.2353       -1e+20 
   73100    2.3572055   -4.4739684    5170.2197            1 
   73200    2.3431296   -4.4989434    5130.0384            1 
   73300    2.2872201   -4.5127096    5172.0664            2 
   73400    2.3241171   -4.4028592    5136.1195            1 
   73500    2.3320402   -4.4485519    5197.7675            1 
   73600    2.3490582   -4.4417047    5178.6806       -1e+20 
   73700    2.3576071   -4.4796058     5178.193            1 
   73800    2.2423916   -4.4224795    5165.5958            1 
   73900    2.3168789   -4.4170948    5135.2918       -1e+20 
   74000     2.322373   -4.4461497    5188.6099       -1e+20 
   74100    2.2865771   -4.4429776    5153.5248            2 
   74200    2.3059357   -4.4382666    5144.2245       -1e+20 
   74300    2.3077471   -4.4480024    5163.0619            1 
   74400    2.3088949   -4.4964289    5149.1687            1 
   74500    2.3116326    -4.442455    5198.0029            1 
   74600    2.3382409   -4.3876123    5176.5252            1 
   74700    2.3151719   -4.4998849    5169.4919       -1e+20 
   74800    2.3179703   -4.4699293    5151.3611            1 
   74900    2.3715549   -4.4385209    5187.2025            1 
   75000    2.3413764   -4.4511456    5184.3404       -1e+20 
   75100    2.3083142   -4.4826417    5157.4436            1 
   75200    2.3605587   -4.4223763    5165.1811            1 
   75300    2.3179082   -4.4565741    5160.9387            1 
   75400    2.3124269   -4.4727421    5142.1853            1 
   75500    2.3663453   -4.4580726    5142.8297            1 
   75600    2.2574237   -4.4371911    5189.2167       -1e+20 
   75700    2.3470479   -4.3947976    5178.1978            1 
   75800    2.3049323   -4.4026574     5189.225            1 
   75900    2.3242594   -4.4089878    5195.6201       -1e+20 
   76000    2.3397844    -4.459019    5137.0383       -1e+20 
   76100    2.2468507   -4.4668447    5158.4812            1 
   76200      2.34225   -4.4272799    5129.3359            1 
   76300    2.3466644   -4.4579013    5193.0017            1 
   76400     2.311845   -4.4485558    5171.9047            1 
   76500    2.3101281   -4.4141395    5152.4404            1 
   76600    2.3214021   -4.4035944     5200.674            1 
   76700     2.331208   -4.3865643    5209.4656            1 
   76800     2.296072   -4.4206779    5152.4832            1 
   76900    2.3067494   -4.4820082    5174.1936            2 
   77000    2.3247901   -4.4184412     5165.333            1 
   77100    2.3271578   -4.4659957    5174.8289       -1e+20 
   77200    2.2807889   -4.4858709    5131.0969            2 
   77300     2.342884   -4.4774117    5152.6329       -1e+20 
   77400      2.35023   -4.4361947    5191.0941            1 
   77500    2.3449538   -4.4183246    5202.1521            1 
   77600    2.3066479   -4.4063314    5186.0698            1 
   77700    2.3636419   -4.4043599    5186.9263       -1e+20 
   77800    2.2882587   -4.4195827    5194.4079            1 
   77900    2.3767032   -4.4583445    5163.6307       -1e+20 
   78000    2.2849673   -4.4642363    5161.4359            1 
   78100    2.3247183    -4.427741      5178.81       -1e+20 
   78200    2.3763008   -4.3744806    5206.4403            1 
   78300    2.3183554   -4.3986839    5223.8402            1 
   78400    2.3247906   -4.4200901    5188.5431            1 
   78500    2.3241912   -4.4638198    5169.2377            1 
   78600    2.2988147    -4.418795    5171.3261       -1e+20 
   78700    2.3556376   -4.4368846    5166.0253            1 
   78800    2.2883011   -4.4268242    5196.6991            1 
   78900    2.3255536   -4.3896224    5168.1703            1 
   79000    2.3022457   -4.4311396    5179.5221            1 
   79100    2.2727433   -4.4143596    5148.7068            1 
   79200    2.3350236   -4.4285292    5158.3319            1 
   79300    2.3022249    -4.481054    5186.0044       -1e+20 
   79400    2.3319497    -4.436103    5144.2586       -1e+20 
   79500    2.2881663    -4.477071    5152.7864       -1e+20 
   79600    2.3058004   -4.4767258     5118.416            2 
   79700    2.3048039   -4.4108446    5190.2422            1 
   79800    2.3196029   -4.4076435    5202.0336            1 
   79900    2.2595657   -4.4399324    5141.9249            1 
   80000       2.3125   -4.4849496    5139.4072            1 
   80100    2.3231069   -4.4192723    5192.7703            1 
   80200    2.3285191   -4.4147766    5194.0724       -1e+20 
   80300    2.3065052    -4.465697    5164.5406       -1e+20 
   80400    2.3542282   -4.4355625    5186.4762            1 
   80500    2.3085499   -4.3693069    5214.9267            1 
   80600    2.3436628   -4.4228695    5217.1841            1 
   80700    2.3283033   -4.4227218    5132.4171       -1e+20 
   80800    2.2731765   -4.4851946    5183.3056       -1e+20 
   80900    2.3368403   -4.4344076    5153.0919       -1e+20 
   81000     2.300904   -4.4199197    5167.8756       -1e+20 
   81100    2.3329122   -4.4205912    5208.3236            1 
   81200    2.3517894   -4.4590281    5130.3082            1 
   81300    2.3028694   -4.4948425    5146.9527            1 
   81400    2.3386057   -4.4674565    5166.8959            1 
   81500    2.3283037   -4.4361633    5162.0552            1 
   81600    2.2888537   -4.4615044     5144.901            1 
   81700     2.332994   -4.4460108    5176.0666            1 
   81800    2.3573744   -4.4295858    5199.0285       -1e+20 
   81900    2.3177363   -4.4022302    5210.4608       -1e+20 
   82000    2.3311868   -4.4262473    5156.3714            1 
   82100    2.2800737   -4.4752379    5141.4725            1 
   82200    2.3308844   -4.4680096    5180.0721            1 
   82300    2.3296976   -4.4898757    5143.1186       -1e+20 
   82400    2.3229354   -4.4486009    5140.2986       -1e+20 
   82500    2.3207388   -4.4489613    5197.1603            1 
   82600    2.3373412   -4.4362524    5135.1473       -1e+20 
   82700    2.3013727   -4.4880677    5133.9049       -1e+20 
   82800    2.3337691   -4.4703029    5158.2325       -1e+20 
   82900    2.3207264   -4.3964057     5203.454            1 
   83000    2.3355116   -4.4871224    5131.1896            1 
   83100    2.3195608   -4.4464912    5149.1355       -1e+20 
   83200    2.3050468   -4.4507356    5195.8555            2 
   83300    2.3369163   -4.4431714     5145.154            1 
   83400    2.3098005   -4.4610824    5193.3371            2 
   83500    2.3426043   -4.4495141    5150.1533            1 
   83600    2.3346339   -4.4794885    5183.5552            1 
   83700    2.3340653   -4.4823497    5164.2256       -1e+20 
   83800     2.321112   -4.4322317    5182.5309            1 
   83900    2.3404029   -4.4058539    5184.3136       -1e+20 
   84000     2.291678   -4.4334797    5163.5256            1 
   84100    2.3089287    -4.462746    5141.1548       -1e+20 
   84200    2.3299146   -4.4501315    5165.7745       -1e+20 
   84300    2.3189968   -4.4386694    5184.4545            1 
   84400    2.2826509   -4.4991852    5153.9464            1 
   84500    2.3393858   -4.5060495    5096.9231       -1e+20 
   84600    2.2918013   -4.4601118    5164.2446            1 
   84700    2.2850303   -4.3550016    5194.7493       -1e+20 
   84800    2.3383676   -4.3777581    5181.4352            1 
   84900    2.3112344   -4.4499942    5167.6669            1 
   85000    2.3383575   -4.4483779     5190.119            1 
   85100    2.3368305   -4.4261915    5171.3822       -1e+20 
   85200    2.3516069   -4.5065634    5156.5065            1 
   85300    2.3404288   -4.4204511    5211.2414            1 
   85400    2.3140555   -4.4068899     5163.016            1 
   85500    2.2981221   -4.4420587    5174.9275       -1e+20 
   85600    2.3061793   -4.3885584    5171.6242            1 
   85700    2.3368845   -4.4294577    5171.1046            2 
   85800    2.2901856    -4.476348    5181.2976            1 
   85900    2.3550082   -4.4568521    5129.1694       -1e+20 
   86000    2.2762585   -4.4633804    5177.7776            1 
   86100    2.3410443   -4.4470471    5150.8887            1 
   86200    2.3162076   -4.4461526    5170.2059            1 
   86300    2.3083004   -4.4313363    5197.4026            1 
   86400    2.3228666   -4.3948656    5163.2301            1 
   86500    2.3263173   -4.3736429    5214.4696       -1e+20 
   86600    2.3197812   -4.4491861    5181.4774            1 
   86700    2.2433602   -4.4300033    5141.8767       -1e+20 
   86800    2.3181431   -4.4210175    5154.6782       -1e+20 
   86900    2.3496317    -4.485746    5194.7688            1 
   87000    2.3216677   -4.4507283    5169.1866            1 
   87100    2.3344384    -4.470564    5155.3625       -1e+20 
   87200    2.3241106   -4.4121034    5206.4242            1 
   87300    2.3241577   -4.4517762    5132.0058            1 
   87400    2.3074112   -4.4683548    5167.7123            1 
   87500    2.3381504   -4.4525018    5165.8431       -1e+20 
   87600    2.3369193   -4.4578176    5183.8576       -1e+20 
   87700    2.3270705   -4.4161867    5215.6817       -1e+20 
   87800    2.3160835   -4.4179544    5166.3303            1 
   87900    2.2820671   -4.4339167    5160.0872            1 
   88000    2.3754091   -4.4667537    5150.7077            1 
   88100      2.30251   -4.4740266    5165.0161            1 
   88200    2.2561398   -4.4375117    5146.4343       -1e+20 
   88300    2.3545111   -4.4581358    5167.7703       -1e+20 
   88400    2.2866828   -4.4653324    5176.5211       -1e+20 
   88500     2.331056   -4.4116984    5146.9988       -1e+20 
   88600    2.2929456   -4.4310028    5168.0084       -1e+20 
   88700    2.3331169   -4.4372693    5166.1904            1 
   88800    2.3530546    -4.399952    5192.4136            1 
   88900    2.2956435   -4.4145636    5153.9114            1 
   89000     2.328961    -4.446973    5163.7659       -1e+20 
   89100      2.34545   -4.4319751    5207.7137            2 
   89200    2.3391088   -4.4563516    5187.2927       -1e+20 
   89300    2.3104747   -4.4727522    5153.1412       -1e+20 
   89400    2.3677524   -4.4682781    5171.2862            1 
   89500    2.2756492   -4.4373201    5177.8639            1 
   89600    2.3623394   -4.4201304    5154.3204       -1e+20 
   89700    2.2785178   -4.4305013    5199.6474       -1e+20 
   89800    2.3333938   -4.3643344    5193.0306            1 
   89900     2.346556   -4.3939609    5199.0842            1 
   90000    2.2746325   -4.4202598    5207.1083       -1e+20 
   90100    2.3520815   -4.4104861    5172.9588            1 
   90200    2.2748335    -4.390952    5178.0827       -1e+20 
   90300    2.3838273   -4.4509773    5180.6993            1 
   90400    2.2847501   -4.4439955    5173.4871            1 
   90500    2.3388887   -4.4671538    5151.3851       -1e+20 
   90600    2.2443211   -4.4542428    5171.3842       -1e+20 
   90700    2.3494256   -4.4540461    5169.9749            1 
   90800     2.317956   -4.4391098    5207.2182            1 
   90900    2.3413173   -4.4148532    5146.6611            1 
   91000    2.3220629     -4.45505    5168.6168            1 
   91100     2.282657   -4.4297592    5193.5398       -1e+20 
   91200    2.3248617   -4.3750439    5141.4923       -1e+20 
   91300    2.3263926   -4.4722498    5227.3365            1 
   91400    2.3345725   -4.4101845    5158.2689            1 
   91500    2.3032655   -4.4287398    5176.5988            1 
   91600    2.3278115   -4.4378663    5195.1542       -1e+20 
   91700    2.3133371   -4.4589375    5152.4155            1 
   91800    2.3321121   -4.4787198    5164.4632            1 
   91900    2.3144606   -4.4282579    5173.8636            1 
   92000    2.4103566   -4.4346508    5171.9463            1 
   92100    2.3000831   -4.4330443     5195.455            1 
   92200    2.2909529   -4.4323008    5127.8051       -1e+20 
   92300     2.288885   -4.3898349    5182.1961            1 
   92400    2.3090776   -4.4685231    5174.8722       -1e+20 
   92500    2.3391358   -4.4520291    5158.2229       -1e+20 
   92600    2.2956895   -4.4750212    5186.7744       -1e+20 
   92700    2.3705825   -4.4234917    5157.7422            1 
   92800    2.2821058    -4.414273    5225.7366       -1e+20 
   92900    2.3561176   -4.4180243    5178.9014            1 
   93000    2.2898709   -4.4162757    5175.3479       -1e+20 
   93100    2.2894937   -4.4115854    5148.3607            1 
   93200    2.2663041    -4.393088    5149.3492       -1e+20 
   93300    2.3002432   -4.4049387    5191.8013       -1e+20 
   93400    2.3370647   -4.4183371    5194.2772       -1e+20 
   93500    2.2971688   -4.4229952     5159.099            1 
   93600    2.3320679   -4.4218119    5193.2793            2 
   93700    2.3216008   -4.4248987    5172.8906       -1e+20 
   93800    2.3153045   -4.4628809    5160.6012            1 
   93900    2.3397511   -4.4088176    5182.0683            1 
   94000    2.3067008   -4.3572621    5229.7969            1 
   94100    2.3492415   -4.3958922    5195.7963            1 
   94200    2.3165321   -4.4324858    5180.8805            1 
   94300    2.3042016   -4.3930661    5179.7454            1 
   94400    2.3492858   -4.4549452    5162.1868            1 
   94500    2.2901953   -4.4807414    5169.4893            1 
   94600    2.3512732    -4.440847     5163.453            1 
   94700    2.3005449   -4.3951696    5174.1952            1 
   94800     2.295588   -4.4448331    5180.9617            1 
   94900    2.3529318    -4.450261    5165.8656            1 
   95000    2.3089451   -4.4445779    5182.3826            1 
   95100    2.3326692    -4.439678    5155.8341            1 
   95200    2.2849865   -4.3921488    5174.2241            1 
   95300    2.3530439   -4.4366669    5204.7768            1 
   95400    2.3036338   -4.4270512    5144.8611       -1e+20 
   95500    2.3073624   -4.4527182     5191.128            1 
   95600    2.3230314    -4.388761    5172.4623            1 
   95700    2.3209225   -4.4086045     5185.776            2 
   95800     2.327178   -4.4728956    5188.5821            1 
   95900    2.3058833   -4.4035857    5159.3855       -1e+20 
   96000    2.3595446   -4.4132108    5203.6789       -1e+20 
   96100    2.2867533   -4.3981994    5188.0044            1 
   96200    2.3225696   -4.3997525    5186.5884       -1e+20 
   96300    2.2784233    -4.395414    5190.7425            1 
   96400    2.3775448   -4.4909647    5156.0792            1 
   96500    2.2936069   -4.4531393    5195.8296            1 
   96600    2.3708591   -4.4599755    5148.6548            1 
   96700    2.2555904   -4.4345934    5201.0659            1 
   96800    2.3562992   -4.4321328    5192.8932       -1e+20 
   96900     2.332491   -4.4238986    5193.3085            1 
   97000    2.2860683    -4.416901    5181.4955            1 
   97100    2.3396799   -4.4178256    5140.7199            1 
   97200    2.2245229   -4.4674971    5187.3548       -1e+20 
   97300    2.3158476    -4.443425    5118.5648       -1e+20 
   97400    2.3328409   -4.4175077    5165.6411            2 
   97500    2.3291198   -4.4661888    5194.4321            1 
   97600    2.3347104    -4.410134    5181.0616            1 
   97700    2.3088943   -4.3654601    5207.9431       -1e+20 
   97800    2.3378315   -4.4526533     5158.079            1 
   97900    2.2573182   -4.4752986    5169.9473            2 
   98000      2.38308   -4.4854585    5144.4648            1 
   98100    2.3023189   -4.4737645    5154.3464            1 
   98200    2.2622166    -4.519685    5112.7656            1 
   98300    2.3234175   -4.4863546    5108.2224       -1e+20 
   98400    2.2939523   -4.4798855    5168.3766            1 
   98500    2.3214562    -4.409288    5174.9955       -1e+20 
   98600    2.3332333   -4.4230974    5184.2302            1 
   98700    2.3307657   -4.4297157    5201.9005            1 
   98800    2.3265942   -4.4046057    5156.5644       -1e+20 
   98900    2.2610579   -4.4572886    5177.4862            1 
   99000    2.3849019   -4.4785698    5155.8292            1 
   99100    2.3149328    -4.419123    5187.3161            1 
   99200    2.2984759   -4.3926834    5203.8016            1 
   99300    2.3780583   -4.3799875    5194.1561       -1e+20 
   99400     2.312764   -4.4140974    5183.2077            1 
   99500    2.3072604   -4.4102524    5184.3113       -1e+20 
   99600     2.341725   -4.4363774    5172.4157       -1e+20 
   99700    2.3266395   -4.4866189    5155.1519       -1e+20 
   99800    2.3636218   -4.3963291    5173.9579            1 
   99900    2.3422589   -4.4477381    5232.1992            1 
  100000    2.3224538   -4.4789564    5145.9629            1 
  100100    2.3019389   -4.4034126    5133.9469       -1e+20 
  100200    2.3263651   -4.4479931    5179.7696            1 
  100300    2.3193748   -4.4757528     5137.874            1 
  100400    2.2859999   -4.4577486    5162.8999       -1e+20 
  100500     2.303991    -4.353174    5172.1036       -1e+20 
  100600     2.326391   -4.4062282    5197.5412            1 
  100700    2.3170313   -4.4831721    5205.1991            1 
  100800    2.3531548   -4.4047831    5152.8318       -1e+20 
  100900    2.2612637   -4.3983678    5205.7688            1 
  101000    2.3160271     -4.42507    5135.0779       -1e+20 
  101100    2.3164597   -4.4372414    5204.6672            1 
  101200    2.3449171   -4.4439495    5184.2576            1 
  101300     2.351145   -4.4835131     5168.301       -1e+20 
  101400    2.2867754   -4.4118003    5188.1303            1 
  101500    2.3534277   -4.4032622     5185.067            1 
  101600    2.3401385   -4.4687865     5177.985            1 
  101700    2.3316181   -4.5036333    5135.1376            1 
  101800    2.3403066   -4.4748046    5175.5747       -1e+20 
  101900    2.2988202   -4.4464141    5168.7953       -1e+20 
  102000    2.3698346    -4.466289    5136.1087            2 
  102100    2.3010138   -4.4650623    5210.5366       -1e+20 
  102200    2.3393298   -4.4410191    5150.1728            1 
  102300    2.3285198   -4.3986373    5197.5208            1 
  102400    2.2880292   -4.4360289    5157.8324       -1e+20 
  102500    2.3123542   -4.4448854     5174.267            1 
  102600    2.3638293   -4.4178588    5177.7492       -1e+20 
  102700    2.2952383   -4.4579488    5176.8103            1 
  102800    2.3308654   -4.4252929    5190.9702       -1e+20 
  102900    2.3439825   -4.4113113    5174.1241       -1e+20 
  103000    2.3269424   -4.4772442    5128.1377       -1e+20 
  103100    2.2911781   -4.4708364    5152.5277       -1e+20 
  103200    2.3336319   -4.4229182    5174.7512            1 
  103300    2.3591414   -4.4576148     5170.184            1 
  103400    2.3085534   -4.4934774    5155.3161       -1e+20 
  103500    2.3324168   -4.4514647    5162.0238            1 
  103600    2.3241933   -4.4517369    5169.7986       -1e+20 
  103700    2.3058057   -4.5095769    5143.0933       -1e+20 
  103800    2.3550288   -4.4422398    5125.0861       -1e+20 
  103900    2.3509977   -4.4047092    5218.3847       -1e+20 
  104000    2.3142335   -4.4052917    5211.1412       -1e+20 
Loop time of 163.637 on 32 procs for 100000 steps with 4000 atoms

Performance: 105599.859 tau/day, 611.110 timesteps/s
99.7% CPU use with 32 MPI tasks x no OpenMP threads

MPI task timing breakdown:
Section |  min time  |  avg time  |  max time  |%varavg| %total
---------------------------------------------------------------
Pair    | 12.206     | 12.825     | 13.277     |   8.4 |  7.84
Neigh   | 2.35       | 2.3933     | 2.4442     |   1.6 |  1.46
Comm    | 8.8382     | 9.7238     | 11.487     |  20.1 |  5.94
Output  | 3.6051     | 3.6057     | 3.6174     |   0.1 |  2.20
Modify  | 131.24     | 133.9      | 134.87     |   7.8 | 81.83
Other   |            | 1.191      |            |       |  0.73

Nlocal:        125.000 ave         135 max         117 min
Histogram: 3 2 5 5 4 5 3 1 2 2
Nghost:        1658.25 ave        1679 max        1628 min
Histogram: 1 0 1 4 5 3 8 6 1 3
Neighs:        10955.8 ave       12102 max        9859 min
Histogram: 1 2 3 6 7 2 7 0 1 3
FullNghs:      21910.9 ave       23990 max       20192 min
Histogram: 3 1 4 7 3 7 2 1 2 2

Total # of neighbors = 701148
Ave neighs/atom = 175.28700
Neighbor list builds = 8941
Dangerous builds = 1521

#clear
#
#next RN
#
#jump SELF
Total wall time: 0:02:44
