
units lj                  # Use reduced LJ style units
atom_style atomic         # Uncharged point particles
atom_modify map hash      # Needed for indexing of clusters etc
                          # Used to be able to find where atoms are in relation to each other.

# Define a lattice with which to populate the simulation cell. With units
# set to 'lj' the second argument to the lattice command is the reduced
# density rho* and the spacings are multiples of that required to acheive
# that density. Also define a simulation cell called 'box' in lattice units
# and fill it with atoms. Here we're creating a box which is ten lattice
# constants in each direction.
lattice fcc 1.0 spacing 1 1 1                 # All equal sizes - gives the right reduced density.
Lattice spacing in x,y,z = 1.5874011 1.5874011 1.5874011

region box block 0 10 0 10 0 10 units lattice # Defines a region, "box", in lattice units
create_box 1 box                              # Creates a simulation box as specified above,
Created orthogonal box = (0.0000000 0.0000000 0.0000000) to (15.874011 15.874011 15.874011)
  3 by 4 by 4 MPI processor grid
                                              # with one type of atom
create_atoms 1 box                            # Creates particles on lattice points
Created 4000 atoms
  using lattice units in orthogonal box = (0.0000000 0.0000000 0.0000000) to (15.874011 15.874011 15.874011)
  create_atoms CPU = 0.002 seconds


# Set the mass of the first (and only) atom type.
mass 1 1.0

# Lennard-Jones interactions between particles, 3.5 sigma cut-off. Apply
# long range tail corrections to energy and pressure and set all coefficients
# to unity since we work in reduced units here. Note that this doesn't shift
# the potential such that it goes to zero at the cutoff. That would require
# pair_modify('shift', 'yes').
pair_style lj/cut  3.5      # non-GPU version
pair_modify tail  yes
pair_coeff 1  1  1.0  1.0   # Intearaction between 1 and 1 set with epsilon = 1 and sigma = 1

write_data data.*
System init for write_data ...
Neighbor list info ...
  update every 1 steps, delay 10 steps, check yes
  max neighbors/atom: 2000, page size: 100000
  master list distance cutoff = 3.8
  ghost atom cutoff = 3.8
  binsize = 1.9, bins = 9 9 9
  1 neighbor lists, perpetual/occasional/extra = 1 0 0
  (1) pair lj/cut, perpetual
      attributes: half, newton on
      pair build: half/bin/atomonly/newton
      stencil: half/bin/3d
      bin: standard

#############################
#   M E L T   S Y S T E M   #
#############################

velocity all create 2.4 9622624 mom yes dist gaussian # Assign velocities
                                                    # Temperature 2.4, random number seed, zero linear momentum
						                                                        # Gaussian distribution

timestep 0.002   # simulation timestep
thermo 1000       # output thermodynamic data every 1000 steps

# Define a fix  in this case with index 1 applied to all
# particles in the simulation. This fix is for simulations
# in the anisotropic NPT ensemble. Note that we use the MTK
# correction.
fix 1 all npt temp 2.4 2.4 0.1 iso 5.68 5.68 0.5 mtk yes tchain 5 pchain 5 # Use NPT ensemble
                                                                         # Set temperature and pressure and damping
                                                                         # Numbers of thermostats in chain and in barostat
run 1000         # run for 10000 steps
Per MPI rank memory allocation (min/avg/max) = 3.642 | 3.644 | 3.648 Mbytes
Step Temp E_pair E_mol TotEng Press Volume 
       0          2.4   -8.3859253            0   -4.7868253   -2.2405722         4000 
    1000    2.3675277   -4.4709979            0  -0.92059417    5.6600046    5150.2326 
Loop time of 0.229989 on 48 procs for 1000 steps with 4000 atoms

Performance: 751339.772 tau/day, 4348.031 timesteps/s
99.3% CPU use with 48 MPI tasks x no OpenMP threads

MPI task timing breakdown:
Section |  min time  |  avg time  |  max time  |%varavg| %total
---------------------------------------------------------------
Pair    | 0.094168   | 0.10125    | 0.12528    |   2.0 | 44.02
Neigh   | 0.017867   | 0.01902    | 0.023526   |   0.8 |  8.27
Comm    | 0.058569   | 0.082549   | 0.094158   |   2.5 | 35.89
Output  | 2.7405e-05 | 2.8862e-05 | 3.6642e-05 |   0.0 |  0.01
Modify  | 0.019103   | 0.025589   | 0.032855   |   2.7 | 11.13
Other   |            | 0.001552   |            |       |  0.67

Nlocal:        83.3333 ave          90 max          75 min
Histogram: 3 2 3 4 10 0 12 2 7 5
Nghost:        1388.62 ave        1413 max        1360 min
Histogram: 1 2 4 4 7 12 8 6 2 2
Neighs:        7393.46 ave        8492 max        6395 min
Histogram: 2 3 7 3 11 8 7 4 2 1

Total # of neighbors = 354886
Ave neighs/atom = 88.721500
Neighbor list builds = 87
Dangerous builds = 21

# Equilibrate just above the melting temperature to avoid step fn in T

fix 1 all npt temp 1.25 1.25 0.1 iso 5.68 5.68 0.5 mtk yes tchain 5 pchain 5
run 1000
Per MPI rank memory allocation (min/avg/max) = 3.642 | 3.644 | 3.648 Mbytes
Step Temp E_pair E_mol TotEng Press Volume 
    1000    2.3675277   -4.4709979            0  -0.92059417    5.6600046    5150.2326 
    2000    1.2613379    -5.848842            0   -3.9573082    5.7258602    4335.5859 
Loop time of 0.2169 on 48 procs for 1000 steps with 4000 atoms

Performance: 796679.338 tau/day, 4610.413 timesteps/s
99.5% CPU use with 48 MPI tasks x no OpenMP threads

MPI task timing breakdown:
Section |  min time  |  avg time  |  max time  |%varavg| %total
---------------------------------------------------------------
Pair    | 0.095237   | 0.10005    | 0.1131     |   1.1 | 46.13
Neigh   | 0.015634   | 0.016587   | 0.018228   |   0.4 |  7.65
Comm    | 0.062174   | 0.075128   | 0.082501   |   1.5 | 34.64
Output  | 2.3077e-05 | 2.3838e-05 | 3.0961e-05 |   0.0 |  0.01
Modify  | 0.019831   | 0.023207   | 0.027061   |   1.4 | 10.70
Other   |            | 0.001905   |            |       |  0.88

Nlocal:        83.3333 ave          91 max          78 min
Histogram: 6 4 3 15 4 4 7 1 2 2
Nghost:        1554.67 ave        1575 max        1533 min
Histogram: 2 4 1 5 7 14 6 4 2 3
Neighs:        8779.02 ave        9592 max        8178 min
Histogram: 5 6 7 5 5 7 7 1 3 2

Total # of neighbors = 421393
Ave neighs/atom = 105.34825
Neighbor list builds = 76
Dangerous builds = 9


# Small amount of linear quench

fix 1 all npt temp 1.25 ${temp} 0.1 iso 5.68 5.68 0.5 mtk yes tchain 5 pchain 5
fix 1 all npt temp 1.25 0.14 0.1 iso 5.68 5.68 0.5 mtk yes tchain 5 pchain 5
run 2000
Per MPI rank memory allocation (min/avg/max) = 3.643 | 3.645 | 3.648 Mbytes
Step Temp E_pair E_mol TotEng Press Volume 
    2000    1.2613379    -5.848842            0   -3.9573082    5.7258602    4335.5859 
    3000   0.80528574   -6.4881248            0   -5.2804981    6.0105408      4039.52 
    4000   0.26854354   -7.2947273            0   -6.8920127    5.6913099     3768.917 
Loop time of 0.455462 on 48 procs for 2000 steps with 4000 atoms

Performance: 758789.155 tau/day, 4391.141 timesteps/s
99.6% CPU use with 48 MPI tasks x no OpenMP threads

MPI task timing breakdown:
Section |  min time  |  avg time  |  max time  |%varavg| %total
---------------------------------------------------------------
Pair    | 0.20856    | 0.22465    | 0.25186    |   1.4 | 49.32
Neigh   | 0.022697   | 0.023669   | 0.026758   |   0.4 |  5.20
Comm    | 0.13452    | 0.15482    | 0.17142    |   2.1 | 33.99
Output  | 4.7347e-05 | 4.825e-05  | 6.0801e-05 |   0.0 |  0.01
Modify  | 0.03596    | 0.046759   | 0.053519   |   2.4 | 10.27
Other   |            | 0.005516   |            |       |  1.21

Nlocal:        83.3333 ave          90 max          77 min
Histogram: 2 3 2 13 4 6 13 2 0 3
Nghost:        1702.15 ave        1719 max        1691 min
Histogram: 6 4 5 8 8 10 2 3 1 1
Neighs:        10201.6 ave       10974 max        9393 min
Histogram: 2 4 5 6 7 3 9 5 5 2

Total # of neighbors = 489675
Ave neighs/atom = 122.41875
Neighbor list builds = 103
Dangerous builds = 0

#############################
# F R E E Z E  S Y S T E M  #
#############################

# Define solid atoms. This closely follows ten Wolde  Ruiz-Montero and Frenkel  Faraday Discuss  1996  104  93-110
# Compute components of the per-atom q6 vector
compute q6 all orientorder/atom degrees 1 6 components 6 nnn NULL cutoff 1.3 # compute the Q6 parameter.
                                                                             # Use all neighbours within 1.3 unit cell.

# get number of connections
compute coord_number all coord/atom orientorder q6 0.5

# An atom is solid if it has 8 or more connections (of a possible 14)
variable is_solid atom c_coord_number>=8
group solid dynamic all var is_solid    # Must be dynamic to update
dynamic group solid defined

# do clustering
compute cluster solid cluster/atom 1.3 # Create a cluster where all atoms within are solid and max 1.3 units from another member

# define chunks one chunk per cluster
compute clus_chunks solid chunk/atom c_cluster nchunk every compress yes  # Says which atoms are in which chunk

# count the size of each chunk
compute size_chunks solid property/chunk clus_chunks count


# Find the maximum entry in the vector of chunk sizes
variable max_n equal max(c_size_chunks)


# Thermo style which includes this variable
thermo_style custom step temp pe vol v_max_n

thermo ${N}  # Print the thermo information every 100 steps
thermo 1000  

# Reset the npt fix at a lower temperature (below freezing)
fix 1  all npt temp  ${temp} ${temp}  0.1  iso  5.68  5.68  0.5  mtk yes tchain  5  pchain  5
fix 1  all npt temp  0.14 ${temp}  0.1  iso  5.68  5.68  0.5  mtk yes tchain  5  pchain  5
fix 1  all npt temp  0.14 0.14  0.1  iso  5.68  5.68  0.5  mtk yes tchain  5  pchain  5

dump dmp2 all dcd ${N} traj_${rand}.dcd
dump dmp2 all dcd 1000 traj_${rand}.dcd
dump dmp2 all dcd 1000 traj_462431.dcd


# fix rnuntil all halt ${N} v_max_n >= 3980 error soft message no   # Stop when solidified


run 1000000 # 5000000  # Run for this many steps
Neighbor list info ...
  update every 1 steps, delay 10 steps, check yes
  max neighbors/atom: 2000, page size: 100000
  master list distance cutoff = 3.8
  ghost atom cutoff = 3.8
  binsize = 1.9, bins = 9 9 9
  4 neighbor lists, perpetual/occasional/extra = 1 3 0
  (1) pair lj/cut, perpetual
      attributes: half, newton on
      pair build: half/bin/atomonly/newton
      stencil: half/bin/3d
      bin: standard
  (2) compute orientorder/atom, occasional
      attributes: full, newton on
      pair build: full/bin/atomonly
      stencil: full/bin/3d
      bin: standard
  (3) compute coord/atom, occasional
      attributes: full, newton on
      pair build: full/bin/atomonly
      stencil: full/bin/3d
      bin: standard
  (4) compute cluster/atom, occasional
      attributes: full, newton on
      pair build: full/bin/atomonly
      stencil: full/bin/3d
      bin: standard
Per MPI rank memory allocation (min/avg/max) = 9.389 | 9.395 | 9.401 Mbytes
Step Temp PotEng Volume v_max_n 
    4000   0.26854354   -7.2947273     3768.917           12 
    5000    0.1397169   -7.5257334    3700.7123          123 
    6000   0.13881171   -7.5531758    3692.7792           69 
    7000   0.14153591   -7.5684718    3689.3209          121 
    8000   0.13935225   -7.5659692    3679.9344          318 
    9000   0.13864967    -7.573027    3681.1784          443 
   10000   0.13777502   -7.5816129    3679.2813          508 
   11000   0.14245556   -7.5831601    3677.2652          574 
   12000   0.13894175   -7.5941043    3678.7967          641 
   13000   0.14223701   -7.5966009     3678.886          670 
   14000   0.13847407   -7.6029918    3679.4024          742 
   15000   0.14194924   -7.6051892    3677.0195          726 
   16000   0.13822155   -7.6109213    3673.4092          837 
   17000   0.14138194   -7.6091502    3671.2328          803 
   18000   0.14093343   -7.6072221    3671.7879          837 
   19000   0.14113775   -7.6117271    3670.2053          848 
   20000   0.13865501   -7.6183144    3669.8027          816 
   21000    0.1406087   -7.6261278    3678.4585          947 
   22000    0.1376565   -7.6243423    3672.1698          997 
   23000   0.14284753   -7.6256917    3669.2876         1027 
   24000   0.14199983   -7.6228894    3667.1771         1013 
   25000   0.13811195     -7.62113    3665.6934          997 
   26000    0.1382889   -7.6276395    3670.9754          977 
   27000   0.13843913   -7.6291441    3669.3744         1025 
   28000   0.14248367   -7.6302467    3669.7939         1016 
   29000   0.13873189   -7.6235234    3665.1931         1020 
   30000    0.1375323   -7.6258991    3665.8282         1024 
   31000   0.14029679   -7.6245358    3663.9961          989 
   32000   0.13595619   -7.6281707    3666.9001         1066 
   33000   0.13783666   -7.6283541    3667.8311         1032 
   34000   0.14024515   -7.6324469    3668.4186         1061 
   35000   0.13726365   -7.6324387    3667.9917         1027 
   36000   0.14094227   -7.6309185    3666.7871         1066 
   37000   0.14040697   -7.6291958    3666.3124         1063 
   38000   0.14145936    -7.641458    3665.3231         1093 
   39000   0.14203663    -7.636117    3666.1951         1117 
   40000   0.14140792   -7.6368822    3665.8138         1119 
   41000    0.1413345   -7.6305422    3664.7784         1109 
   42000   0.14142678   -7.6381409    3665.2583         1096 
   43000   0.14107714    -7.637255    3668.7636         1055 
   44000   0.13905705   -7.6372576     3669.478         1074 
   45000   0.13572431   -7.6310503    3666.9785         1092 
   46000   0.14025175   -7.6296169    3661.8766         1058 
   47000   0.13625708   -7.6343172    3665.0609         1117 
   48000   0.14149773   -7.6361645    3667.0601         1101 
   49000   0.14036088   -7.6392478    3665.5512         1128 
   50000   0.14199164   -7.6398547    3670.1737         1038 
   51000   0.13879366   -7.6314932    3667.6463         1111 
   52000   0.13995408   -7.6316616    3666.7934         1131 
   53000   0.14183264   -7.6325468     3663.136         1154 
   54000   0.14080172   -7.6355065    3664.6608         1117 
   55000   0.14262303   -7.6350727    3671.2362         1153 
   56000   0.14016002   -7.6393949    3668.2462         1131 
   57000   0.13951861   -7.6410067    3667.2168         1099 
   58000   0.13829078   -7.6361847    3666.1324         1124 
   59000   0.13834043   -7.6307611    3666.5695         1162 
   60000   0.13905522   -7.6347253    3666.2359         1160 
   61000   0.13797764   -7.6411298    3671.1836         1118 
   62000   0.14047293   -7.6357672     3668.199         1066 
   63000   0.14185934   -7.6372005    3665.8453         1109 
   64000   0.13867796   -7.6317685    3664.9801         1158 
   65000    0.1384299   -7.6291862    3664.4952         1069 
   66000   0.13984009   -7.6371003    3668.7295         1129 
   67000   0.14135694   -7.6363537    3667.6068         1113 
   68000   0.14062545   -7.6329565    3668.2261         1130 
   69000   0.13999913   -7.6352158    3663.2212         1164 
   70000   0.14079774   -7.6300343    3664.7743         1152 
   71000   0.13824357   -7.6311744    3666.4147         1146 
   72000   0.14252115   -7.6318841    3663.0316         1147 
   73000   0.13891109     -7.62997    3665.8265         1122 
   74000   0.14073714   -7.6365504    3666.6866         1137 
   75000   0.14003241   -7.6395822    3671.5472         1124 
   76000   0.13882208   -7.6348177    3667.9378         1106 
   77000   0.13946558     -7.63414    3668.5567         1160 
   78000    0.1417071   -7.6352442    3665.9438         1165 
   79000   0.13978147   -7.6322274     3664.067         1153 
   80000   0.13781863   -7.6366345    3663.5251         1136 
   81000   0.13979857   -7.6357132    3665.5776         1154 
   82000   0.14267589   -7.6375509    3668.3178         1119 
   83000   0.14001696   -7.6346262    3665.4935         1108 
   84000      0.13923    -7.636017    3664.6785         1138 
   85000   0.13970729   -7.6377958    3667.7938         1114 
   86000     0.138315   -7.6386851    3667.1546         1153 
   87000   0.13843802   -7.6377614    3664.3804         1148 
   88000    0.1409082   -7.6353268     3664.703         1134 
   89000   0.14037239   -7.6305198    3663.8386         1150 
   90000   0.14161269   -7.6361378    3666.6007         1147 
   91000   0.13862637   -7.6391563    3669.4287         1180 
   92000   0.13779879   -7.6381283     3667.959         1078 
   93000   0.14212296   -7.6357359    3666.3733         1156 
   94000   0.13991036   -7.6339752    3665.0038         1139 
   95000   0.14308369   -7.6313125    3665.1691         1200 
   96000   0.14097266   -7.6292378    3663.1585         1156 
   97000   0.13877263   -7.6336827    3666.5391         1156 
   98000   0.14013712   -7.6328732    3665.6103         1172 
   99000   0.13889818   -7.6319925    3667.9873         1141 
  100000   0.14127241   -7.6449121    3670.6923         1143 
  101000   0.13755733    -7.635305    3666.7606         1194 
  102000   0.13881902   -7.6340956    3664.6309         1141 
  103000   0.14383793   -7.6389132    3667.0343         1176 
  104000   0.14099544   -7.6365219    3667.8047         1206 
  105000   0.14118121   -7.6404767    3666.8485         1200 
  106000   0.13875898   -7.6420653    3664.6784         1240 
  107000   0.14084145   -7.6284993    3662.5146         1198 
  108000   0.14124331   -7.6379573     3665.926         1202 
  109000   0.14057149   -7.6420517    3667.5108         1223 
  110000   0.14044954   -7.6399014    3665.9562         1183 
  111000     0.140043   -7.6305338    3664.1219         1171 
  112000   0.14057954   -7.6414892    3664.5698         1174 
  113000   0.14043791   -7.6394694    3668.0854         1226 
  114000   0.14036629    -7.644451    3667.4067         1185 
  115000   0.13769847    -7.638582    3664.2729         1190 
  116000   0.14073623   -7.6351126    3664.1739         1157 
  117000   0.14227993   -7.6376223    3665.6072         1210 
  118000   0.13862474   -7.6427036    3665.9131         1189 
  119000   0.13985313   -7.6400341     3668.108         1184 
  120000   0.14470502    -7.643335    3665.4776         1213 
  121000    0.1386912   -7.6268707    3663.1093         1229 
  122000   0.14085228    -7.634241    3659.1911         1166 
  123000    0.1413027   -7.6375118    3663.2323         1223 
  124000   0.14098571   -7.6461667    3664.4627         1151 
  125000   0.13794281   -7.6446482    3669.6514         1136 
  126000    0.1383917    -7.639314     3665.483         1172 
  127000   0.13962866   -7.6380631    3662.8234         1209 
  128000   0.13941487   -7.6358683    3663.7364         1175 
  129000   0.13904302   -7.6392555    3668.5986         1176 
  130000   0.14000195   -7.6377831    3663.8642         1219 
  131000   0.14213395    -7.635896    3660.3545         1216 
  132000   0.13730232    -7.640453    3662.4591         1188 
  133000   0.13635852   -7.6411187    3665.1751         1168 
  134000   0.14068298   -7.6426477    3666.3229         1172 
  135000   0.13863697   -7.6352601    3665.1874         1234 
  136000   0.13898454   -7.6354936    3663.2375         1200 
  137000   0.14194881   -7.6362566    3667.7106         1208 
  138000   0.14084537   -7.6395616    3666.3115         1192 
  139000   0.14189346     -7.64206    3667.3492         1195 
  140000   0.13949302   -7.6386406    3665.1805         1199 
  141000   0.14198981   -7.6389647    3664.9321         1213 
  142000   0.14084058   -7.6444128    3668.2277         1194 
  143000   0.13992731   -7.6402533    3667.2519         1203 
  144000   0.13940786    -7.641197    3669.5693         1152 
  145000   0.14019203   -7.6394786    3666.0397         1162 
  146000     0.142111   -7.6384979    3663.3098         1206 
  147000   0.14103502   -7.6383537    3667.0683         1168 
  148000   0.13977043   -7.6399933    3665.9776         1147 
  149000   0.14135163   -7.6385384    3664.4978         1167 
  150000   0.13726089   -7.6400735    3664.3253         1179 
  151000   0.13752225   -7.6398854    3664.0396         1171 
  152000   0.14354183   -7.6402729    3666.7113         1197 
  153000   0.14077862   -7.6405049    3667.9544         1197 
  154000   0.13627034   -7.6415905    3668.6413         1196 
  155000   0.13745472   -7.6351165    3665.3755         1211 
  156000   0.13975588   -7.6332007    3662.2583         1220 
  157000   0.14012096   -7.6371823    3663.8244         1170 
  158000   0.14184106   -7.6382792    3662.6412         1189 
  159000   0.14081657   -7.6354305    3663.5261         1138 
  160000   0.13976814   -7.6441606    3666.0774         1205 
  161000   0.13875369   -7.6424298    3665.0078         1168 
  162000   0.14230331   -7.6394391    3662.6031         1201 
  163000    0.1397764   -7.6363961    3665.4214         1179 
  164000   0.14245571    -7.635246    3662.7353         1175 
  165000   0.13811911   -7.6438744    3666.3398         1226 
  166000   0.13904677   -7.6405647    3668.2969         1145 
  167000   0.13875092   -7.6416903    3667.2706         1172 
  168000   0.14111414   -7.6357302    3663.2018         1160 
  169000   0.14040268   -7.6399472    3664.7035         1166 
  170000   0.14306646   -7.6450171    3667.0321         1165 
  171000   0.14062736   -7.6397814    3668.8324         1154 
  172000   0.13878114   -7.6405457    3665.7622         1201 
  173000   0.13936664   -7.6458346     3668.628         1202 
  174000   0.13686308   -7.6351469    3664.0755         1185 
  175000   0.14063194   -7.6379537    3662.2518         1188 
  176000   0.14103767     -7.63716    3665.6333         1221 
  177000   0.14128351   -7.6421483    3667.8216         1189 
  178000   0.14267248   -7.6382074    3666.0699         1173 
  179000   0.14347598    -7.636755    3665.7282         1196 
  180000   0.14112247   -7.6390018      3664.14         1168 
  181000   0.14017371    -7.638898    3665.3393         1144 
  182000    0.1418035   -7.6436425    3668.8935         1154 
  183000   0.14057126   -7.6387648    3666.1811         1204 
  184000   0.14492625   -7.6362445    3665.6288         1221 
  185000   0.13693913   -7.6389465    3663.6874         1171 
  186000   0.14257518   -7.6392408    3666.7662         1159 
  187000   0.13865429   -7.6451119    3666.3925         1180 
  188000   0.13860098   -7.6448069    3667.3429         1177 
  189000    0.1385165   -7.6356195    3665.0869         1210 
  190000   0.13910068   -7.6329239    3664.1972         1122 
  191000   0.13858719   -7.6354127    3661.1968         1194 
  192000   0.13792801     -7.63951    3665.1793         1195 
  193000   0.13649033   -7.6399461    3667.6024         1169 
  194000   0.14019175   -7.6465948    3668.4805         1175 
  195000    0.1369715   -7.6382225    3664.5254         1176 
  196000   0.13915517   -7.6389804     3664.093         1172 
  197000     0.139344    -7.635597    3661.5895         1174 
  198000   0.13866297   -7.6373625    3666.3801         1249 
  199000   0.14018768   -7.6452822     3663.363         1174 
  200000   0.13971543   -7.6386113    3662.6437         1182 
  201000   0.13994758   -7.6388052    3664.9855         1201 
  202000   0.14061822   -7.6445963    3668.0714         1177 
  203000   0.13909092   -7.6449323    3665.9704         1204 
  204000   0.13848107   -7.6368787    3662.9182         1186 
  205000   0.14058113   -7.6342671    3663.6739         1186 
  206000   0.13848952   -7.6417819    3665.7989         1203 
  207000   0.13919141   -7.6442118    3666.0959         1249 
  208000   0.13935128    -7.645977    3664.4909         1205 
  209000   0.14104058   -7.6477737    3667.4966         1219 
  210000   0.14029689   -7.6431341    3667.4726         1222 
  211000   0.14058571   -7.6350461    3662.3356         1187 
  212000   0.13923763   -7.6380981    3663.7049         1247 
  213000   0.13868182   -7.6353464    3663.3192         1250 
  214000   0.14062119   -7.6417038    3665.6818         1251 
  215000   0.14120792   -7.6432677     3667.132         1261 
  216000   0.13936483   -7.6367593    3664.7412         1275 
  217000   0.14038067   -7.6414644    3664.6848         1319 
  218000   0.14089874    -7.643451    3664.4397         1282 
  219000     0.139575   -7.6397822    3664.6313         1293 
  220000   0.13793458   -7.6320129    3657.0966         1315 
  221000   0.14006486   -7.6407595    3662.8382         1326 
  222000   0.14048649   -7.6460007    3666.9298         1323 
  223000   0.14136932   -7.6484052    3664.3028         1313 
  224000   0.13989189   -7.6408603    3665.8912         1244 
  225000   0.14054837   -7.6407102    3662.8306         1331 
  226000   0.13860805   -7.6390284    3663.3346         1353 
  227000   0.14031017   -7.6432681    3664.0223         1349 
  228000   0.14179318   -7.6547243    3666.6418         1357 
  229000   0.13817897    -7.642739    3663.3943         1383 
  230000   0.14028724   -7.6433459    3662.0562         1375 
  231000   0.13766483   -7.6410125    3659.8767         1370 
  232000   0.13795632   -7.6369417     3660.467         1383 
  233000   0.14087362   -7.6428541    3664.1887         1368 
  234000    0.1390531   -7.6495848    3663.7066         1373 
  235000   0.14020524   -7.6487226    3664.9981         1408 
  236000   0.14170381   -7.6499087    3664.3296         1406 
  237000   0.14136994   -7.6435846    3663.2473         1386 
  238000   0.14047718   -7.6416033    3661.9929         1392 
  239000   0.14011691     -7.64023    3662.6596         1396 
  240000   0.14210985   -7.6479858    3664.2311         1408 
  241000   0.14100052   -7.6474959    3665.4775         1390 
  242000    0.1389825    -7.649146      3665.45         1447 
  243000    0.1420825   -7.6458311    3665.1692         1453 
  244000   0.13984296   -7.6481655    3662.6126         1437 
  245000   0.13968467   -7.6415221    3661.1998         1447 
  246000   0.14138898   -7.6471714    3663.8927         1425 
  247000   0.14145753   -7.6548214    3663.9546         1541 
  248000   0.14248311   -7.6462373    3662.9128         1562 
  249000   0.14112777   -7.6565043     3659.015         1517 
  250000   0.13859556   -7.6528443    3661.4922         1547 
  251000   0.13837055   -7.6571549    3662.8307         1562 
  252000     0.139841   -7.6518887    3665.2726         1560 
  253000   0.14155036    -7.646729    3662.2243         1542 
  254000   0.13931415   -7.6480553    3660.3324         1545 
  255000   0.13996587   -7.6441565    3657.6253         1546 
  256000   0.13699805    -7.649792    3662.9362         1580 
  257000   0.13753338    -7.655244    3663.8542         1560 
  258000   0.13579065   -7.6526058    3663.7373         1534 
  259000   0.13843452   -7.6499021    3661.3743         1548 
  260000   0.14116611   -7.6505748    3662.4323         1563 
  261000   0.13815223   -7.6518498    3660.8646         1581 
  262000   0.13928164   -7.6485064    3661.2102         1539 
  263000   0.14062999   -7.6533407      3663.01         1602 
  264000   0.13911751   -7.6521764    3664.8084         1559 
  265000   0.13893934   -7.6511218    3660.7624         1581 
  266000    0.1385191   -7.6517137    3661.8052         1545 
  267000   0.13968831   -7.6579886    3663.8196         1561 
  268000   0.14185768   -7.6527744    3663.9622         1587 
  269000   0.13921143   -7.6474063    3656.7768         1556 
  270000    0.1399327   -7.6504156    3660.2212         1602 
  271000   0.13805237   -7.6526219    3662.0937         1528 
  272000   0.14223722    -7.659348    3665.3223         1550 
  273000   0.14222126   -7.6483205    3662.6316         1511 
  274000   0.14047171   -7.6518814    3662.1624         1534 
  275000   0.14139478   -7.6562173     3667.084         1544 
  276000   0.14174617   -7.6529807    3662.5698         1582 
  277000    0.1369058   -7.6535089    3658.5047         1577 
  278000   0.14307453   -7.6414396    3658.3994         1578 
  279000     0.142906   -7.6528536    3662.1357         1597 
  280000   0.14242375   -7.6544691    3664.5071         1579 
  281000   0.14014995    -7.654822    3664.0142         1621 
  282000   0.14194376   -7.6459235    3659.0535         1648 
  283000   0.14100553   -7.6568459    3660.2625         1630 
  284000   0.14186469   -7.6593619    3665.3188         1619 
  285000   0.14034266   -7.6585386      3662.94         1673 
  286000   0.14178772   -7.6469406    3660.0891         1620 
  287000   0.14183223   -7.6485834    3658.8592         1648 
  288000   0.13854697   -7.6490447    3660.3234         1640 
  289000    0.1378624   -7.6585495    3662.8951         1668 
  290000   0.13765033   -7.6594474    3662.4488         1622 
  291000   0.14121053   -7.6508128    3659.9893         1639 
  292000   0.14228321   -7.6538594    3660.2631         1633 
  293000   0.14070333   -7.6511813    3659.7205         1672 
  294000   0.13899275   -7.6573128    3661.5158         1650 
  295000   0.14319408    -7.653791    3659.7392         1671 
  296000   0.14073064    -7.654734     3661.323         1629 
  297000   0.14108122   -7.6584792    3661.6663         1639 
  298000   0.13884216   -7.6566807    3663.1093         1644 
  299000   0.14242955   -7.6537639    3661.4256         1612 
  300000   0.14389927   -7.6570677    3660.1998         1663 
  301000   0.13601086   -7.6514316    3660.6487         1644 
  302000   0.14223144    -7.656189    3659.2802         1679 
  303000    0.1427957    -7.656665    3663.5424         1643 
  304000    0.1394568   -7.6617085    3660.7684         1691 
  305000   0.13883842    -7.664874    3662.9544         1697 
  306000   0.13990413   -7.6571639    3661.0944         1666 
  307000   0.13848446   -7.6495104    3656.2643         1702 
  308000   0.13867441   -7.6513392    3660.9107         1701 
  309000   0.13949419   -7.6592621    3661.7858         1717 
  310000    0.1411915   -7.6622112    3663.3415         1725 
  311000   0.14098439   -7.6567376    3661.9386         1724 
  312000   0.14123554   -7.6544777     3659.153         1742 
  313000   0.13847629   -7.6571409    3657.1581         1816 
  314000   0.14121825   -7.6679921    3655.7174         1822 
  315000   0.13791616   -7.6651642     3658.364         1898 
  316000   0.13662978   -7.6736322    3662.9312         1874 
  317000   0.13831467   -7.6759774    3656.7673         1908 
  318000   0.13941673   -7.6678089    3652.4951         1919 
  319000   0.14427896   -7.6759201    3653.8224         2031 
  320000    0.1382879   -7.6774855    3655.5234         2054 
  321000   0.13978269   -7.6847798    3658.1208         2077 
  322000   0.13716957   -7.6824808    3653.8167         2075 
  323000   0.13910661   -7.6760791    3652.3943         2083 
  324000   0.13956151   -7.6760779    3654.3333         2087 
  325000   0.13842141   -7.6829119    3656.5062         2093 
  326000   0.14061539   -7.6813379    3655.9839         2099 
  327000   0.13967536   -7.6828189    3654.6466         2135 
  328000   0.14012444   -7.6789881    3653.8625         2114 
  329000   0.13961038   -7.6824788    3657.6915         2131 
  330000     0.138975   -7.6831181    3654.7134         2069 
  331000   0.13953513   -7.6840993     3653.132         2123 
  332000    0.1381607   -7.6794409    3651.0162         2109 
  333000   0.13735894   -7.6829909    3655.4531         2128 
  334000   0.14134687   -7.6848524    3657.0186         2074 
  335000   0.13961901   -7.6856706    3655.0466         2139 
  336000   0.14018098   -7.6859636    3654.0939         2173 
  337000   0.14314536    -7.683865    3645.4094         2206 
  338000   0.13945419   -7.6864069    3651.1787         2177 
  339000   0.13868602   -7.6930175    3655.5558         2176 
  340000   0.14177406    -7.693124    3654.1884         2222 
  341000   0.14227581   -7.6883547    3652.1403         2245 
  342000   0.14240292   -7.6799991    3648.6139         2247 
  343000   0.14077276   -7.6943075    3653.8708         2236 
  344000   0.14184555    -7.696348    3652.3156         2257 
  345000   0.13979023   -7.6887102    3651.1585         2251 
  346000   0.14012052    -7.691088    3648.2948         2270 
  347000   0.13711655   -7.6859629     3645.251         2258 
  348000   0.13885219   -7.6908587     3649.672         2246 
  349000   0.14243981   -7.6930059    3653.3338         2238 
  350000   0.13868318   -7.6943442    3654.0184         2265 
  351000   0.13952433   -7.6899594    3650.2471         2257 
  352000   0.13778119   -7.6868593    3651.4374         2271 
  353000   0.14105095   -7.6896298    3650.5982         2254 
  354000   0.13976471   -7.6967728    3653.0745         2272 
  355000   0.14308354   -7.6928747    3652.7137         2279 
  356000   0.13939125     -7.69297    3650.3764         2230 
  357000   0.13643982   -7.6872956    3647.7143         2267 
  358000   0.13830707   -7.6925665    3651.5278         2242 
  359000   0.13881033    -7.695452    3651.4902         2280 
  360000   0.14076912    -7.689516    3651.1146         2247 
  361000    0.1409188   -7.6898362    3651.8478         2287 
  362000    0.1410383   -7.6978592    3652.7308         2278 
  363000   0.14323327   -7.6927053    3653.0522         2302 
  364000   0.14228226   -7.6923492    3651.7924         2288 
  365000   0.13931405   -7.6929385    3651.4129         2273 
  366000   0.13993021   -7.6891288    3646.4364         2286 
  367000   0.14145999   -7.6922447    3651.6106         2274 
  368000   0.14066087   -7.6986405    3654.0606         2276 
  369000   0.14000341   -7.6950278    3650.0136         2316 
  370000   0.13810336   -7.6890426     3649.186         2295 
  371000   0.14104107   -7.6889078    3648.5674         2271 
  372000   0.14104277   -7.6948647    3652.2593         2256 
  373000    0.1415083   -7.6947256    3653.5864         2251 
  374000   0.14097988   -7.6925448    3650.1566         2272 
  375000   0.13928259   -7.6878717    3650.1328         2256 
  376000   0.14278367   -7.6903463    3649.2298         2271 
  377000   0.14171509    -7.691135    3652.9406         2262 
  378000   0.14151228   -7.6963227    3652.1903         2308 
  379000   0.14196847   -7.6859248    3645.9547         2290 
  380000   0.14155982   -7.6952812    3653.1711         2264 
  381000   0.14158654   -7.6971659    3653.4279         2283 
  382000   0.14264537    -7.689285    3649.3939         2308 
  383000   0.13965809   -7.6864034    3645.2924         2266 
  384000   0.13776212   -7.6939462    3653.3088         2274 
  385000   0.14139134   -7.6992493    3652.2708         2278 
  386000   0.14232852   -7.6950864     3649.442         2309 
  387000   0.13886045   -7.6888004     3649.535         2268 
  388000   0.14110081   -7.6913889    3653.1333         2273 
  389000     0.139793   -7.6976936    3653.8963         2269 
  390000   0.13807288    -7.690479    3644.9145         2292 
  391000   0.13776648   -7.6890051    3649.8973         2270 
  392000   0.13891028   -7.6939022    3651.5961         2303 
  393000   0.13900117    -7.701271    3655.2293         2293 
  394000   0.13961854   -7.7001467    3651.7371         2270 
  395000   0.14187489   -7.6920306    3650.4119         2288 
  396000   0.14076921   -7.6901182    3649.9881         2255 
  397000   0.13983421   -7.6953557    3654.0006         2290 
  398000   0.14364666   -7.6974763    3651.6339         2277 
  399000   0.14071311   -7.6906674    3649.1181         2269 
  400000    0.1375526   -7.6928226    3648.1223         2281 
  401000   0.14042746   -7.6932817    3650.7678         2264 
  402000   0.14090563   -7.6987187    3652.5762         2274 
  403000   0.13897237   -7.6952326    3655.1415         2282 
  404000   0.14105094   -7.6886027     3649.896         2283 
  405000   0.14240013   -7.6911514      3648.64         2302 
  406000   0.13800305   -7.6933736    3651.3847         2252 
  407000   0.14044215   -7.6943552     3654.412         2272 
  408000   0.13956736   -7.6954373    3651.0554         2251 
  409000   0.13877435   -7.6886873    3649.3691         2266 
  410000   0.13779926   -7.6917237      3650.57         2240 
  411000   0.14109158   -7.6970325    3650.4417         2247 
  412000   0.14181122   -7.6964872    3651.0416         2256 
  413000   0.13621671   -7.6986417    3650.6378         2218 
  414000   0.13769109   -7.6928517    3652.3674         2281 
  415000   0.14223704   -7.6965339    3649.2136         2260 
  416000   0.13909039   -7.6938949    3646.7126         2233 
  417000   0.13631113   -7.6938684    3651.8744         2225 
  418000   0.14172168   -7.6970379    3649.5003         2217 
  419000   0.14305417   -7.6993042    3654.5225         2259 
  420000   0.13882488   -7.6963078    3651.0543         2263 
  421000   0.14074726   -7.6908371    3648.9164         2230 
  422000   0.13965707   -7.6939043    3648.4019         2260 
  423000   0.13797517   -7.6943255    3650.0438         2230 
  424000   0.14140477   -7.6949546    3648.8297         2218 
  425000   0.13871541   -7.7037127    3653.7437         2261 
  426000   0.13889729   -7.7009293    3651.2279         2236 
  427000   0.14108514     -7.68923    3649.1112         2277 
  428000   0.14017836    -7.690169    3646.0241         2254 
  429000   0.13984761   -7.6964124    3651.1535         2256 
  430000   0.14065013   -7.7014685    3653.2148         2263 
  431000   0.13940743   -7.6956256    3649.6111         2239 
  432000   0.14082134    -7.694365    3651.9031         2269 
  433000   0.14092867    -7.695612    3650.8138         2234 
  434000   0.14113048   -7.6995865    3651.5594         2250 
  435000   0.13775994   -7.6951055    3649.5944         2255 
  436000   0.13894889     -7.69176    3647.8242         2278 
  437000   0.14008692   -7.6934995    3651.6779         2284 
  438000   0.13747998   -7.6948756     3650.095         2253 
  439000    0.1420064   -7.6992582    3654.6829         2232 
  440000   0.14102014   -7.6961144    3650.4332         2221 
  441000   0.13964117   -7.6949656    3647.6437         2291 
  442000   0.13869741   -7.6922951    3648.4429         2253 
  443000   0.13754632   -7.6968718    3651.0236         2280 
  444000   0.13688297   -7.6994226    3651.5381         2222 
  445000   0.14088907    -7.696863    3647.0038         2237 
  446000   0.13782983   -7.6944699    3649.0125         2252 
  447000   0.13888022   -7.6918814    3651.6197         2250 
  448000   0.14087014   -7.6927518      3646.94         2268 
  449000   0.13855177   -7.6978671    3648.1295         2238 
  450000   0.13991536   -7.6979211    3650.2898         2274 
  451000   0.14223123   -7.6957351    3650.0678         2261 
  452000   0.14021122   -7.6950968    3649.0295         2270 
  453000   0.14397326   -7.6909315    3647.4349         2259 
  454000   0.13857568   -7.6933635    3649.5224         2246 
  455000    0.1379541   -7.6978232    3652.0766         2221 
  456000    0.1388169   -7.6950556    3650.9661         2277 
  457000    0.1414029   -7.6899549    3648.5987         2248 
  458000   0.13577676   -7.6934125    3650.8411         2265 
  459000   0.14036587   -7.6992649    3650.0075         2216 
  460000   0.14165807   -7.6961276     3647.502         2259 
  461000   0.13545608   -7.6950922    3655.2159         2232 
  462000   0.14111297   -7.7018759    3653.5843         2257 
  463000   0.14113265   -7.6948682    3649.1096         2270 
  464000   0.14104267   -7.6931662    3646.8405         2234 
  465000   0.14428674   -7.6986693    3648.2169         2259 
  466000   0.14054224   -7.6998638    3649.5205         2288 
  467000   0.14128505   -7.6968826    3652.8862         2249 
  468000   0.13893744   -7.6930311    3650.0206         2224 
  469000   0.13836885   -7.6935738    3648.8886         2277 
  470000   0.14107563   -7.7020638     3652.828         2298 
  471000   0.14099913   -7.6911183    3651.9301         2256 
  472000    0.1405872   -7.6932265    3648.1344         2302 
  473000    0.1401563   -7.6937615    3648.8823         2278 
  474000   0.13994713   -7.6984078    3652.2339         2249 
  475000   0.14121069   -7.6975629    3652.1584         2297 
  476000   0.14097627   -7.6957342    3650.2692         2293 
  477000   0.13838649   -7.6991196    3649.4304         2272 
  478000   0.13857844    -7.695923    3651.1669         2267 
  479000    0.1383025   -7.6945721    3649.8753         2265 
  480000   0.13931279   -7.6904295    3644.9126         2276 
  481000   0.14158003   -7.6937548    3648.6957         2289 
  482000   0.13848192    -7.697278    3651.4919         2261 
  483000   0.13793251   -7.6932353    3650.2632         2268 
  484000   0.14063502   -7.7017393    3651.9615         2270 
  485000     0.141939   -7.6944761    3648.4477         2244 
  486000   0.13805363    -7.695781    3647.4867         2276 
  487000   0.14188663   -7.6991027    3651.8692         2270 
  488000   0.14008577     -7.69947    3650.5731         2256 
  489000   0.14206299   -7.6909375     3648.149         2261 
  490000   0.14050278   -7.6932015    3645.5064         2263 
  491000   0.14041587   -7.6995455    3650.6578         2262 
  492000    0.1406478   -7.6971733    3655.0156         2239 
  493000   0.14204815   -7.6953856    3648.5249         2269 
  494000   0.14111312   -7.6943397    3647.5901         2289 
  495000   0.13939026   -7.6951937    3651.2401         2297 
  496000   0.13917755   -7.6983578    3650.6093         2294 
  497000   0.14102582   -7.6949537    3648.3062         2298 
  498000   0.14104673   -7.6919183    3650.3549         2290 
  499000   0.14096822   -7.7008867    3652.4595         2292 
  500000   0.13898595   -7.6959359    3650.7339         2286 
  501000   0.14002484   -7.6942274    3650.7282         2298 
  502000    0.1403508   -7.7019077    3651.8234         2270 
  503000   0.14140387   -7.7011969    3651.0639         2256 
  504000   0.13759073   -7.6910639    3646.9596         2267 
  505000   0.14068792   -7.6912235    3646.8981         2240 
  506000   0.13810001   -7.6982771    3649.1678         2255 
  507000   0.13947464   -7.7024164    3650.9665         2293 
  508000   0.13950905   -7.6928351    3647.1474         2295 
  509000   0.14106061    -7.688947    3648.5044         2248 
  510000   0.13953695     -7.69795    3648.6384         2252 
  511000    0.1410044   -7.7019208    3652.9496         2260 
  512000    0.1401774   -7.7004362    3649.5406         2262 
  513000   0.14269496   -7.6940352     3646.731         2275 
  514000   0.13945983   -7.6954886    3650.0222         2270 
  515000   0.14360319   -7.6942158    3650.7553         2250 
  516000   0.13800276   -7.6943202    3649.3367         2252 
  517000   0.14237005   -7.6959599    3647.4243         2238 
  518000   0.13564502   -7.6981466     3649.591         2248 
  519000   0.13700817   -7.6962562     3649.995         2294 
  520000   0.13926432   -7.6938306    3647.0154         2240 
  521000   0.13855056   -7.6903372    3649.2175         2281 
  522000   0.13826742   -7.6907501    3649.0543         2321 
  523000   0.13821328   -7.6964864    3645.6305         2250 
  524000   0.14099572   -7.7014704    3650.9149         2290 
  525000   0.14357257    -7.700818    3651.1484         2305 
  526000   0.13859462   -7.6973076    3651.5736         2278 
  527000   0.13980775   -7.6893329    3644.4126         2308 
  528000    0.1414134   -7.6940278    3647.4606         2286 
  529000    0.1401996   -7.6984384    3650.9191         2287 
  530000   0.14111317    -7.693918    3650.6017         2278 
  531000   0.13863927   -7.6937728    3647.5817         2279 
  532000   0.14050853   -7.6907168    3649.6696         2254 
  533000   0.14038298   -7.6940867    3647.7679         2267 
  534000   0.14070793   -7.6994615     3650.358         2293 
  535000   0.13965213    -7.698224    3653.8429         2281 
  536000   0.14226556   -7.6924721    3648.8295         2284 
  537000   0.13928417   -7.6939395    3647.3078         2263 
  538000   0.13903566   -7.7015394    3653.3732         2291 
  539000   0.13850492   -7.6968246    3652.5977         2299 
  540000   0.13778209   -7.6947816    3652.3475         2256 
  541000   0.14145504   -7.6955245    3647.8073         2262 
  542000   0.13961025    -7.692627    3648.6962         2245 
  543000   0.14040023   -7.7004966    3651.8221         2257 
  544000   0.13934471   -7.6989003    3651.2816         2281 
  545000   0.14025103   -7.6925974    3649.9628         2276 
  546000   0.14247405   -7.6867532    3644.0523         2264 
  547000   0.14323252   -7.6986151    3649.8941         2314 
  548000   0.13985114   -7.7030946    3651.5758         2274 
  549000   0.14123354   -7.6964013    3652.4086         2272 
  550000     0.139242   -7.6956829    3650.3265         2317 
  551000   0.14040885    -7.702271    3649.8003         2318 
  552000   0.13923206   -7.6926583    3647.9835         2267 
  553000   0.14032683   -7.6948597    3643.6975         2266 
  554000   0.13994655   -7.6960273     3649.002         2286 
  555000   0.13983082   -7.6978197    3649.4099         2289 
  556000   0.13866613   -7.7002629    3654.1299         2264 
  557000   0.14198255   -7.6974522    3648.2085         2272 
  558000   0.14595763   -7.6898466     3646.531         2281 
  559000   0.13885922   -7.6974979    3649.9884         2325 
  560000   0.14219621   -7.6978353    3654.8223         2277 
  561000   0.13670228   -7.6978939     3648.585         2292 
  562000   0.13813854   -7.6952575    3647.6899         2308 
  563000   0.14136033   -7.7020694    3654.1982         2279 
  564000   0.13955239   -7.6951282     3649.205         2289 
  565000   0.13881382   -7.7007007    3651.1897         2310 
  566000   0.14284113   -7.7002943    3650.6016         2347 
  567000    0.1409127   -7.6973479     3648.474         2325 
  568000   0.13873248   -7.6955159    3644.0554         2328 
  569000   0.14119689   -7.6987633    3647.2586         2336 
  570000   0.14025972   -7.7051294    3649.8354         2318 
  571000   0.13909804   -7.7020941    3651.2993         2324 
  572000   0.13878553   -7.6925498    3645.2057         2315 
  573000   0.13791312   -7.6936518    3648.1014         2321 
  574000   0.14093491   -7.6983216    3651.6037         2308 
  575000   0.14051315   -7.6994945    3649.7103         2326 
  576000   0.14124859   -7.6937018    3645.4921         2309 
  577000   0.13907993   -7.6999563    3647.5689         2371 
  578000   0.14092408   -7.6968332    3645.7537         2318 
  579000   0.13985444   -7.7017772    3648.6129         2313 
  580000   0.14145767    -7.705489    3650.0366         2335 
  581000   0.13840013   -7.7001028    3647.0516         2301 
  582000   0.14236954   -7.6989191    3648.1204         2324 
  583000   0.14129323   -7.7023196    3648.4699         2330 
  584000   0.13893333   -7.6986131    3648.4326         2344 
  585000   0.14145442   -7.7013327    3646.1705         2335 
  586000   0.13910639   -7.7018603    3647.0486         2354 
  587000   0.14207856   -7.7000225    3651.6697         2340 
  588000   0.14255645   -7.6992463    3648.7754         2357 
  589000   0.13991859   -7.6968121    3643.7563         2362 
  590000   0.13856289   -7.7042278    3646.7626         2391 
  591000   0.14442591   -7.7074482     3649.663         2387 
  592000   0.13811949   -7.7091254     3653.486         2416 
  593000   0.13982278   -7.7023186     3644.946         2432 
  594000   0.13986359   -7.7014892     3644.724         2436 
  595000   0.14123413   -7.7063113    3651.9898         2436 
  596000    0.1398824   -7.7005868    3649.0517         2439 
  597000   0.13832121   -7.7032422    3645.2568         2451 
  598000   0.13878895   -7.7030442    3646.9942         2417 
  599000   0.13866563   -7.7073324    3650.0513         2414 
  600000   0.13816031   -7.7082892    3648.7326         2434 
  601000   0.14066946   -7.6982092    3643.5886         2385 
  602000   0.13955053   -7.7021169    3647.2454         2424 
  603000   0.13624329   -7.7056264    3649.8762         2418 
  604000   0.14094259   -7.7167452    3652.5758         2412 
  605000   0.13601236   -7.6984059    3644.1009         2452 
  606000   0.14033295   -7.7060051    3644.6609         2401 
  607000   0.14110495   -7.7044609    3648.8104         2426 
  608000   0.13665409   -7.7051411    3649.7528         2433 
  609000    0.1394311    -7.703901    3647.1573         2435 
  610000   0.13748649    -7.707439    3644.6901         2438 
  611000    0.1395368   -7.7092353     3648.463         2390 
  612000   0.13764736    -7.706633    3648.4698         2426 
  613000    0.1412531   -7.7015502    3647.3473         2421 
  614000   0.14168591   -7.6990942    3644.7126         2446 
  615000   0.13921464   -7.7094204    3648.3495         2421 
  616000   0.14185661   -7.7116696    3650.1365         2397 
  617000   0.14191637   -7.7056859    3645.5007         2401 
  618000   0.13981079   -7.7016622    3643.3481         2432 
  619000   0.14130742   -7.7037549    3647.2784         2408 
  620000   0.13901515     -7.71045    3650.1702         2432 
  621000   0.14102535   -7.7058826    3649.3319         2382 
  622000   0.14186351    -7.699421    3641.4115         2399 
  623000   0.13915516   -7.7045872    3647.6441         2427 
  624000   0.14586086   -7.7106533    3649.6459         2415 
  625000   0.14052575   -7.7082355    3647.5669         2444 
  626000   0.13908769   -7.7105214    3648.7035         2462 
  627000   0.14029024   -7.7025729    3646.3358         2385 
  628000   0.14291686    -7.699032    3643.0757         2453 
  629000    0.1399771   -7.7099488    3645.4281         2419 
  630000   0.14207275   -7.7096259    3649.6188         2420 
  631000   0.14078621   -7.7088923    3646.5664         2423 
  632000   0.14352925   -7.7052989    3645.7089         2412 
  633000   0.14127863   -7.7034355    3646.6214         2416 
  634000   0.14402832   -7.7043746    3646.0522         2388 
  635000   0.13954007   -7.7043292    3643.7029         2408 
  636000    0.1398766   -7.7045567     3647.088         2427 
  637000   0.13937242   -7.7132173    3649.3232         2413 
  638000   0.14013584   -7.7071159    3648.1521         2404 
  639000   0.13968775   -7.7028358    3646.1344         2419 
  640000   0.13991319   -7.7033521    3648.7028         2441 
  641000   0.13835076   -7.7035391     3645.105         2403 
  642000   0.14084091   -7.7012314    3644.7628         2369 
  643000   0.13707913   -7.7081253    3645.5439         2446 
  644000   0.14027765   -7.7097497    3648.7831         2387 
  645000   0.14000184    -7.710324    3649.6014         2384 
  646000   0.14101713   -7.7041775     3646.966         2406 
  647000   0.14130013   -7.7040545    3644.2703         2414 
  648000   0.13867427   -7.7120724    3647.2426         2462 
  649000   0.14060259   -7.7071097    3649.0274         2413 
  650000   0.14043985   -7.7019758    3647.3177         2417 
  651000   0.14155354   -7.7010211    3644.7484         2412 
  652000   0.14206724   -7.7075315     3646.157         2407 
  653000    0.1378334   -7.7057519    3650.5957         2408 
  654000   0.14107032   -7.7029021    3645.3093         2390 
  655000   0.14040444   -7.7002465    3647.4365         2420 
  656000   0.14061734   -7.7047608    3647.3605         2418 
  657000    0.1398367   -7.7094038    3647.7075         2423 
  658000   0.13778579   -7.7096569    3648.4422         2424 
  659000   0.14072862   -7.7050817    3646.1157         2402 
  660000   0.14522825   -7.7008205    3646.0611         2436 
  661000   0.14006501    -7.701665     3644.723         2395 
  662000   0.14340744   -7.7125382    3651.8694         2386 
  663000   0.14046175   -7.7090849     3648.108         2433 
  664000   0.13909153   -7.7081213    3644.3646         2472 
  665000   0.13449078   -7.7039222    3644.6863         2420 
  666000   0.14024716   -7.7090446    3650.2831         2440 
  667000   0.13930296   -7.7053421    3649.4013         2464 
  668000   0.13775879   -7.6998011    3643.7157         2423 
  669000   0.13892024   -7.6938958    3642.3463         2412 
  670000   0.14036125   -7.7070179    3645.4815         2438 
  671000   0.14092023   -7.7106722    3652.3225         2409 
  672000   0.14110483   -7.7016133    3647.7806         2432 
  673000   0.13992836   -7.7001075    3645.2169         2410 
  674000   0.13834307   -7.7065275    3651.0141         2433 
  675000   0.13876121   -7.7072065    3647.4154         2390 
  676000    0.1386015   -7.7009198    3645.8796         2423 
  677000   0.14143635   -7.7005638    3644.0649         2382 
  678000   0.13662754   -7.7081148    3645.8789         2461 
  679000   0.13924196    -7.703916    3644.4844         2434 
  680000   0.13821963   -7.7048132    3648.9339         2418 
  681000   0.14073745   -7.7103715     3646.454         2398 
  682000   0.13877129   -7.7052361    3646.2641         2394 
  683000   0.14011501   -7.7022075    3643.6874         2424 
  684000   0.13807476   -7.7081199    3646.3858         2443 
  685000   0.13922806   -7.7104655    3650.9257         2434 
  686000   0.13923394   -7.7072391    3647.0373         2426 
  687000    0.1398633   -7.7069374    3649.4292         2427 
  688000   0.14037132   -7.7053127    3650.0457         2447 
  689000    0.1387356   -7.7089803    3648.5863         2433 
  690000   0.13650337    -7.707727    3647.6581         2425 
  691000   0.13884281   -7.7119311    3648.3131         2429 
  692000   0.13878277   -7.7090322    3648.0259         2442 
  693000   0.13921409   -7.7076908    3645.0445         2451 
  694000   0.14070438   -7.7062438    3643.8252         2450 
  695000    0.1422095   -7.7044434    3648.7278         2429 
  696000   0.14410873   -7.7025771    3646.1059         2443 
  697000   0.14147614   -7.7038625    3645.2022         2467 
  698000   0.13720447   -7.7096751    3647.2334         2441 
  699000   0.13923226   -7.7168896    3649.4335         2417 
  700000   0.13941445   -7.7058343    3645.6823         2459 
  701000   0.14226687   -7.7018126    3643.3276         2429 
  702000   0.13972716   -7.7073185    3648.7375         2408 
  703000   0.14213152   -7.7105732     3646.969         2442 
  704000   0.13882477   -7.7017615    3643.8527         2427 
  705000   0.14102563    -7.704043     3643.935         2439 
  706000   0.13978934   -7.7116948    3645.7716         2421 
  707000   0.14154686   -7.7119589    3648.7653         2428 
  708000   0.14019287   -7.7088748    3647.3752         2390 
  709000   0.14046745   -7.7024943    3643.6652         2433 
  710000   0.13917773   -7.7097661    3645.4702         2413 
  711000   0.13987788   -7.7120769    3651.4346         2438 
  712000   0.14108085   -7.7108323    3645.0292         2440 
  713000   0.13656391   -7.7015164      3644.85         2409 
  714000   0.14205885   -7.7070983    3649.0488         2426 
  715000   0.13624099   -7.7054619    3646.7793         2424 
  716000   0.13931178   -7.7044123     3643.528         2446 
  717000   0.13989705   -7.7058711    3646.0918         2442 
  718000   0.14231854   -7.7116111    3650.5804         2437 
  719000   0.13794475   -7.7080998    3647.7539         2430 
  720000   0.13745659   -7.7032049    3643.7679         2453 
  721000   0.13880573    -7.708815    3645.0969         2455 
  722000   0.13740194   -7.7094901     3648.208         2474 
  723000   0.14161103   -7.7161602    3652.0323         2439 
  724000   0.14025456   -7.7036868    3645.4698         2414 
  725000   0.13808864    -7.707125    3643.9998         2441 
  726000   0.14324979   -7.7055921     3646.384         2444 
  727000   0.13838275   -7.7089009    3648.1849         2432 
  728000   0.13787661    -7.706609    3647.5933         2461 
  729000   0.14094352   -7.6982231    3642.6846         2449 
  730000   0.13937695   -7.7074474    3647.9152         2447 
  731000   0.13737252   -7.7131523    3648.8515         2431 
  732000   0.14396246   -7.7075449    3644.8987         2451 
  733000   0.13675447   -7.7039014    3642.8566         2375 
  734000   0.13960566   -7.7089532    3646.9337         2456 
  735000   0.14064612   -7.7104953     3646.246         2424 
  736000   0.13998626   -7.7097723    3643.1056         2447 
  737000   0.14223366   -7.7060781    3643.6643         2453 
  738000   0.14021849   -7.7061971    3645.1375         2427 
  739000   0.14170015    -7.709201    3649.8569         2441 
  740000   0.14084169   -7.7079059    3649.0069         2448 
  741000   0.13760402   -7.7102903    3646.5706         2409 
  742000    0.1379449   -7.7072314    3644.1678         2447 
  743000   0.13967477   -7.6985569    3641.9183         2420 
  744000   0.13629133   -7.7104841     3646.638         2459 
  745000   0.13611416   -7.7104945    3645.6558         2465 
  746000   0.13945257   -7.7063292    3648.0002         2420 
  747000   0.14096859   -7.7051417    3650.6389         2427 
  748000   0.13891171   -7.7043601    3643.1811         2404 
  749000   0.14075659    -7.704678    3641.9066         2438 
  750000   0.13834509    -7.709065    3645.9187         2425 
  751000   0.14361897    -7.713094    3650.1909         2426 
  752000    0.1401873   -7.7089858    3645.3148         2493 
  753000   0.14239739   -7.7031484    3641.9538         2429 
  754000   0.14150612    -7.706191    3646.9125         2463 
  755000   0.13902973   -7.7138612     3651.767         2453 
  756000   0.13806005   -7.7081036    3647.0977         2462 
  757000   0.14027199   -7.7146769    3650.4167         2438 
  758000   0.13953341   -7.7079316    3645.9933         2423 
  759000   0.13872523   -7.7045548     3644.453         2434 
  760000   0.14307896   -7.7029902    3643.2623         2425 
  761000   0.13814666   -7.7087975    3646.7275         2426 
  762000   0.14194788   -7.7044309    3648.3207         2447 
  763000   0.13835643   -7.7007315    3644.5183         2400 
  764000   0.14162682   -7.7071082    3647.1205         2448 
  765000   0.14131153   -7.7114654    3650.3801         2423 
  766000   0.13943795   -7.7055804    3647.5522         2453 
  767000   0.13835477   -7.7003424    3645.1204         2432 
  768000   0.13984077   -7.7050188    3643.3271         2451 
  769000   0.14195145   -7.7152736    3650.4533         2424 
  770000   0.13910008   -7.7091999     3647.476         2420 
  771000   0.14081033   -7.7038593    3643.7918         2440 
  772000   0.13839522   -7.7048589     3644.272         2451 
  773000   0.13972031   -7.7096466    3647.3613         2436 
  774000   0.13816565     -7.71156    3648.9177         2438 
  775000   0.14124934   -7.7048742    3644.4551         2451 
  776000   0.14135489   -7.7061145    3647.1311         2437 
  777000   0.14069482   -7.7124731     3646.436         2433 
  778000    0.1375172   -7.7083952    3647.2285         2449 
  779000    0.1378833   -7.7044023    3642.5421         2484 
  780000   0.13960105   -7.7083283    3645.7364         2431 
  781000   0.14148066   -7.7102809    3647.1717         2440 
  782000   0.13936861   -7.7128724    3648.0991         2457 
  783000    0.1397588   -7.7070747    3645.3144         2445 
  784000   0.13877006   -7.7056172    3643.7691         2444 
  785000    0.1409585   -7.7100745     3647.125         2472 
  786000   0.13612331   -7.7124292    3648.2795         2421 
  787000   0.13987648   -7.7082224    3645.3055         2449 
  788000   0.13954995   -7.7152698    3650.0494         2433 
  789000   0.14266415   -7.7085529    3647.0322         2445 
  790000   0.13865129   -7.7078573    3648.0628         2439 
  791000   0.14232335   -7.6992308     3644.233         2408 
  792000   0.13962893    -7.709987    3645.5692         2452 
  793000   0.14261198    -7.710162    3648.6816         2434 
  794000   0.13771149   -7.7128681      3648.65         2421 
  795000   0.14000501   -7.7119804    3649.6218         2449 
  796000   0.13646556   -7.7051874    3646.7555         2428 
  797000   0.14419769   -7.7014813    3642.8761         2408 
  798000   0.13626076   -7.7083745    3648.3632         2400 
  799000   0.14168243   -7.7138255    3648.5552         2414 
  800000   0.13796871   -7.7090306     3647.861         2431 
  801000   0.13919829   -7.7052985    3644.1261         2478 
  802000   0.14102342   -7.7065275    3645.5845         2423 
  803000   0.13868896   -7.7010361    3643.7603         2426 
  804000   0.14207332   -7.7120672    3646.3791         2403 
  805000   0.13841146   -7.7034604    3644.6238         2464 
  806000   0.14293689   -7.7001504    3641.2962         2419 
  807000   0.14088172   -7.7077096    3647.1294         2453 
  808000   0.13954896   -7.7087288    3648.5529         2502 
  809000   0.14164904   -7.7142087    3651.1948         2442 
  810000   0.14144487   -7.7071917    3643.8015         2480 
  811000    0.1416069   -7.7044181    3646.1339         2493 
  812000   0.14279813   -7.7063426    3645.2244         2492 
  813000    0.1380856    -7.709958    3648.0877         2466 
  814000   0.13825658   -7.7095611    3649.4904         2488 
  815000   0.13706823   -7.7040595    3644.4536         2449 
  816000   0.13971103   -7.7030552    3645.0572         2447 
  817000   0.13605074   -7.7088186     3647.451         2420 
  818000   0.13579578   -7.7121423    3647.8394         2443 
  819000   0.13746379   -7.7026131    3646.4388         2452 
  820000   0.14250122   -7.7056122    3646.3236         2468 
  821000   0.14006787   -7.7028644    3644.8922         2479 
  822000   0.13906794   -7.7079577    3646.9305         2483 
  823000   0.13980491   -7.7031329    3644.6075         2494 
  824000   0.13933075   -7.7086304    3645.5545         2450 
  825000   0.14055869     -7.70889    3648.4865         2421 
  826000   0.14050419   -7.7073802    3647.5852         2468 
  827000   0.13921165    -7.701329    3644.8271         2480 
  828000   0.13826027   -7.7090669    3648.2215         2459 
  829000   0.14072378   -7.7140331     3650.315         2475 
  830000   0.13763803   -7.7105333    3646.4204         2475 
  831000   0.14265007   -7.7018885    3645.2675         2484 
  832000   0.14204791   -7.7037311    3644.0845         2495 
  833000   0.13712127   -7.7081754    3647.9036         2489 
  834000   0.13856678   -7.7114682    3646.7578         2483 
  835000   0.14091281   -7.7029465    3642.7097         2487 
  836000   0.13836179   -7.7074662    3647.0962         2474 
  837000   0.13927505   -7.7131422    3648.3639         2478 
  838000   0.14052835   -7.7088768    3645.6249         2494 
  839000   0.13886059   -7.7073793    3646.6415         2482 
  840000   0.14102834   -7.7111701    3648.8764         2484 
  841000   0.13772439   -7.7049759    3646.0111         2468 
  842000   0.13667434   -7.7103743    3644.9022         2497 
  843000   0.13719889   -7.7112777    3643.9485         2483 
  844000   0.13943351   -7.7158283    3648.8777         2481 
  845000   0.14234539   -7.7143284    3646.6822         2500 
  846000   0.14200019   -7.7085851    3645.6534         2509 
  847000   0.13887852   -7.7052656    3643.3548         2538 
  848000   0.13738544   -7.7109278    3647.3554         2480 
  849000   0.14248845   -7.7112471    3647.1695         2507 
  850000   0.13982792   -7.7053665    3641.5498         2483 
  851000    0.1379384   -7.7119197    3647.2329         2475 
  852000   0.13954988   -7.7079668    3646.8133         2515 
  853000   0.13915077   -7.7044307    3642.4976         2513 
  854000   0.14128776   -7.7101008    3646.0768         2514 
  855000    0.1402042   -7.7179908    3648.2713         2521 
  856000   0.13949063   -7.7088956    3645.1821         2517 
  857000   0.14014239   -7.7109336    3642.8467         2514 
  858000   0.13808523   -7.7127808     3645.015         2492 
  859000   0.13910769   -7.7121664    3649.2751         2473 
  860000   0.13935067   -7.7158476    3651.2572         2511 
  861000   0.14262592   -7.7134145    3643.9081         2537 
  862000   0.14049362    -7.704846    3645.5701         2532 
  863000   0.14140734   -7.7043971    3641.2049         2513 
  864000   0.13890324   -7.7096019      3644.86         2514 
  865000   0.14157668   -7.7099425    3646.5777         2525 
  866000   0.14366542   -7.7085917    3644.9952         2491 
  867000   0.13768923   -7.7067222    3645.2744         2502 
  868000   0.14491936   -7.7064686      3643.92         2516 
  869000   0.13831051   -7.7053978    3642.1643         2508 
  870000    0.1417624   -7.7084782    3645.9398         2494 
  871000   0.13926429   -7.7128803    3648.3558         2492 
  872000   0.13982395   -7.7099221    3644.8792         2524 
  873000   0.13865803   -7.7090075    3646.5689         2526 
  874000   0.13760409   -7.7041823    3642.4593         2506 
  875000   0.13921649   -7.7042165    3642.5782         2477 
  876000   0.14065071   -7.7109591    3647.9559         2516 
  877000    0.1421569   -7.7163028     3647.568         2509 
  878000   0.14079432   -7.7107259    3645.9305         2527 
  879000    0.1356708   -7.7098511    3647.5216         2526 
  880000   0.14070514   -7.7118498    3649.5962         2550 
  881000   0.14104462   -7.7020829    3643.9437         2499 
  882000    0.1407821    -7.709737    3646.0877         2527 
  883000   0.13860637   -7.7091271    3647.7558         2520 
  884000   0.14119619   -7.7123195    3647.4973         2521 
  885000   0.14074954     -7.70366    3641.6341         2499 
  886000   0.14101863   -7.7116483    3645.1531         2504 
  887000   0.14204015   -7.7124678    3648.8899         2516 
  888000   0.14209858   -7.7085231    3646.0861         2484 
  889000   0.14025706   -7.7086714     3644.719         2478 
  890000   0.13877277   -7.7021662    3642.9276         2525 
  891000   0.13828881   -7.7103932    3646.2485         2501 
  892000   0.13842148   -7.7093735    3643.9877         2480 
  893000   0.13966619   -7.7094243    3644.5518         2477 
  894000   0.13972566   -7.7079533    3646.6437         2499 
  895000   0.14193557   -7.7119362    3647.1012         2523 
  896000   0.14166607   -7.7172067    3647.8755         2520 
  897000   0.13842466   -7.7102126    3645.3093         2520 
  898000   0.13981218   -7.7071919    3645.9206         2511 
  899000   0.13871762   -7.7116617    3646.6565         2523 
  900000   0.14244977     -7.71118    3646.1274         2467 
  901000    0.1409158   -7.7077151    3646.4635         2510 
  902000   0.14014882   -7.7044258    3642.3744         2492 
  903000   0.13713524    -7.710159    3645.7303         2503 
  904000   0.13900819   -7.7126187     3644.609         2540 
  905000   0.13626536   -7.7079762    3644.8772         2482 
  906000   0.14025468   -7.7098868    3646.3076         2541 
  907000   0.13831616   -7.7086959    3648.6624         2521 
  908000   0.14002256   -7.7060777    3643.6327         2498 
  909000   0.14388664   -7.7095247    3646.4125         2508 
  910000   0.14026997   -7.7154567    3649.5748         2481 
  911000   0.13874379   -7.7144856    3643.5363         2499 
  912000   0.14272003   -7.7083075    3644.0164         2516 
  913000    0.1385065   -7.7141104    3645.4654         2509 
  914000   0.13769491   -7.7025632    3642.8904         2488 
  915000   0.14192528   -7.7100241    3645.2397         2505 
  916000    0.1386575   -7.7101991    3647.4852         2525 
  917000    0.1408937   -7.7082922    3645.1383         2524 
  918000   0.13971238   -7.7076141     3644.452         2525 
  919000    0.1403134   -7.7093624    3642.7186         2506 
  920000   0.14151715   -7.7102258    3646.8825         2498 
  921000   0.13943964   -7.7168935     3645.585         2469 
  922000   0.14081273   -7.7092927    3641.6025         2524 
  923000   0.13786719   -7.7115788    3643.9319         2513 
  924000   0.14054414   -7.7141583    3648.8956         2510 
  925000   0.13831243   -7.7087409    3646.6185         2489 
  926000   0.13582623   -7.7020737     3643.587         2510 
  927000   0.14195299   -7.7082488    3646.2518         2502 
  928000   0.14083801   -7.7185305    3650.0999         2529 
  929000   0.14204466   -7.7123555    3645.8552         2506 
  930000   0.13868346   -7.7033368    3643.6151         2481 
  931000   0.14007964   -7.7071581    3645.9049         2500 
  932000   0.14315441    -7.711264    3647.3853         2494 
  933000   0.13765955   -7.7116138    3648.3072         2471 
  934000   0.14160047   -7.7074763    3644.3353         2515 
  935000   0.13913334    -7.707641    3643.7665         2524 
  936000   0.14066021   -7.7138362    3649.5249         2515 
  937000   0.13893939   -7.7116045    3645.8997         2477 
  938000   0.14433198   -7.7148355    3647.5929         2459 
  939000   0.14286303   -7.7077529    3647.5341         2495 
  940000   0.13984481   -7.7062479    3643.7799         2553 
  941000   0.13908015   -7.7101281    3644.4494         2488 
  942000   0.14337423   -7.7132009    3651.6866         2505 
  943000   0.14107691   -7.7058547    3643.0426         2515 
  944000    0.1376114   -7.7079157     3645.879         2492 
  945000   0.13892463   -7.7148296     3648.913         2521 
  946000   0.14042562   -7.7080694    3643.7969         2522 
  947000   0.14165166   -7.7035549    3642.8846         2492 
  948000    0.1376252   -7.7089429    3648.2607         2518 
  949000   0.14339516   -7.7146428    3647.7885         2551 
  950000   0.14514787   -7.7080475    3646.7154         2530 
  951000   0.13778817   -7.7084486    3642.1675         2491 
  952000   0.13948772   -7.7116849    3644.9045         2534 
  953000   0.13699401   -7.7162328     3647.525         2547 
  954000   0.14236276   -7.7104747    3644.5044         2517 
  955000   0.14148442   -7.7073669    3644.1427         2503 
  956000   0.14220975   -7.7083231    3646.8635         2507 
  957000   0.13978835   -7.7170549     3649.725         2532 
  958000   0.14078534   -7.7091763    3645.6574         2529 
  959000   0.13728672   -7.7110171    3644.9134         2466 
  960000   0.13974596   -7.7036017    3643.6989         2501 
  961000   0.13945306   -7.7083885    3646.8754         2472 
  962000   0.14231286   -7.7051817    3646.0085         2520 
  963000   0.13772338   -7.7059652     3646.034         2489 
  964000   0.14009939   -7.7067114    3647.5033         2489 
  965000   0.13979209   -7.7088131    3647.4401         2493 
  966000   0.13962828   -7.7071357    3645.8164         2526 
  967000   0.14122539   -7.7100248    3645.4121         2517 
  968000   0.14143442   -7.7105253    3647.3834         2508 
  969000   0.13724156   -7.7157265    3648.3985         2481 
  970000    0.1409712   -7.7066578    3646.1092         2497 
  971000   0.13872479   -7.7059661     3643.532         2482 
  972000   0.14281959    -7.711072    3645.7193         2528 
  973000   0.14499882   -7.7135536    3648.1447         2536 
  974000   0.13912149   -7.7109653    3646.1182         2512 
  975000   0.13822585   -7.7018821    3645.5674         2492 
  976000   0.13953232   -7.7093385    3644.7239         2552 
  977000   0.14587291   -7.7142531    3647.4257         2524 
  978000   0.14153236    -7.713202    3647.6219         2531 
  979000   0.14063414   -7.7118165    3642.0814         2515 
  980000   0.14072582   -7.7055571    3644.9482         2514 
  981000   0.14094678   -7.7101724    3643.7954         2504 
  982000   0.14050652   -7.7079055    3644.4126         2553 
  983000   0.13764376   -7.7146076    3649.2945         2512 
  984000   0.13838869   -7.7148462    3647.1482         2553 
  985000   0.13928262   -7.7094419    3644.3685         2570 
  986000   0.13693258     -7.70532    3638.3566         2578 
  987000   0.13879047   -7.7156017    3645.8567         2516 
  988000   0.14272525   -7.7116124    3647.3422         2559 
  989000    0.1403605   -7.7088687    3643.2777         2568 
  990000   0.14024467   -7.7109272    3644.7128         2562 
  991000   0.14234501   -7.7145461    3648.0624         2519 
  992000   0.14088786   -7.7093267     3645.092         2496 
  993000    0.1383918   -7.7110185    3640.7039         2570 
  994000   0.14069758   -7.7115514    3645.3731         2542 
  995000   0.13902735   -7.7115222    3642.6004         2534 
  996000   0.14398813   -7.7119962    3644.7738         2530 
  997000    0.1380666   -7.7120992    3650.2931         2557 
  998000   0.13958698   -7.7148256    3646.6712         2566 
  999000   0.14277926   -7.7097995    3646.9334         2533 
 1000000   0.13556339   -7.7109808     3644.304         2531 
 1001000   0.14340502   -7.7114589    3642.6359         2576 
 1002000   0.13985383   -7.7112789    3644.1042         2555 
 1003000    0.1410838    -7.711619    3642.5538         2523 
 1004000   0.13988474   -7.7153216    3645.1522         2536 
Loop time of 2124.2 on 48 procs for 1000000 steps with 4000 atoms

Performance: 81348.350 tau/day, 470.766 timesteps/s
99.4% CPU use with 48 MPI tasks x no OpenMP threads

MPI task timing breakdown:
Section |  min time  |  avg time  |  max time  |%varavg| %total
---------------------------------------------------------------
Pair    | 122.98     | 148.57     | 163.11     |  61.7 |  6.99
Neigh   | 4.2088     | 4.6605     | 4.9543     |   6.1 |  0.22
Comm    | 93.681     | 107.34     | 135.45     |  77.1 |  5.05
Output  | 3.5756     | 3.5766     | 3.5951     |   0.1 |  0.17
Modify  | 1809.5     | 1826.2     | 1841.3     |  14.5 | 85.97
Other   |            | 33.8       |            |       |  1.59

Nlocal:        83.3333 ave          90 max          76 min
Histogram: 2 1 5 5 7 12 5 6 1 4
Nghost:        1749.08 ave        1770 max        1730 min
Histogram: 1 1 6 5 12 12 5 4 1 1
Neighs:        10612.1 ave       11692 max        9641 min
Histogram: 1 4 6 9 6 9 5 3 2 3
FullNghs:      21223.7 ave       23084 max       19264 min
Histogram: 2 3 2 7 11 7 6 5 3 2

Total # of neighbors = 1018739
Ave neighs/atom = 254.68475
Neighbor list builds = 18596
Dangerous builds = 0

#clear
#
#next RN
#
#jump SELF
Total wall time: 0:35:25
