
units lj                  # Use reduced LJ style units
atom_style atomic         # Uncharged point particles
atom_modify map hash      # Needed for indexing of clusters etc
                          # Used to be able to find where atoms are in relation to each other.

# Define a lattice with which to populate the simulation cell. With units
# set to 'lj' the second argument to the lattice command is the reduced
# density rho* and the spacings are multiples of that required to acheive
# that density. Also define a simulation cell called 'box' in lattice units
# and fill it with atoms. Here we're creating a box which is ten lattice
# constants in each direction.
lattice fcc 1.0 spacing 1 1 1                 # All equal sizes - gives the right reduced density.
Lattice spacing in x,y,z = 1.5874011 1.5874011 1.5874011

region box block 0 10 0 10 0 10 units lattice # Defines a region, "box", in lattice units
create_box 1 box                              # Creates a simulation box as specified above,
Created orthogonal box = (0.0000000 0.0000000 0.0000000) to (15.874011 15.874011 15.874011)
  3 by 4 by 4 MPI processor grid
                                              # with one type of atom
create_atoms 1 box                            # Creates particles on lattice points
Created 4000 atoms
  using lattice units in orthogonal box = (0.0000000 0.0000000 0.0000000) to (15.874011 15.874011 15.874011)
  create_atoms CPU = 0.007 seconds


# Set the mass of the first (and only) atom type.
mass 1 1.0

# Lennard-Jones interactions between particles, 3.5 sigma cut-off. Apply
# long range tail corrections to energy and pressure and set all coefficients
# to unity since we work in reduced units here. Note that this doesn't shift
# the potential such that it goes to zero at the cutoff. That would require
# pair_modify('shift', 'yes').
pair_style lj/cut  3.5      # non-GPU version
pair_modify tail  yes
pair_coeff 1  1  1.0  1.0   # Intearaction between 1 and 1 set with epsilon = 1 and sigma = 1

write_data data.*
System init for write_data ...
Neighbor list info ...
  update every 1 steps, delay 10 steps, check yes
  max neighbors/atom: 2000, page size: 100000
  master list distance cutoff = 3.8
  ghost atom cutoff = 3.8
  binsize = 1.9, bins = 9 9 9
  1 neighbor lists, perpetual/occasional/extra = 1 0 0
  (1) pair lj/cut, perpetual
      attributes: half, newton on
      pair build: half/bin/atomonly/newton
      stencil: half/bin/3d
      bin: standard

#############################
#   M E L T   S Y S T E M   #
#############################

velocity all create 2.4 8172548 mom yes dist gaussian # Assign velocities
                                                    # Temperature 2.4, random number seed, zero linear momentum
						                                                        # Gaussian distribution

timestep 0.002   # simulation timestep
thermo 1000       # output thermodynamic data every 1000 steps

# Define a fix  in this case with index 1 applied to all
# particles in the simulation. This fix is for simulations
# in the anisotropic NPT ensemble. Note that we use the MTK
# correction.
fix 1 all npt temp 2.4 2.4 0.1 iso 5.68 5.68 0.5 mtk yes tchain 5 pchain 5 # Use NPT ensemble
                                                                         # Set temperature and pressure and damping
                                                                         # Numbers of thermostats in chain and in barostat
run 1000         # run for 10000 steps
Per MPI rank memory allocation (min/avg/max) = 3.642 | 3.644 | 3.648 Mbytes
Step Temp E_pair E_mol TotEng Press Volume 
       0          2.4   -8.3859253            0   -4.7868253   -2.2405722         4000 
    1000    2.3771194   -4.4871205            0  -0.92233289    5.5875552    5161.7788 
Loop time of 0.221446 on 48 procs for 1000 steps with 4000 atoms

Performance: 780325.173 tau/day, 4515.771 timesteps/s
99.2% CPU use with 48 MPI tasks x no OpenMP threads

MPI task timing breakdown:
Section |  min time  |  avg time  |  max time  |%varavg| %total
---------------------------------------------------------------
Pair    | 0.094821   | 0.10063    | 0.10928    |   0.9 | 45.44
Neigh   | 0.018043   | 0.018818   | 0.019886   |   0.3 |  8.50
Comm    | 0.066041   | 0.076194   | 0.083909   |   1.6 | 34.41
Output  | 2.4523e-05 | 2.5523e-05 | 3.4939e-05 |   0.0 |  0.01
Modify  | 0.021444   | 0.024239   | 0.028753   |   1.6 | 10.95
Other   |            | 0.001538   |            |       |  0.69

Nlocal:        83.3333 ave          94 max          74 min
Histogram: 1 5 2 8 9 8 6 7 1 1
Nghost:        1391.79 ave        1422 max        1368 min
Histogram: 5 4 4 8 8 8 4 3 2 2
Neighs:        7382.04 ave        8524 max        6261 min
Histogram: 1 1 7 9 7 8 6 6 2 1

Total # of neighbors = 354338
Ave neighs/atom = 88.584500
Neighbor list builds = 87
Dangerous builds = 20

# Equilibrate just above the melting temperature to avoid step fn in T

fix 1 all npt temp 1.25 1.25 0.1 iso 5.68 5.68 0.5 mtk yes tchain 5 pchain 5
run 1000
Per MPI rank memory allocation (min/avg/max) = 3.642 | 3.644 | 3.648 Mbytes
Step Temp E_pair E_mol TotEng Press Volume 
    1000    2.3771194   -4.4871205            0  -0.92233289    5.5875552    5161.7788 
    2000    1.2335674   -5.8576808            0   -4.0077922     5.754077    4330.1845 
Loop time of 0.213591 on 48 procs for 1000 steps with 4000 atoms

Performance: 809022.843 tau/day, 4681.845 timesteps/s
99.6% CPU use with 48 MPI tasks x no OpenMP threads

MPI task timing breakdown:
Section |  min time  |  avg time  |  max time  |%varavg| %total
---------------------------------------------------------------
Pair    | 0.09318    | 0.10017    | 0.10993    |   0.9 | 46.90
Neigh   | 0.015578   | 0.016096   | 0.016923   |   0.2 |  7.54
Comm    | 0.062548   | 0.071821   | 0.079525   |   1.4 | 33.63
Output  | 2.4626e-05 | 2.5707e-05 | 3.3335e-05 |   0.0 |  0.01
Modify  | 0.021011   | 0.023504   | 0.026837   |   1.1 | 11.00
Other   |            | 0.001973   |            |       |  0.92

Nlocal:        83.3333 ave          94 max          77 min
Histogram: 7 6 8 5 6 10 1 3 1 1
Nghost:        1557.46 ave        1569 max        1545 min
Histogram: 4 2 5 8 0 7 9 7 2 4
Neighs:        8796.44 ave       10016 max        7978 min
Histogram: 5 6 6 6 8 6 7 3 0 1

Total # of neighbors = 422229
Ave neighs/atom = 105.55725
Neighbor list builds = 74
Dangerous builds = 3


# Small amount of linear quench

fix 1 all npt temp 1.25 ${temp} 0.1 iso 5.68 5.68 0.5 mtk yes tchain 5 pchain 5
fix 1 all npt temp 1.25 2 0.1 iso 5.68 5.68 0.5 mtk yes tchain 5 pchain 5
run 2000
Per MPI rank memory allocation (min/avg/max) = 3.643 | 3.645 | 3.648 Mbytes
Step Temp E_pair E_mol TotEng Press Volume 
    2000    1.2335674   -5.8576808            0   -4.0077922     5.754077    4330.1845 
    3000     1.594639   -5.3580635            0   -2.9667029    5.6600239    4591.1492 
    4000    1.9446877   -4.8093336            0   -1.8930313    5.7918092    4897.7467 
Loop time of 0.438097 on 48 procs for 2000 steps with 4000 atoms

Performance: 788866.409 tau/day, 4565.199 timesteps/s
99.7% CPU use with 48 MPI tasks x no OpenMP threads

MPI task timing breakdown:
Section |  min time  |  avg time  |  max time  |%varavg| %total
---------------------------------------------------------------
Pair    | 0.1911     | 0.20116    | 0.23192    |   1.9 | 45.92
Neigh   | 0.031292   | 0.032785   | 0.038179   |   0.8 |  7.48
Comm    | 0.11514    | 0.15291    | 0.16891    |   2.8 | 34.90
Output  | 4.5987e-05 | 4.7686e-05 | 6.0813e-05 |   0.0 |  0.01
Modify  | 0.036777   | 0.047233   | 0.061684   |   3.1 | 10.78
Other   |            | 0.003959   |            |       |  0.90

Nlocal:        83.3333 ave          89 max          76 min
Histogram: 3 1 1 6 8 5 11 5 6 2
Nghost:        1434.94 ave        1451 max        1411 min
Histogram: 2 1 2 4 7 6 5 10 8 3
Neighs:        7764.25 ave        8377 max        6824 min
Histogram: 2 0 1 5 7 8 8 7 7 3

Total # of neighbors = 372684
Ave neighs/atom = 93.171000
Neighbor list builds = 148
Dangerous builds = 0

#############################
# F R E E Z E  S Y S T E M  #
#############################

# Define solid atoms. This closely follows ten Wolde  Ruiz-Montero and Frenkel  Faraday Discuss  1996  104  93-110
# Compute components of the per-atom q6 vector
compute q6 all orientorder/atom degrees 1 6 components 6 nnn NULL cutoff 1.3 # compute the Q6 parameter.
                                                                             # Use all neighbours within 1.3 unit cell.

# get number of connections
compute coord_number all coord/atom orientorder q6 0.5

# An atom is solid if it has 8 or more connections (of a possible 14)
variable is_solid atom c_coord_number>=8
group solid dynamic all var is_solid    # Must be dynamic to update
dynamic group solid defined

# do clustering
compute cluster solid cluster/atom 1.3 # Create a cluster where all atoms within are solid and max 1.3 units from another member

# define chunks one chunk per cluster
compute clus_chunks solid chunk/atom c_cluster nchunk every compress yes  # Says which atoms are in which chunk

# count the size of each chunk
compute size_chunks solid property/chunk clus_chunks count


# Find the maximum entry in the vector of chunk sizes
variable max_n equal max(c_size_chunks)


# Thermo style which includes this variable
thermo_style custom step temp pe vol v_max_n

thermo ${N}  # Print the thermo information every 100 steps
thermo 1000  

# Reset the npt fix at a lower temperature (below freezing)
fix 1  all npt temp  ${temp} ${temp}  0.1  iso  5.68  5.68  0.5  mtk yes tchain  5  pchain  5
fix 1  all npt temp  2 ${temp}  0.1  iso  5.68  5.68  0.5  mtk yes tchain  5  pchain  5
fix 1  all npt temp  2 2  0.1  iso  5.68  5.68  0.5  mtk yes tchain  5  pchain  5

dump dmp2 all dcd ${N} traj_${rand}.dcd
dump dmp2 all dcd 1000 traj_${rand}.dcd
dump dmp2 all dcd 1000 traj_462431.dcd


# fix rnuntil all halt ${N} v_max_n >= 3980 error soft message no   # Stop when solidified


run 1000000 # 5000000  # Run for this many steps
Neighbor list info ...
  update every 1 steps, delay 10 steps, check yes
  max neighbors/atom: 2000, page size: 100000
  master list distance cutoff = 3.8
  ghost atom cutoff = 3.8
  binsize = 1.9, bins = 9 9 9
  4 neighbor lists, perpetual/occasional/extra = 1 3 0
  (1) pair lj/cut, perpetual
      attributes: half, newton on
      pair build: half/bin/atomonly/newton
      stencil: half/bin/3d
      bin: standard
  (2) compute orientorder/atom, occasional
      attributes: full, newton on
      pair build: full/bin/atomonly
      stencil: full/bin/3d
      bin: standard
  (3) compute coord/atom, occasional
      attributes: full, newton on
      pair build: full/bin/atomonly
      stencil: full/bin/3d
      bin: standard
  (4) compute cluster/atom, occasional
      attributes: full, newton on
      pair build: full/bin/atomonly
      stencil: full/bin/3d
      bin: standard
Per MPI rank memory allocation (min/avg/max) = 9.324 | 9.328 | 9.331 Mbytes
Step Temp PotEng Volume v_max_n 
    4000    1.9446877   -4.8093336    4897.7467       -1e+20 
    5000    1.9703371   -4.8052047    4928.1644            2 
    6000    1.9794907   -4.8135633    4897.4187            1 
    7000    2.0048683   -4.7753558    4924.3798            1 
    8000    1.9849121   -4.8195189    4935.4703            1 
    9000    1.9711563   -4.8137439    4904.6442            1 
   10000    2.0124212   -4.7901994    4924.0701            1 
   11000    1.9746197   -4.7793819    4906.9136            1 
   12000    1.9747094   -4.8053064    4920.1407            1 
   13000    1.9903674   -4.8127975     4906.866            1 
   14000    2.0214381   -4.7835205    4892.7117            1 
   15000    2.0136122   -4.7727146     4944.253       -1e+20 
   16000    1.9719995   -4.7722284    4931.0336            1 
   17000    2.0221059   -4.8406995    4932.4727            1 
   18000    2.0428035   -4.8042006    4946.2996            1 
   19000    1.9975014   -4.8555635    4870.5021            1 
   20000    2.0465305    -4.782043    4917.5473            1 
   21000    2.0142049   -4.7649997    4904.5987       -1e+20 
   22000    1.9942155   -4.8091331    4907.3074            2 
   23000    2.0233783   -4.8399501    4888.3258            2 
   24000    1.9858069   -4.7682439    4947.9081            1 
   25000    2.0067751   -4.8217654    4918.1691       -1e+20 
   26000    2.0158469    -4.777783    4897.3359            1 
   27000    1.9762077   -4.8041486    4940.5877            1 
   28000    1.9745351   -4.7705976    4895.3208            1 
   29000    1.9601619    -4.836261    4891.1584            1 
   30000    2.0047983   -4.7477956    4950.1586            1 
   31000    1.9810653   -4.7865583    4913.5703            1 
   32000    2.0191836   -4.7574226    4956.5988            1 
   33000    1.9776455   -4.7956568    4919.0363            1 
   34000    1.9922434   -4.8033482    4892.7121            1 
   35000    2.0228073   -4.7930119    4944.4794            1 
   36000     1.973902    -4.816538    4907.2562       -1e+20 
   37000    1.9992985   -4.8091512    4954.8296            1 
   38000    2.0468017   -4.7969812    4907.2012            1 
   39000    1.9871663   -4.7805094    4924.3225            1 
   40000    1.9575316   -4.7917819     4899.529            1 
   41000    1.9992535   -4.7909583    4937.2908            1 
   42000    1.9749029     -4.74725    4950.2359            1 
   43000    1.9624309   -4.7774198     4921.544            1 
   44000    1.9525029   -4.8081825    4936.6184            2 
   45000    2.0068617   -4.7376305    4922.8139            1 
   46000    2.0324104   -4.8282905    4921.5821       -1e+20 
   47000    2.0048465   -4.7916914    4920.2334            2 
   48000    2.0274286   -4.7737165    4946.7827       -1e+20 
   49000    2.0014364   -4.7179777    4947.0452            1 
   50000     2.066235   -4.8353014    4918.1383            2 
   51000    2.0232271   -4.8581764    4912.4786            1 
   52000    1.9422272    -4.799932     4912.622            1 
   53000    2.0015126   -4.8056313    4908.7332            1 
   54000    2.0287554   -4.7533218    4924.1735            1 
   55000    2.0382794   -4.8177608    4898.4587       -1e+20 
   56000    1.9772731   -4.7951744    4931.3253            1 
   57000    2.0131178    -4.828296    4919.9386            1 
   58000    1.9795155   -4.7788023    4930.1877            1 
   59000     1.994142   -4.7839533    4931.1815            1 
   60000    2.0218456   -4.8194817    4905.9136            1 
   61000    1.9576871   -4.7516179    4919.9074            1 
   62000    2.0051955   -4.7901845     4909.483            1 
   63000    1.9888782   -4.8668729    4902.7266            1 
   64000    2.0214043   -4.7971054    4904.3181            1 
   65000    1.9840109   -4.8140428    4931.0608            1 
   66000    2.0002381   -4.7781165    4928.7895            1 
   67000    2.0420838   -4.8094637    4925.9826            1 
   68000    2.0112202   -4.7617504    4942.3516       -1e+20 
   69000    2.0279234   -4.7801472    4978.6668            2 
   70000    2.0237533   -4.7839275    4913.1832            2 
   71000    1.9941119   -4.8243474    4907.5648            2 
   72000    2.0019879   -4.7051247    4919.9465            2 
   73000    2.0244117   -4.7697033     4938.373            2 
   74000    2.0268972   -4.8393872    4899.6475            2 
   75000    1.9963194   -4.8096359    4915.4342            1 
   76000    2.0168683    -4.797761    4903.5972            1 
   77000    2.0040974   -4.7840897    4913.6263            1 
   78000    2.0477247   -4.7691153    4916.8397            1 
   79000    1.9617206   -4.8123111    4898.7785            1 
   80000     1.993805   -4.7785893    4920.7068            1 
   81000    2.0158383   -4.7997687    4949.2611            1 
   82000    2.0300275    -4.780185    4924.2109            1 
   83000    2.0081866    -4.789487     4920.055            1 
   84000    1.9700136   -4.7623445    4931.1851            2 
   85000    2.0336474   -4.8016302    4901.4812            1 
   86000    1.9556644    -4.836844    4922.9615            1 
   87000    1.9621262   -4.8972342    4860.1278            1 
   88000    1.9870194   -4.7684028    4890.6756            1 
   89000    2.0292074   -4.7938949    4956.8855            1 
   90000     2.041046    -4.792132    4929.5625            1 
   91000    1.9425537   -4.7873171    4898.9091       -1e+20 
   92000    1.9904315   -4.7913244    4879.2415            1 
   93000    1.9961677   -4.7676427    4915.7526            1 
   94000    1.9954707   -4.8378778    4903.3756            1 
   95000     1.992892   -4.7832569    4911.0133            1 
   96000    2.0206407    -4.781338     4913.016            2 
   97000    2.0134984   -4.7535026    4936.3593            1 
   98000     1.997522   -4.7585205    4963.1082            1 
   99000    1.9908866   -4.8342095    4936.1718            1 
  100000    1.9625113   -4.8003354    4911.4825            1 
  101000    2.0165517    -4.777968    4928.6069            3 
  102000     1.962274   -4.7937063    4888.2552       -1e+20 
  103000     1.974088   -4.7874372    4943.3878            1 
  104000    1.9616516   -4.7942125    4903.3782            2 
  105000    1.9854682   -4.8111807    4927.5057       -1e+20 
  106000    2.0489108   -4.8100669    4908.9147            1 
  107000    1.9963304   -4.7717948    4926.5865            1 
  108000    1.9741452   -4.8004598    4919.5083            1 
  109000     1.970624   -4.8428322    4936.1355            1 
  110000    2.0180882   -4.7839292    4928.0808            1 
  111000    1.9660119   -4.8140032    4942.6304       -1e+20 
  112000    2.0061194   -4.8695262     4906.074            2 
  113000    1.9852184   -4.8028242     4917.692            1 
  114000    1.9753583   -4.7507342     4953.043            1 
  115000    2.0132884   -4.8140758      4964.12            1 
  116000    1.9835285   -4.7903596    4951.8619            1 
  117000    2.0079307   -4.8266864    4918.6844            3 
  118000    2.0138971   -4.7745132    4932.7228            1 
  119000     2.018445   -4.8257295    4924.0138            2 
  120000    2.0148283   -4.7911304    4899.1914            2 
  121000    2.0201442   -4.8127744     4966.449            1 
  122000    2.0119857   -4.7733481    4920.5577            1 
  123000    1.9582225   -4.7913327    4915.4616       -1e+20 
  124000    2.0180715   -4.8183421    4884.8813       -1e+20 
  125000    2.0048523   -4.8045611    4943.5446            1 
  126000    1.9792749   -4.8147097    4923.5545            1 
  127000    1.9805097   -4.7982433    4924.9274            1 
  128000    1.9878994    -4.807564    4911.6889            1 
  129000    2.0166045   -4.8015101    4948.3194       -1e+20 
  130000    2.0230551   -4.8098618    4914.6244            1 
  131000    1.9847292   -4.8022358    4919.0386       -1e+20 
  132000    2.0522988   -4.7719284    4948.2246            1 
  133000    1.9937409   -4.8136043    4911.0449            2 
  134000    1.9837085   -4.7994401    4926.5194            1 
  135000    1.9814194   -4.7767479    4917.7698            1 
  136000    1.9739423   -4.7882503    4916.8066       -1e+20 
  137000    1.9890154   -4.8104488    4887.1354            1 
  138000    2.0033474     -4.79748    4921.0585            1 
  139000    2.0087672   -4.8426096    4933.6558            1 
  140000     2.010825     -4.74827    4959.7291       -1e+20 
  141000    2.0350105   -4.7287433    4959.6643            1 
  142000    2.0159911   -4.8498969    4921.0063            1 
  143000    2.0336114   -4.7991426    4946.6475            1 
  144000    1.9380373   -4.8175281    4916.5667            1 
  145000    2.0027546   -4.7982555    4911.4743            1 
  146000    2.0194829   -4.8097236    4932.3283            1 
  147000    1.9874009   -4.7976438     4928.203            1 
  148000    2.0368834   -4.7754422    4956.4434            1 
  149000    1.9986841   -4.8287546    4889.2163            1 
  150000    2.0290302    -4.823448    4933.6753       -1e+20 
  151000    1.9997406   -4.8138595    4908.3701            2 
  152000    2.0090326   -4.8022027    4958.2669            1 
  153000    1.9756171   -4.7743379    4950.4746            2 
  154000    1.9846708   -4.8400072    4890.0374       -1e+20 
  155000    2.0249104   -4.8072122     4941.978            1 
  156000    2.0078916   -4.8532401     4922.379            3 
  157000    1.9972992   -4.8191861    4898.7789            1 
  158000    2.0133095   -4.8053283    4926.4207       -1e+20 
  159000    1.9900174   -4.8243555    4916.8638            3 
  160000    2.0026795   -4.7908118    4921.6206            1 
  161000    2.0238692   -4.8316571    4905.0991            2 
  162000    2.0431313   -4.7819587    4924.2117            1 
  163000    1.9948577   -4.7886538    4916.5855            1 
  164000     1.974301   -4.8125999    4909.4563            1 
  165000    2.0252189   -4.7759143    4941.2353            1 
  166000    2.0263665   -4.8142424     4896.977            1 
  167000    1.9985609   -4.8751885    4888.4776            1 
  168000    2.0372202   -4.8041617    4931.0912       -1e+20 
  169000    2.0197667   -4.8489906    4899.8875            1 
  170000    2.0126762   -4.8105086    4928.7074            1 
  171000    2.0099525    -4.781327    4935.9891       -1e+20 
  172000    1.9965157    -4.810151    4926.7816            1 
  173000    2.0095492   -4.7767835    4895.5352            1 
  174000     1.989399   -4.8041685    4929.3352            1 
  175000       2.0063   -4.8110176    4921.3583            1 
  176000    2.0278381   -4.7640768    4962.2859            1 
  177000    2.0196946   -4.8174169    4918.8014            2 
  178000    1.9897929    -4.773841    4906.5355            1 
  179000    1.9678187   -4.7652001    4912.6074            1 
  180000    2.0167786   -4.7888829     4915.753            1 
  181000    2.0120967   -4.7705401     4930.374            1 
  182000    2.0420468   -4.7947959      4916.91            1 
  183000    1.9742535    -4.791685    4928.4472            1 
  184000    2.0318013   -4.7788734    4936.3233            1 
  185000    1.9923149   -4.8356631    4918.7304            1 
  186000    1.9997502   -4.7992401    4947.8544       -1e+20 
  187000    2.0417696   -4.8396122    4907.6734       -1e+20 
  188000    1.9817917    -4.843475     4907.277       -1e+20 
  189000     1.979128   -4.7961074    4935.9934       -1e+20 
  190000    1.9948212   -4.8012219    4892.9004            1 
  191000    2.0182948   -4.8358241    4920.5307            3 
  192000    2.0110587   -4.7692562    4912.8133            1 
  193000    1.9917917   -4.8099994    4904.0877            1 
  194000    1.9954806    -4.788145    4929.8725            1 
  195000    1.9810386    -4.811477     4900.913            1 
  196000    2.0191491    -4.750304    4905.6765            1 
  197000    1.9802403   -4.8521271    4890.5616            1 
  198000    2.0009326   -4.7954866    4924.9099            5 
  199000    2.0015677   -4.7842506    4925.7011            1 
  200000    1.9851983   -4.8275531    4913.7452            1 
  201000    2.0071885   -4.7639887    4932.3351            2 
  202000    2.0235671   -4.8559173    4897.6503            1 
  203000    1.9894752   -4.7610739     4898.361            1 
  204000      1.98084   -4.7935693    4928.3716            1 
  205000    1.9890928   -4.7985093    4925.6469            3 
  206000    1.9963761   -4.8177377    4893.3853            1 
  207000    1.9809115   -4.7768197    4922.3165       -1e+20 
  208000    1.9673101   -4.8477538    4907.1681       -1e+20 
  209000    1.9790905   -4.7934219    4915.9541       -1e+20 
  210000    1.9862144   -4.8184564    4910.9363            1 
  211000    1.9967244   -4.7527044    4922.9329       -1e+20 
  212000    1.9923713   -4.7756627    4886.3585            1 
  213000    2.0159743   -4.8148805    4900.3956            1 
  214000    1.9900547   -4.8122227    4931.8248            1 
  215000    2.0040124   -4.7462037    4917.5122            1 
  216000    1.9919942   -4.7833807    4925.4433            1 
  217000    2.0055606   -4.7929918    4884.3031            1 
  218000    1.9956165    -4.847564    4864.6129            1 
  219000     2.006584   -4.7522407    4924.5206            1 
  220000     1.998543   -4.8541625    4899.8453            1 
  221000    2.0485157   -4.8278597    4909.4456            2 
  222000    2.0078832   -4.7855146    4913.3322       -1e+20 
  223000    1.9846275   -4.8041052     4934.026            1 
  224000    1.9925147    -4.810037    4900.6352            2 
  225000    2.0091405   -4.8137553    4906.8399            1 
  226000    2.0271795   -4.7882513    4964.4514       -1e+20 
  227000    1.9861838   -4.8212094    4946.1394            1 
  228000    1.9903612   -4.7823764    4920.9278       -1e+20 
  229000    1.9897807   -4.7880822    4927.3187            1 
  230000    2.0093085   -4.8390191    4904.0114            1 
  231000    2.0173957   -4.8237565    4918.9528            1 
  232000    2.0002888   -4.7875443    4916.2922            1 
  233000    1.9850719   -4.7716595    4939.7098            2 
  234000    1.9879561   -4.7909643     4959.689       -1e+20 
  235000    2.0126064    -4.763469    4925.9854            1 
  236000    1.9788349   -4.7921937    4929.9176            1 
  237000    1.9964431   -4.7862917    4930.3362            2 
  238000    1.9892131   -4.8357762    4905.5742            1 
  239000    2.0012482   -4.7800814     4922.054            1 
  240000    2.0772946   -4.7917598    4918.6783            1 
  241000    1.9804809   -4.7596694    4935.4618            1 
  242000    2.0350894   -4.8034481    4922.7085       -1e+20 
  243000    2.0375125    -4.810529    4948.4988            2 
  244000    2.0293806   -4.8166272    4886.9535            1 
  245000    2.0244166   -4.7682231    4936.7402            1 
  246000    2.0216831   -4.7673889    4937.9826            1 
  247000    1.9807674   -4.7599616    4916.2849            1 
  248000    2.0207462   -4.8314105    4906.4162            1 
  249000    2.0193271   -4.8028986    4922.6383            1 
  250000    1.9890346   -4.7431436    4895.0576       -1e+20 
  251000    1.9860218   -4.7852929    4918.0246            1 
  252000    2.0039095   -4.7876821    4915.6622            2 
  253000    2.0053898   -4.7897861    4938.2242            1 
  254000    1.9900206   -4.7903324    4926.1577            1 
  255000    1.9989435   -4.8085142     4891.671            3 
  256000    1.9997759   -4.7583802    4908.1725       -1e+20 
  257000    2.0137594   -4.8007279    4932.3705            1 
  258000    1.9711564   -4.8429589    4929.4473            2 
  259000    2.0176855   -4.7739642    4921.3921            1 
  260000     1.991936   -4.7711996    4939.3977            1 
  261000    2.0354498   -4.7516494    4927.3995            2 
  262000    1.9528298   -4.8327604      4941.73            1 
  263000    1.9998337   -4.7935054    4912.8142            1 
  264000    1.9956537   -4.7931781    4893.6308            4 
  265000     2.015848   -4.8053976    4909.5247            4 
  266000    2.0114392   -4.8098156    4924.0284       -1e+20 
  267000    1.9734422   -4.7714601    4919.2726            1 
  268000    2.0374867   -4.7647351    4903.5002       -1e+20 
  269000    1.9992851   -4.7711214    4905.6905            1 
  270000    2.0663931   -4.8322593    4940.7592            1 
  271000    2.0689631   -4.8206967    4936.7629            1 
  272000    2.0445721   -4.7944685    4925.4701            1 
  273000    2.0220947   -4.8576812    4893.8509            1 
  274000    1.9951946   -4.8171309    4904.0435            2 
  275000    2.0302078    -4.773447    4952.4087            2 
  276000    2.0095963   -4.8092356    4920.2405            2 
  277000    2.0161343   -4.7968865    4928.2921            2 
  278000    2.0217788   -4.7520434    4924.8578            1 
  279000    2.0288342    -4.784036    4937.5631            1 
  280000    2.0105018   -4.8232093     4928.462            1 
  281000    1.9849473   -4.7958024    4946.6313            1 
  282000    1.9923581   -4.7524458     4922.438            1 
  283000    1.9959235   -4.8509114    4873.2715            1 
  284000    2.0439285   -4.7767823    4926.8355            2 
  285000    1.9824148   -4.8389847    4922.1033            1 
  286000     2.031895   -4.8213755    4910.5033            1 
  287000     2.051922   -4.8067622    4903.1562            2 
  288000    1.9741597   -4.7687679    4921.9143            1 
  289000     2.007765   -4.8029165    4901.4553            1 
  290000    1.9382014   -4.7979858    4917.4186            1 
  291000    2.0090268   -4.7707253    4916.1325       -1e+20 
  292000    1.9810404   -4.8214849    4896.1843       -1e+20 
  293000    2.0164123   -4.7739555    4923.5253       -1e+20 
  294000    1.9761515    -4.805725    4936.2244            1 
  295000    1.9757113   -4.7839976    4930.9466            2 
  296000    1.9986775   -4.8247526    4893.0194            1 
  297000    1.9941336   -4.7737309    4910.7899            1 
  298000    2.0496283    -4.844189    4885.4197            1 
  299000     1.999914   -4.8174956    4920.0313       -1e+20 
  300000    1.9811843   -4.8103522    4925.0795            1 
  301000    1.9969677   -4.7742559    4932.4717       -1e+20 
  302000    2.0228626   -4.7967507    4912.9752            1 
  303000    1.9984679   -4.8354464    4920.2902            1 
  304000    1.9406909   -4.7824084    4920.1724            1 
  305000    1.9985272   -4.8304213    4892.3946            1 
  306000    1.9789855   -4.7380804     4920.459            2 
  307000    1.9844115   -4.8112814    4938.6601            1 
  308000    2.0097662   -4.7896309    4941.3384            1 
  309000    2.0010634   -4.8157439    4897.3828            1 
  310000     1.955614   -4.7792938    4909.0706            1 
  311000    1.9936998    -4.785228    4924.8789            2 
  312000    1.9943406    -4.756027    4938.4204            1 
  313000    2.0453137   -4.7798581    4911.8166            2 
  314000    2.0252122   -4.7582681    4932.8883            1 
  315000     1.928349   -4.7963293    4921.1572            1 
  316000    1.9988146   -4.7796243    4927.5333            1 
  317000     1.921968   -4.7999505    4907.5797            1 
  318000    1.9950716   -4.7797079    4927.3573            1 
  319000    1.9896768   -4.7740154    4928.1894       -1e+20 
  320000    1.9813055   -4.8300139    4942.7071            1 
  321000    1.9817224   -4.8053557    4904.7958            1 
  322000    2.0074826   -4.8105636    4920.9055       -1e+20 
  323000    1.9905446   -4.7641277    4904.7094            1 
  324000    2.0034768   -4.8178619    4913.7553            1 
  325000    1.9644972   -4.8332736    4897.8357            1 
  326000    2.0596229   -4.8313501    4905.4824            1 
  327000    1.9871403   -4.7877871    4930.2241            1 
  328000    1.9805097    -4.762301    4963.3976            1 
  329000    2.0138252   -4.8169233     4909.133            1 
  330000    1.9884686   -4.7949746    4903.8889            1 
  331000    1.9901068   -4.7646527    4917.7083            2 
  332000     1.975205   -4.8162539    4901.1577            1 
  333000    2.0220764   -4.8098807    4913.8022            1 
  334000    1.9892312   -4.7997448    4922.3986            1 
  335000    2.0119311   -4.8077844    4918.4142            1 
  336000    1.9719251   -4.7873533    4946.6934            1 
  337000    1.9999837   -4.8103221    4890.1839            1 
  338000    2.0103471   -4.8079551    4940.8697            1 
  339000    2.0077373   -4.7945659    4927.2695            1 
  340000    2.0290008   -4.7900068    4927.2496            1 
  341000    1.9817778   -4.8293634    4890.4179            1 
  342000    1.9737567   -4.7669828    4917.0669            1 
  343000    2.0639587   -4.8114231    4924.5334            1 
  344000    1.9990009   -4.8501604    4906.1677            1 
  345000    2.0108726   -4.8440732    4907.2601            1 
  346000    2.0373988   -4.7721669    4934.2456            2 
  347000    1.9902573   -4.8044512    4951.8661            1 
  348000    2.0012092   -4.8439596    4922.1518            1 
  349000    2.0020192   -4.7705513    4904.9205            4 
  350000    2.0107609   -4.7923029    4921.8824       -1e+20 
  351000     2.038285   -4.7810651    4915.7687            1 
  352000    2.0240261   -4.8074532    4956.1579       -1e+20 
  353000     1.996433   -4.7712835    4928.0602            1 
  354000    1.9912657   -4.8073174    4935.8679            1 
  355000    1.9475899   -4.8173443    4939.5022            1 
  356000    1.9735615   -4.7908018    4934.7612            1 
  357000    1.9941751   -4.8179337     4913.202            1 
  358000    1.9850758   -4.8247642    4896.0715            1 
  359000    1.9707007   -4.8188196    4913.9466            2 
  360000    1.9838112   -4.8070992    4887.4114            2 
  361000    2.0057077   -4.8111304     4919.444       -1e+20 
  362000    2.0180776   -4.7791241    4944.9847            1 
  363000    1.9831674   -4.7775775    4941.1928            1 
  364000    1.9710449    -4.778177    4949.5361            1 
  365000    1.9802132   -4.8160499    4921.4392            1 
  366000    2.0007463   -4.7979324    4914.9529            1 
  367000    2.0177893    -4.824417     4920.094            1 
  368000    1.9961991   -4.7803614    4936.2583            1 
  369000    1.9990056    -4.797458    4885.7718            2 
  370000    1.9967446   -4.8308647    4889.0353            2 
  371000    2.0149368   -4.8047319    4895.3012            2 
  372000    1.9765444   -4.7516808    4953.9357            1 
  373000     1.951487   -4.7968254    4892.1051            1 
  374000    1.9964876   -4.7988512    4893.1864            1 
  375000    1.9695506   -4.7842578    4939.5327            1 
  376000    1.9639532   -4.8346221    4908.0981       -1e+20 
  377000    1.9874304   -4.7555359    4911.8115            1 
  378000    1.9994428   -4.8066909    4903.3693       -1e+20 
  379000    1.9655647   -4.8175344    4931.5592            1 
  380000    2.0169525   -4.7864874    4900.6246            1 
  381000    1.9638233   -4.7815664    4918.4542            2 
  382000    1.9549623   -4.8320148    4920.6686       -1e+20 
  383000    1.9719399   -4.8053747    4931.0576            1 
  384000    2.0533805   -4.7618668    4953.4678            1 
  385000    1.9928859   -4.8296251       4900.6            2 
  386000    1.9965767   -4.8056346    4928.9291            1 
  387000    2.0292138   -4.7868182    4932.5023            1 
  388000    1.9395199   -4.8131743    4937.6716            1 
  389000    2.0200942   -4.7612282    4941.9059       -1e+20 
  390000    1.9702653   -4.8411047    4912.6803       -1e+20 
  391000    1.9569866   -4.8262099    4910.5527            1 
  392000    1.9531261   -4.8311224    4894.3468            1 
  393000     1.957843   -4.7997108    4910.2123            1 
  394000    1.9698588   -4.8193902    4908.9369            1 
  395000    2.0009317   -4.8264233    4895.7765            2 
  396000     2.009477   -4.7759929    4935.8773            1 
  397000    2.0093318   -4.8313575    4920.5105            1 
  398000    2.0413305   -4.7919159    4968.7767            1 
  399000    1.9812443   -4.8151253    4910.1619            1 
  400000    2.0158489   -4.7794053    4918.5221            1 
  401000    1.9713102   -4.7908216    4926.3124            1 
  402000    2.0010691   -4.8317814     4882.216            1 
  403000    1.9702244   -4.7533928    4953.9691            2 
  404000    2.0433596   -4.8009413    4940.6208       -1e+20 
  405000    1.9998102   -4.8281058    4918.2607            1 
  406000    2.0046972    -4.786094    4931.0066       -1e+20 
  407000    2.0161604    -4.759531    4916.9614       -1e+20 
  408000    2.0028623   -4.8422157    4909.6104       -1e+20 
  409000    2.0155479   -4.8399054    4909.6877            1 
  410000    2.0101612   -4.7767466    4920.3746            1 
  411000    1.9634144   -4.7891703    4956.9709            1 
  412000    2.0283681   -4.7590238    4936.0707            1 
  413000    2.0136944    -4.802107    4912.0885            1 
  414000    1.9669967   -4.8179936    4917.2223       -1e+20 
  415000    2.0088725   -4.7762866    4914.5435            1 
  416000    1.9552727   -4.7983748    4921.6886            1 
  417000    1.9877576   -4.9044668    4900.0985            3 
  418000    2.0584671   -4.7929147    4925.2322            1 
  419000    1.9863551    -4.818226    4939.0666            2 
  420000    1.9942189   -4.8759916    4893.8277            1 
  421000    1.9824471    -4.806126    4925.9001       -1e+20 
  422000    2.0232435   -4.7846753    4908.8744            2 
  423000    1.9946482    -4.829589    4893.5368            1 
  424000    2.0164178   -4.8271939    4914.8267            2 
  425000    2.0253747   -4.8131489    4921.1283            1 
  426000    1.9964162   -4.8121333    4917.9472            1 
  427000    2.0053517   -4.7665875    4934.5703            2 
  428000    1.9807985   -4.8308764    4932.8574            1 
  429000    1.9675026   -4.7841297    4929.0014       -1e+20 
  430000    2.0230117   -4.7884932    4923.7236       -1e+20 
  431000    2.0149662   -4.7645523    4935.0382            1 
  432000    2.0015293   -4.7954574    4904.0037            1 
  433000    2.0031244   -4.7727378    4926.2807            2 
  434000    1.9528009   -4.8455192    4916.5155       -1e+20 
  435000    1.9623852   -4.7753548    4952.4373            1 
  436000    2.0117062   -4.8355385    4927.3717            1 
  437000    2.0090203   -4.8015764    4922.2168            1 
  438000    2.0085941   -4.7784995    4954.5669            1 
  439000    1.9645451   -4.8036912    4888.5453            1 
  440000    2.0000685    -4.784481     4924.657            1 
  441000    2.0006039   -4.7343875    4892.5774            1 
  442000    1.9750498   -4.8410096    4899.2475            1 
  443000    2.0019622   -4.8101124    4937.1942            1 
  444000    2.0263781   -4.7905064    4930.4522            1 
  445000    2.0046764   -4.8612825    4869.5656       -1e+20 
  446000    2.0098774   -4.7771143     4955.919            1 
  447000    1.9826364    -4.814445    4902.0377            1 
  448000    1.9956691   -4.8089689    4932.0093            1 
  449000    2.0288402   -4.7832782     4915.905            3 
  450000    2.0324214   -4.7978429    4902.8889       -1e+20 
  451000    2.0119427   -4.7882099    4926.2877            1 
  452000    1.9839181   -4.7925959    4930.9293            1 
  453000    1.9920623   -4.7820646    4928.5872            1 
  454000    1.9730741   -4.8646692     4925.958            1 
  455000    1.9805911   -4.7763517    4928.2329            1 
  456000    2.0105117   -4.7923328    4933.4338            1 
  457000    1.9620024   -4.7927696    4936.6657            1 
  458000    2.0351479   -4.7669916    4934.5902            2 
  459000    1.9911294   -4.8055803    4896.6104            1 
  460000    1.9695138   -4.7475341    4923.8988            1 
  461000    2.0257744    -4.845859     4892.363            3 
  462000    1.9853336   -4.8086602    4911.2277            1 
  463000     2.015268   -4.7212903    4913.2757       -1e+20 
  464000    1.9486432   -4.7542017    4950.9793            1 
  465000     2.084558   -4.7590162    4919.6754            1 
  466000    2.0143272   -4.8003353    4909.9943            1 
  467000    2.0300238   -4.7712933    4934.2997            1 
  468000    1.9821831   -4.7852276    4925.7228            1 
  469000    2.0014088    -4.827188    4892.1375            1 
  470000      2.01925   -4.8390058    4895.9783            1 
  471000    1.9725058   -4.8561234    4874.7524            1 
  472000    1.9769629   -4.7778607    4892.9049       -1e+20 
  473000    1.9898849   -4.8099094    4925.2175            1 
  474000    1.9838072   -4.7819725    4931.9373            1 
  475000    2.0071549   -4.7441441    4949.3114            1 
  476000    2.0268612   -4.8180018    4899.9378            1 
  477000    2.0105152   -4.7784653     4924.914            2 
  478000    2.0211905   -4.8305186    4913.9614            1 
  479000    1.9980023   -4.7983303    4918.4608            1 
  480000    2.0453424   -4.7696059    4913.0895            1 
  481000    2.0054023   -4.7978732    4871.2656            1 
  482000    2.0321472   -4.7562514      4910.05            1 
  483000    2.0179867   -4.7848677     4933.304            1 
  484000    2.0095379   -4.8616536    4911.9349            2 
  485000    2.0171898   -4.7849991    4914.2192       -1e+20 
  486000    1.9938731   -4.8013167    4924.2458            1 
  487000    1.9952182   -4.7518302    4956.7104            1 
  488000    1.9926124   -4.7680701     4919.559            1 
  489000    1.9699743   -4.8257991    4895.3379            2 
  490000    2.0166622   -4.8222285    4885.3681            1 
  491000    2.0427132   -4.7937825    4910.3349            1 
  492000    2.0472911   -4.8143051    4913.7526            2 
  493000     1.993526   -4.7831286    4934.1737       -1e+20 
  494000    1.9796735   -4.8269526    4883.9571            2 
  495000    2.0067392   -4.8139321    4935.8812            2 
  496000    2.0112403   -4.8367065    4884.7744            1 
  497000    1.9873625   -4.8070607    4918.3165            2 
  498000    2.0338102   -4.8408542    4921.7536            2 
  499000    1.9927409   -4.7767667    4915.6214            1 
  500000    1.9443625   -4.7858744    4887.5493            1 
  501000    1.9491312   -4.7928042    4929.5212            1 
  502000    1.9957421   -4.8155579    4917.6058            1 
  503000    2.0233114   -4.7824708     4934.195       -1e+20 
  504000    1.9948789   -4.7835968    4920.4464            1 
  505000    1.9860223   -4.8314834     4895.856            1 
  506000    1.9481698   -4.7981245    4913.9342            1 
  507000    1.9977388   -4.7925491    4927.1157       -1e+20 
  508000    2.0249106   -4.7953037     4945.693            1 
  509000    1.9753304    -4.806773    4889.1073            1 
  510000    2.0021128   -4.7742591    4939.1101       -1e+20 
  511000    1.9840576   -4.7507473    4926.4328            1 
  512000    2.0015813    -4.806098    4937.0307            2 
  513000    2.0068292   -4.8258425    4887.2948            1 
  514000    1.9876402   -4.7955333    4930.9527            1 
  515000    1.9692271   -4.8358267    4940.8054            1 
  516000    2.0052724   -4.7840885    4904.7678            1 
  517000     2.004397   -4.8030597    4896.4389            1 
  518000    1.9877615   -4.8017277      4921.75            1 
  519000    2.0357562   -4.8019051    4900.3294       -1e+20 
  520000    2.0161683   -4.8240243    4884.5744            1 
  521000    2.0054592   -4.7899455    4938.3985            1 
  522000    1.9856624   -4.8385634    4896.8848            1 
  523000    2.0021344   -4.7836777    4935.2435            1 
  524000    1.9935042   -4.8414754    4925.2718            2 
  525000    2.0408057   -4.8674841    4901.6534            1 
  526000    2.0395896   -4.8779785    4877.6812            1 
  527000    2.0234434   -4.8274176    4887.6945            1 
  528000    2.0076542   -4.8002976    4957.8989            3 
  529000    1.9801627   -4.8585702    4900.2517            1 
  530000    1.9923409   -4.7761053    4960.0829            2 
  531000    1.9927104    -4.762862    4912.4269            1 
  532000    2.0044499   -4.7917698    4927.2343            3 
  533000    1.9867802   -4.8215511    4918.7895            1 
  534000    2.0056291   -4.7813223    4928.2792            1 
  535000    2.0097348    -4.773746    4887.2229            2 
  536000    2.0072688   -4.7882028    4935.0611       -1e+20 
  537000    1.9866712   -4.7870716    4922.8705       -1e+20 
  538000    2.0021518   -4.7878457    4917.3353            2 
  539000    2.0459497   -4.8461362    4886.3349            1 
  540000     1.978044   -4.7675433    4961.6626            1 
  541000    2.0084986   -4.7972764    4934.2045       -1e+20 
  542000    2.0066895   -4.8174973    4930.3319            1 
  543000    1.9709047   -4.7944359    4947.7768            1 
  544000    2.0020802   -4.7924023     4886.614       -1e+20 
  545000    1.9938581   -4.8369524    4912.9793            1 
  546000    1.9510494   -4.8314172    4925.6673            1 
  547000    1.9886026    -4.791499    4926.4675            1 
  548000    2.0034485   -4.8042922    4910.4023            2 
  549000    1.9688319   -4.8161146    4949.8554            1 
  550000    1.9744854    -4.799808    4919.5994            1 
  551000    2.0098144   -4.7906321    4951.3151            1 
  552000    2.0362623   -4.7863034    4933.5678            1 
  553000    2.0395222   -4.8017622    4918.8805            1 
  554000    2.0102314   -4.7590597    4937.2441       -1e+20 
  555000    2.0043499   -4.7787141    4913.0372            1 
  556000    1.9756761   -4.8096191    4952.9235            2 
  557000    1.9978515    -4.786521    4925.6902            1 
  558000    2.0153472   -4.7638527    4917.9505            1 
  559000    1.9852197   -4.8017794    4893.9091            1 
  560000    1.9638762   -4.7770565    4931.0337            1 
  561000    2.0689092   -4.8727387    4896.0385            1 
  562000    2.0218567   -4.8118353    4935.6566       -1e+20 
  563000     2.015774   -4.7489038    4927.1988       -1e+20 
  564000     1.986955   -4.7759755    4935.8459            1 
  565000    1.9988269   -4.8522979    4896.1754            1 
  566000    1.9532356   -4.8100212    4926.8295       -1e+20 
  567000    2.0065019    -4.792741    4926.9989            1 
  568000    2.0119789   -4.7260432    4921.9685            1 
  569000    1.9436684   -4.8273234    4912.2582       -1e+20 
  570000    1.9925171   -4.8120855    4888.5737            1 
  571000    2.0340952   -4.7945182    4937.8513            1 
  572000    2.0062737   -4.8005544    4912.4457            1 
  573000    2.0345658    -4.823212    4907.7449            1 
  574000    1.9971852   -4.8084791    4899.0753            2 
  575000    2.0149435   -4.8123142    4916.8564            1 
  576000    1.9582954   -4.7950271    4934.3341            1 
  577000    1.9803838   -4.8057763    4903.3486            1 
  578000    1.9907784   -4.8052742     4924.648       -1e+20 
  579000    1.9867033   -4.8090104    4900.2837            1 
  580000    2.0034928   -4.8290879    4918.5108            1 
  581000    1.9548365   -4.7854732    4946.7051       -1e+20 
  582000    2.0058239   -4.7575844      4918.36            1 
  583000     2.011826    -4.794745    4939.9919            1 
  584000    1.9796502   -4.8422165    4898.1747            2 
  585000    1.9853156   -4.8144608     4935.014            1 
  586000    2.0048268   -4.8306627    4901.9735            2 
  587000    1.9610294   -4.8317209    4936.1111            1 
  588000    2.0203746   -4.7986739    4932.2618            1 
  589000    1.9889896   -4.7934849    4907.9168            2 
  590000    1.9931497   -4.8010377    4931.5825            1 
  591000    2.0230062   -4.8378543    4904.9262       -1e+20 
  592000    1.9922919   -4.7613794    4946.9224            1 
  593000    1.9458161   -4.7927454    4937.2804            2 
  594000    1.9964906   -4.7956965    4876.3991            1 
  595000    2.0115726   -4.8008275    4922.0375            2 
  596000    1.9809113   -4.8055509    4899.5364            1 
  597000     1.994583   -4.8453807    4915.3793            1 
  598000    2.0264012   -4.8213295    4917.8934            1 
  599000    2.0037614   -4.8411261    4899.6654            1 
  600000    1.9748933   -4.7845879    4933.0423            1 
  601000    2.0445372   -4.8114697    4896.0976       -1e+20 
  602000    1.9594621   -4.7498537    4950.6711            1 
  603000    2.0002707   -4.8097282    4904.8727            2 
  604000    2.0109094   -4.8483186    4904.0897            1 
  605000    2.0453425   -4.7956613    4904.1515            1 
  606000    2.0095392   -4.8067628     4905.277            3 
  607000     1.991002   -4.7584656    4952.4428            2 
  608000    2.0136275   -4.8116405    4942.9932            1 
  609000    1.9458731   -4.8374668    4894.8434            1 
  610000    2.0201142   -4.8202932    4931.3167            1 
  611000    1.9958732   -4.8336834    4927.0845            3 
  612000    2.0197417   -4.8503178    4933.9438       -1e+20 
  613000    1.9790258   -4.7893832    4911.0987            1 
  614000    2.0192442   -4.7634174    4952.4574            3 
  615000     1.981744   -4.7808826    4940.7639            1 
  616000    2.0286104   -4.7968744    4926.9389            1 
  617000    2.0012288    -4.854252    4936.4593            1 
  618000    1.9689756   -4.7673716    4906.9221       -1e+20 
  619000    1.9579265   -4.8105405     4949.178            1 
  620000    1.9870425   -4.8046619    4925.7043            1 
  621000    2.0080696   -4.7736806     4924.352            1 
  622000    1.9436337   -4.8172927    4921.0551            1 
  623000    1.9641457   -4.7438396    4926.0532            1 
  624000    1.9673824   -4.7632925      4913.57            1 
  625000    1.9800875   -4.8173634    4905.1463            1 
  626000    2.0208781   -4.7783677     4948.452            1 
  627000    1.9603932   -4.8078576    4923.5292            1 
  628000    2.0162642    -4.801646    4934.4762            1 
  629000     2.008161   -4.8350115    4904.1711       -1e+20 
  630000    1.9671054   -4.7903756    4903.0582            1 
  631000    1.9721324   -4.7917284    4942.3683            1 
  632000    2.0221638    -4.832854     4888.544            1 
  633000    2.0146461   -4.8283866    4922.1385            1 
  634000    1.9858538    -4.797345    4903.5593            2 
  635000     2.019214   -4.8228867    4905.9826       -1e+20 
  636000    2.0197354   -4.7568946    4942.0822            1 
  637000    1.9955891   -4.8185847    4943.8144            1 
  638000    1.9952631   -4.8104686    4909.1918            1 
  639000     2.022576    -4.775195    4938.8264            1 
  640000     1.968367   -4.7619801    4937.0144       -1e+20 
  641000    2.0055936   -4.7621818    4974.5681            1 
  642000    1.9260136   -4.8020315    4925.9284            1 
  643000    2.0086047   -4.8427472    4910.8637            1 
  644000    2.0700142   -4.7766536    4907.5677            1 
  645000    1.9807368   -4.8347066     4931.579            1 
  646000    1.9818322   -4.8152878    4897.8368       -1e+20 
  647000    1.9742192    -4.845022    4913.2813       -1e+20 
  648000    1.9365562     -4.80017    4909.4792            1 
  649000    2.0018309    -4.812791    4910.4183            1 
  650000    2.0006004   -4.8093666    4927.6651            1 
  651000    1.9449397    -4.796301    4943.2053            1 
  652000    2.0111479   -4.8146334    4918.4736            1 
  653000    2.0180602   -4.7908646    4908.0317            1 
  654000    1.9843452   -4.8253354    4908.8943            1 
  655000    1.9992299   -4.8215509    4905.8532            1 
  656000    2.0297453   -4.8311705    4905.5614            1 
  657000    2.0304498   -4.7880697    4919.9046            1 
  658000     1.988479   -4.8358866     4942.592            1 
  659000     2.016886    -4.777353    4911.7757            1 
  660000    2.0357747   -4.8670287    4891.9689            1 
  661000    1.9914297   -4.8042449    4919.4715            1 
  662000    2.0342926   -4.8577326    4905.0617            1 
  663000    1.9988195   -4.8088516    4931.3519            4 
  664000    1.9949236   -4.8134118    4882.2089            1 
  665000    1.9909851   -4.7688645     4916.848            3 
  666000    2.0397236   -4.8192962    4929.5745            1 
  667000    2.0008658   -4.8269049    4933.4537            1 
  668000    1.9825535   -4.7755322    4926.3947       -1e+20 
  669000    1.9904126   -4.7829732    4939.4831            1 
  670000    2.0111655   -4.6782041    4963.2904            1 
  671000    2.0107208   -4.8027622    4870.0653            1 
  672000    1.9951457     -4.75219    4939.2853       -1e+20 
  673000    1.9801517    -4.742574    4967.0164            1 
  674000    1.9917172    -4.771298    4938.1751            1 
  675000    2.0025088    -4.835907    4926.3287            1 
  676000    1.9498275   -4.8440108    4917.7769            1 
  677000    1.9995158   -4.7891195     4907.229       -1e+20 
  678000    2.0098394   -4.7837746    4916.3284            1 
  679000    1.9762812   -4.8125487    4888.8242            1 
  680000    1.9644675   -4.7930129    4952.5164            1 
  681000    2.0042752   -4.8347347    4920.9267            1 
  682000    1.9951766   -4.8275146    4930.2214            1 
  683000    1.9953768    -4.772104    4915.9092            1 
  684000    2.0478836   -4.7940089    4900.3289            1 
  685000    1.9988776   -4.7537493    4936.9376            2 
  686000    1.9853065   -4.8222587    4913.0844            1 
  687000    1.9670728   -4.7833307    4911.4033            2 
  688000    2.0129004   -4.7967673    4896.8606            1 
  689000    1.9891835   -4.7357047    4973.8921            1 
  690000    1.9715722   -4.7714258     4920.624            1 
  691000    1.9659017   -4.8121825    4923.7432            2 
  692000    2.0225614   -4.7972441    4887.7535            1 
  693000    1.9779471    -4.735252    4922.3478            1 
  694000    2.0009729    -4.797484    4938.6153       -1e+20 
  695000    2.0273985   -4.7707556    4947.4863            1 
  696000    1.9677074   -4.8155471    4920.9499            2 
  697000    2.0087183   -4.8105853    4883.9525            1 
  698000     1.949011   -4.7787308    4966.3592            1 
  699000    1.9517678   -4.8288915    4901.8745            1 
  700000    2.0246187   -4.8374316    4902.0115       -1e+20 
  701000    2.0194419   -4.8220856     4950.316            1 
  702000    1.9888123   -4.7765029    4920.9331       -1e+20 
  703000    2.0115843   -4.8255715    4877.1639            1 
  704000    1.9837752   -4.7690609    4946.9669            1 
  705000    1.9731109   -4.8067984    4964.2631            1 
  706000    1.9883228    -4.885233    4920.8817            1 
  707000    1.9805421    -4.832562    4932.8516            2 
  708000    1.9879848   -4.8113319    4917.6133            2 
  709000    1.9695538   -4.7344987    4945.4586            1 
  710000    2.0501325   -4.7891387    4909.3602       -1e+20 
  711000    1.9890662   -4.8239649    4880.3879            1 
  712000    2.0173018   -4.8126403    4903.2838            1 
  713000    1.9943531   -4.8151286    4939.3627            1 
  714000    2.0349047   -4.7652435    4941.3451            1 
  715000     1.981756   -4.7844324    4946.3282       -1e+20 
  716000    1.9793805   -4.8265552    4903.8361            1 
  717000    2.0116549   -4.8144317    4903.4832            1 
  718000    2.0267317    -4.806827    4923.7779            1 
  719000    1.9628825    -4.777031    4949.3816            1 
  720000    1.9981788   -4.8324449    4892.6567            1 
  721000    2.0205074   -4.8227624    4905.0246            1 
  722000      1.96626   -4.8172407    4922.6154            1 
  723000    1.9783271   -4.8344618    4897.8898            1 
  724000    1.9909783   -4.7788376    4937.9077            1 
  725000    2.0466762   -4.7540383    4932.1316            1 
  726000    1.9913553   -4.8107154    4945.3472            1 
  727000    1.9947534    -4.753742    4931.0566            1 
  728000    2.0265396   -4.8222579    4929.4674            1 
  729000    2.0117944   -4.8152461     4939.581            1 
  730000    1.9864129   -4.8070476    4931.8919            1 
  731000    1.9910922    -4.797269    4944.4042            1 
  732000    2.0345937   -4.7528924    4919.4312            2 
  733000    1.9801755    -4.756099    4930.4668            1 
  734000    2.0187338    -4.760196    4927.4925       -1e+20 
  735000    1.9495945   -4.7754503    4938.0048            1 
  736000     1.967211   -4.8414608    4939.8205            1 
  737000    2.0305262   -4.8083963    4911.0118            2 
  738000    1.9831688   -4.7765531    4904.6343            1 
  739000    1.9898353   -4.7518982    4937.8967            1 
  740000    1.9907892   -4.7846236    4897.9967       -1e+20 
  741000     2.010757   -4.8105517    4920.9948            1 
  742000    1.9952943   -4.8178561    4894.3511            1 
  743000    2.0073567   -4.7967819    4932.4042            1 
  744000    1.9487227   -4.7977102    4939.0427            1 
  745000    1.9777612   -4.7862699    4913.4495            1 
  746000    1.9965882   -4.8305733    4914.2256            1 
  747000    2.0398748   -4.8144876     4898.285            2 
  748000    1.9959127   -4.8280632    4912.8142            1 
  749000    1.9665272   -4.8168366    4918.5168       -1e+20 
  750000    1.9958159   -4.7553177    4923.7382            1 
  751000    1.9627349   -4.7830286    4947.1959            2 
  752000    1.9819697   -4.8308009    4908.5769            1 
  753000    1.9872589   -4.7953312    4940.9546            1 
  754000    1.9929569   -4.8162725    4912.7019            1 
  755000    1.9735348   -4.8066903    4912.3945            1 
  756000    2.0247676    -4.849254    4889.1571       -1e+20 
  757000    2.0001628   -4.7944953    4926.2023            1 
  758000    2.0056124    -4.803663    4915.8643            1 
  759000    2.0222108   -4.7705367    4938.9406            1 
  760000    1.9951784   -4.7898993     4937.285       -1e+20 
  761000    2.0217046    -4.815966    4897.6768            1 
  762000    1.9671923   -4.7808368    4923.2657            2 
  763000    1.9229696   -4.7912064    4937.0087            1 
  764000    2.0132289   -4.8286307    4882.1677            1 
  765000    2.0497505   -4.8424715    4870.2389            1 
  766000    2.0190752   -4.8095003     4937.839            2 
  767000     2.030884   -4.8273652    4888.0814            1 
  768000    1.9800432   -4.8072858    4889.9732            1 
  769000    1.9635068   -4.7967177    4928.4367            1 
  770000    1.9837419   -4.8252885    4914.4866            1 
  771000    2.0045356   -4.8248131    4912.7769            1 
  772000    2.0188856   -4.7659182    4920.3126            1 
  773000    2.0175405   -4.8137652    4951.8338            1 
  774000    1.9680205   -4.7788007    4928.2896            2 
  775000    1.9881522   -4.7590585    4919.0704            1 
  776000     1.983363   -4.8348261    4911.9303            1 
  777000     1.978286   -4.7990676    4910.5197            3 
  778000    2.0093277   -4.7931492    4894.5198       -1e+20 
  779000    1.9916878   -4.8567371    4908.1695            1 
  780000    1.9972327   -4.8075393    4907.3509            1 
  781000    2.0187723   -4.7767161    4952.6871            2 
  782000    2.0617977   -4.7594342    4926.3796            1 
  783000    2.0131307   -4.8107347    4910.9663       -1e+20 
  784000    2.0358064   -4.8161382    4886.3167            1 
  785000    2.0019285   -4.8020266    4867.0871       -1e+20 
  786000    1.9835522   -4.8562857    4898.0265            2 
  787000    1.9611088   -4.7762818    4911.1225            1 
  788000    1.9654261    -4.759694    4956.1386            1 
  789000     2.033795   -4.8429107    4913.9378            1 
  790000    2.0054352   -4.7386332    4946.1907            1 
  791000    2.0323382   -4.8111898    4929.7865            3 
  792000    2.0107764   -4.7923259    4933.6093            1 
  793000    1.9570144    -4.792834    4919.1553            1 
  794000    1.9821097   -4.8211303    4932.8042            1 
  795000    1.9979595   -4.7727569    4943.9752            1 
  796000    1.9774291   -4.7808613    4917.7975            2 
  797000    1.9986955   -4.7824466    4919.0078            1 
  798000    1.9506016   -4.7723557    4903.7241            1 
  799000    2.0001626   -4.7448691    4956.6487            1 
  800000    2.0046364   -4.7716224    4960.9375            1 
  801000    1.9491339   -4.8166819    4894.7245            1 
  802000    1.9949788    -4.792047    4903.9736            1 
  803000    2.0362243    -4.805948    4937.6691            1 
  804000    2.0106474    -4.841352    4944.5219            1 
  805000    2.0209175   -4.8277946    4918.3378            1 
  806000    2.0195267   -4.7780641    4948.8712            1 
  807000    1.9620351   -4.8591306    4907.5171       -1e+20 
  808000    2.0033077   -4.7471865      4959.42            1 
  809000    1.9763538   -4.8439115    4912.2021            1 
  810000    1.9977923   -4.7885395    4917.4965            1 
  811000    1.9873433   -4.7615945    4942.2039            1 
  812000    2.0201389   -4.8212049    4887.9504            1 
  813000    1.9620646   -4.8286649    4910.7129            2 
  814000    1.9657813   -4.7819407    4944.4998       -1e+20 
  815000    1.9829473   -4.7632415    4955.8384            1 
  816000    1.9747856   -4.7232905    4968.8505            1 
  817000    2.0220314   -4.7997334    4915.9405            1 
  818000     1.998826   -4.7884991    4921.8466            1 
  819000    1.9591838   -4.7708184    4927.2564       -1e+20 
  820000     1.997357   -4.7729516    4921.1126            1 
  821000      2.00205   -4.8031277     4916.332       -1e+20 
  822000    2.0527603    -4.826811    4931.3088            1 
  823000    1.9958033   -4.8118536     4890.121            1 
  824000    2.0001608   -4.7706434    4908.9029            1 
  825000    2.0329486   -4.7500845    4925.5777            1 
  826000    2.0161658   -4.7758135    4896.5394            1 
  827000    2.0062151   -4.8020105    4932.2128            1 
  828000    2.0099698    -4.751891    4940.7831            1 
  829000    2.0139593   -4.8332312    4916.8904            1 
  830000    2.0484368   -4.8447698    4906.2714            1 
  831000    1.9513286   -4.7680962    4940.7008       -1e+20 
  832000    1.9562019   -4.7747608    4910.5623            2 
  833000    2.0377874     -4.78509    4946.4321       -1e+20 
  834000    2.0564629   -4.7997774    4924.7002            1 
  835000    1.9901272   -4.8190344    4910.1936            1 
  836000    1.9763657   -4.8142421    4950.9745            1 
  837000    1.9513232   -4.7789481    4917.3227            1 
  838000    1.9833659   -4.8324648    4896.3936            1 
  839000    2.0284984   -4.8452988    4888.8901            4 
  840000    2.0675342   -4.8019368    4896.3926       -1e+20 
  841000    2.0107316   -4.7864991    4918.2917            1 
  842000     2.025377   -4.7680527    4974.8553            1 
  843000    1.9760467   -4.8246005     4923.944            1 
  844000    1.9385826   -4.7787671    4961.6879       -1e+20 
  845000    2.0443888   -4.8090719    4915.2418       -1e+20 
  846000     1.952483   -4.7983853    4935.9723            1 
  847000    2.0063945     -4.80973    4904.4162            2 
  848000    1.9902633   -4.7968617     4897.327            1 
  849000    1.9721834   -4.8105625     4918.531       -1e+20 
  850000    2.0286825   -4.7817915    4958.9284            1 
  851000    1.9872518   -4.8107638     4916.913            1 
  852000    2.0096906   -4.7933636    4916.1471       -1e+20 
  853000    2.0099711   -4.8106434    4930.9466       -1e+20 
  854000    1.9826623   -4.8227851    4893.5668            2 
  855000    1.9773222   -4.7937395    4886.9078            1 
  856000    1.9684293   -4.7431774    4952.7373       -1e+20 
  857000    1.9248172   -4.8378621    4927.1011            1 
  858000    1.9747896   -4.7906314     4905.217            1 
  859000    1.9573252   -4.8513662    4884.7696            2 
  860000    1.9988026   -4.8028947    4915.9211            1 
  861000    1.9711589   -4.7843237    4947.2412            1 
  862000    2.0150599   -4.7896223    4898.5343            2 
  863000    1.9864158   -4.7963046    4917.3916            1 
  864000    2.0220935   -4.7831182      4919.14            1 
  865000     2.020268   -4.8104424     4921.855            1 
  866000    2.0195719   -4.8134038    4940.9299            1 
  867000     1.934348   -4.7993662    4935.9092            1 
  868000    2.0241938   -4.8201616    4912.1286            1 
  869000    2.0196994   -4.8172823    4899.4841            1 
  870000     2.078518   -4.8014065    4918.7507            1 
  871000    2.0394672   -4.7973297    4941.2612            2 
  872000    2.0034664   -4.8112441    4921.6136            1 
  873000    2.0210401   -4.7650535    4901.6268            2 
  874000    2.0138907    -4.815996    4898.1332            1 
  875000    2.0423229   -4.8051123    4918.3594            1 
  876000    1.9960054   -4.7870088    4943.0323            1 
  877000    2.0442424   -4.8126286    4933.2708            1 
  878000    2.0031071   -4.8474057    4921.6946            1 
  879000    2.0434122   -4.8275137    4918.3781            1 
  880000    2.0116866   -4.8084558    4922.4211            1 
  881000    1.9554226   -4.7608678    4923.6194            1 
  882000    2.0463269   -4.7985159    4922.3311            1 
  883000    2.0085935   -4.7980262    4903.0868            1 
  884000    2.0394645   -4.7846291    4925.8686            1 
  885000    2.0093934   -4.7891366    4940.3974            2 
  886000    1.9926178    -4.828355    4950.1248            1 
  887000    1.9911711   -4.8289704    4913.8375            1 
  888000    2.0073545    -4.832487    4896.3985            2 
  889000    1.9863422   -4.8082974    4956.8585            1 
  890000    1.9601867   -4.8325923    4904.2109            1 
  891000    2.0689367     -4.82306     4912.078            3 
  892000    2.0290416   -4.7752245    4917.3512            2 
  893000     2.023858    -4.810666    4923.0918       -1e+20 
  894000    1.9736739   -4.8254646    4907.3109            2 
  895000    1.9963027   -4.7892816    4920.0169            1 
  896000    2.0001505    -4.748842    4930.3154            1 
  897000    1.9896007   -4.7998527    4926.8792       -1e+20 
  898000    1.9861015   -4.8265495    4951.2944            1 
  899000    1.9616357   -4.7797595    4920.0622       -1e+20 
  900000    2.0026942   -4.7542284    4903.0132            1 
  901000    1.9693959   -4.7439791    4929.7043            1 
  902000    2.0094384   -4.8131043    4898.1694            1 
  903000     2.003121   -4.7718779    4933.8772            1 
  904000    2.0147625   -4.8052452    4902.9084            1 
  905000    2.0144227   -4.8230529     4934.753       -1e+20 
  906000    2.0161557   -4.7718402    4921.3458            1 
  907000    1.9725088   -4.8099624    4902.1364            1 
  908000    2.0183098    -4.772223    4927.7522            1 
  909000    2.0059583   -4.8171015    4954.6277            1 
  910000    2.0353249   -4.8161094    4924.3214            1 
  911000    1.9690866    -4.787352    4900.6832            4 
  912000    2.0099673   -4.8011143    4923.3746       -1e+20 
  913000    2.0304383   -4.7932085    4925.8973            1 
  914000    1.9963964    -4.807186    4890.9426            1 
  915000    2.0202152   -4.7892763    4921.8564            1 
  916000    1.9836624   -4.7774029    4933.0086            2 
  917000    2.0254512   -4.7999419    4933.2153            1 
  918000    2.0161561    -4.871261    4906.1859            2 
  919000    1.9671195    -4.799344    4909.3217            1 
  920000    1.9894482   -4.8306101    4917.8628            2 
  921000    2.0318981    -4.798227    4928.4539            1 
  922000    1.9832031   -4.7685223    4924.5344            1 
  923000    1.9777152     -4.81326    4915.9065            2 
  924000    2.0453949   -4.7545988    4960.0649            1 
  925000    1.9741519   -4.7499813    4916.8413            1 
  926000     2.019153   -4.8425157    4923.4433            1 
  927000    1.9975456   -4.7360631    4912.9631       -1e+20 
  928000    2.0190995   -4.7941238    4889.8348            1 
  929000    1.9760507   -4.8054643    4942.6573            1 
  930000     1.984105   -4.8467334     4902.976            2 
  931000    1.9901739   -4.7489592    4938.3797       -1e+20 
  932000    1.9619741   -4.7919636    4959.4945       -1e+20 
  933000    2.0343085   -4.8238608    4913.0197            2 
  934000    2.0552548   -4.8138893    4929.8537            1 
  935000    2.0121607   -4.8095394    4932.9962            1 
  936000     2.013756   -4.8219556    4918.1905            2 
  937000    2.0045483   -4.7903036    4937.1678            1 
  938000    1.9913786   -4.8093214     4898.506            2 
  939000    1.9640339    -4.766399    4930.5339            1 
  940000     2.018714   -4.7706261     4936.948            1 
  941000    2.0120578   -4.8182543    4928.4932            1 
  942000    1.9935118   -4.7722707    4909.4271            1 
  943000    1.9739606   -4.7957426    4910.8513            1 
  944000    1.9984945   -4.8468598     4920.485            1 
  945000    2.0058554   -4.7978916    4911.0017            1 
  946000    2.0220345   -4.7790686    4935.7861            1 
  947000    1.9702083   -4.7336247    4985.2284            1 
  948000    1.9920803    -4.803484    4907.5377            1 
  949000    1.9714653   -4.7978817    4937.5065            1 
  950000     1.984146   -4.8234924    4894.6971            1 
  951000    2.0227471   -4.7995612    4914.3948            1 
  952000    2.0042661   -4.8497663    4917.4939            2 
  953000    1.9685959   -4.8147744    4900.7298            1 
  954000    1.9780376    -4.833537    4911.8313            2 
  955000    2.0382121   -4.8039335    4938.9731            1 
  956000    2.0005384   -4.7599405    4931.8963            1 
  957000    1.9966087   -4.7631321    4928.2748       -1e+20 
  958000    2.0056467   -4.7833419    4938.6163            1 
  959000    2.0236384   -4.7643302    4947.5469       -1e+20 
  960000     2.023845   -4.7870387    4891.6432       -1e+20 
  961000    2.0276112   -4.7593268    4945.3548            1 
  962000      1.97854   -4.7995289    4941.5097            1 
  963000    1.9353157   -4.7938195    4899.9605            1 
  964000    1.9904758   -4.7858325    4946.9888       -1e+20 
  965000    2.0086449   -4.8284439    4855.4183            1 
  966000    2.0113876   -4.8067156    4936.1362            1 
  967000    2.0293928    -4.824203    4897.3143       -1e+20 
  968000    2.0097335   -4.8357742     4930.514            1 
  969000    2.0105132   -4.8513141    4897.9275            2 
  970000    1.9438521   -4.8102972    4926.9919            2 
  971000    2.0190618   -4.8061841    4902.5594            1 
  972000    1.9933119   -4.8073409    4920.6391            1 
  973000    1.9814363   -4.8104829    4932.8587            1 
  974000    2.0109894   -4.8246469    4929.0091            1 
  975000    1.9859805   -4.8273436    4919.5494            2 
  976000    2.0004384   -4.7909356    4922.6513            1 
  977000    2.0559881   -4.7773987    4904.1015       -1e+20 
  978000      2.02935   -4.8008326    4902.6677            1 
  979000    2.0106836   -4.8889361    4899.2471            1 
  980000    1.9505889   -4.8218383    4928.4003            1 
  981000    2.0204358   -4.7559165    4938.9913            1 
  982000    2.0365173    -4.799559    4931.1466            1 
  983000    1.9862355   -4.7956662     4938.756            1 
  984000    2.0090178   -4.7602798    4956.6174            1 
  985000      2.02706   -4.7719264    4944.2944            1 
  986000    1.9386659   -4.7999674    4923.6318            1 
  987000    1.9412469    -4.813461    4929.1111            1 
  988000    1.9578583   -4.7830503    4914.4984            1 
  989000    1.9610504   -4.7664556    4906.6435            1 
  990000    2.0140998    -4.806273    4904.5047            2 
  991000     2.001449   -4.8399568    4897.4469            1 
  992000    1.9959851   -4.7965509    4896.3264            1 
  993000      1.99742   -4.8447696     4895.946            1 
  994000    1.9753454   -4.7817629    4914.5761            1 
  995000    2.0038657   -4.7973058    4929.9698            1 
  996000    2.0226022   -4.8170523    4897.5398            1 
  997000     1.970831    -4.808235    4921.5911            1 
  998000    1.9951737   -4.8022167    4912.1353            2 
  999000    1.9889834   -4.7602826    4907.4082            1 
 1000000    2.0068923   -4.7730484    4919.6809            1 
 1001000    1.9955347   -4.8254117    4913.9326            1 
 1002000    1.9290712   -4.8200253    4927.9044            1 
 1003000    2.0155225   -4.7723423    4909.9334            1 
 1004000    1.9631569   -4.7689736    4924.0886       -1e+20 
Loop time of 1986.1 on 48 procs for 1000000 steps with 4000 atoms

Performance: 87004.647 tau/day, 503.499 timesteps/s
99.4% CPU use with 48 MPI tasks x no OpenMP threads

MPI task timing breakdown:
Section |  min time  |  avg time  |  max time  |%varavg| %total
---------------------------------------------------------------
Pair    | 105.59     | 110.73     | 116.87     |  28.7 |  5.58
Neigh   | 20.172     | 20.515     | 21.45      |   5.7 |  1.03
Comm    | 111.24     | 116.8      | 123.76     |  28.0 |  5.88
Output  | 1.1916     | 1.1932     | 1.2124     |   0.3 |  0.06
Modify  | 1717.6     | 1725.9     | 1733.1     |   8.0 | 86.90
Other   |            | 11         |            |       |  0.55

Nlocal:        83.3333 ave          91 max          73 min
Histogram: 1 3 5 6 2 2 10 10 7 2
Nghost:        1428.98 ave        1450 max        1404 min
Histogram: 3 2 3 6 3 12 4 7 4 4
Neighs:        7729.69 ave        8632 max        6472 min
Histogram: 1 2 5 4 4 9 4 8 9 2
FullNghs:      15459.3 ave       17240 max       13182 min
Histogram: 2 2 5 4 4 7 8 10 4 2

Total # of neighbors = 742046
Ave neighs/atom = 185.51150
Neighbor list builds = 83467
Dangerous builds = 3062

#clear
#
#next RN
#
#jump SELF
Total wall time: 0:33:07
