
units lj                  # Use reduced LJ style units
atom_style atomic         # Uncharged point particles
atom_modify map hash      # Needed for indexing of clusters etc
                          # Used to be able to find where atoms are in relation to each other.

lattice fcc 1.0 spacing 1 1 1
Lattice spacing in x,y,z = 1.5874011 1.5874011 1.5874011
region box block 0 10 0 10 0 10 units lattice
create_box 2 box
Created orthogonal box = (0.0000000 0.0000000 0.0000000) to (15.874011 15.874011 15.874011)
  3 by 4 by 4 MPI processor grid
create_atoms 1 box
Created 4000 atoms
  using lattice units in orthogonal box = (0.0000000 0.0000000 0.0000000) to (15.874011 15.874011 15.874011)
  create_atoms CPU = 0.002 seconds
set type 1 type/fraction 2 0.56 78393
Setting atom values ...
  2252 settings made for type/fraction
mass 1 1.0
mass 2 1.0
pair_style lj/cut  3.5
pair_modify tail  yes
pair_coeff 1  1  1.0  1.0   # Intearaction between 1 and 1 set with epsilon = 1 and sigma = 1
pair_coeff 1  2  1.5  0.8
pair_coeff 2  2  0.5  0.88

write_data data.0
System init for write_data ...
Neighbor list info ...
  update every 1 steps, delay 10 steps, check yes
  max neighbors/atom: 2000, page size: 100000
  master list distance cutoff = 3.8
  ghost atom cutoff = 3.8
  binsize = 1.9, bins = 9 9 9
  1 neighbor lists, perpetual/occasional/extra = 1 0 0
  (1) pair lj/cut, perpetual
      attributes: half, newton on
      pair build: half/bin/atomonly/newton
      stencil: half/bin/3d
      bin: standard
WARNING: Not all mixed pair coeffs generated from mixing. Use write_data with 'pair ij' option to store all pair coeffs. (../write_data.cpp:312)


#############################
#   M E L T   S Y S T E M   #
#############################

velocity all create 2.4 5833274 mom yes dist gaussian # Assign velocities
                                                    # Temperature 2.4, random number seed, zero linear momentum
                                                                                # Gaussian distribution

timestep 0.002   # simulation timestep
thermo 1000       # output thermodynamic data every 1000 steps bf 100

# Define a fix  in this case with index 1 applied to all
# particles in the simulation. This fix is for simulations
# in the anisotropic NPT ensemble. Note that we use the MTK
# correction.
fix 1 all npt temp 2.4 2.4 0.1 iso 5.68 5.68 0.5 mtk yes tchain 5 pchain 5 # Use NPT ensemble
                                                                         # Set temperature and pressure and damping
                                                                         # Numbers of thermostats in chain and in barostat
run 10000          # run for 10000 steps
Per MPI rank memory allocation (min/avg/max) = 3.642 | 3.644 | 3.648 Mbytes
Step Temp E_pair E_mol TotEng Press Volume 
       0          2.4   -4.9459583            0   -1.3468583   -4.1435722         4000 
    1000    2.4703922   -4.6615071            0  -0.95684519    5.9774631     3613.726 
    2000    2.4161441    -4.662957            0   -1.0396469    6.0403246    3613.8119 
    3000    2.3649083   -4.6873523            0   -1.1408766    5.4229541    3645.7017 
    4000    2.3955041   -4.6440443            0   -1.0516865    5.7364547    3643.0434 
    5000    2.3991985   -4.7627658            0   -1.1648678    5.1486469    3627.6376 
    6000    2.4528473   -4.7415122            0    -1.063161      5.90908    3581.1915 
    7000    2.3884566   -4.6816042            0   -1.0998149    5.6568598     3630.717 
    8000    2.3515505   -4.6657184            0   -1.1392744     5.674338    3628.3595 
    9000    2.3910493   -4.6627937            0   -1.0771165     6.213354    3588.2708 
   10000     2.357606    -4.609093            0   -1.0735681     5.776709    3637.4034 
Loop time of 2.7198 on 48 procs for 10000 steps with 4000 atoms

Performance: 635341.536 tau/day, 3676.745 timesteps/s
99.6% CPU use with 48 MPI tasks x no OpenMP threads

MPI task timing breakdown:
Section |  min time  |  avg time  |  max time  |%varavg| %total
---------------------------------------------------------------
Pair    | 1.2083     | 1.2856     | 1.4428     |   3.1 | 47.27
Neigh   | 0.22164    | 0.22722    | 0.25867    |   1.2 |  8.35
Comm    | 0.77034    | 0.92527    | 0.99207    |   4.8 | 34.02
Output  | 0.00025237 | 0.00025667 | 0.00032932 |   0.0 |  0.01
Modify  | 0.23017    | 0.26538    | 0.32141    |   4.9 |  9.76
Other   |            | 0.0161     |            |       |  0.59

Nlocal:        83.3333 ave          91 max          77 min
Histogram: 2 4 8 6 6 9 7 4 0 2
Nghost:        1747.38 ave        1768 max        1727 min
Histogram: 2 4 4 10 5 6 5 7 4 1
Neighs:        10496.3 ave       11803 max        9542 min
Histogram: 3 2 8 11 9 7 3 3 0 2

Total # of neighbors = 503821
Ave neighs/atom = 125.95525
Neighbor list builds = 905
Dangerous builds = 187

# Equilibrate just above the melting temperature to avoid step fn in T

fix 1 all npt temp 1.25 1.25 0.1 iso 5.68 5.68 0.5 mtk yes tchain 5 pchain 5
run 2000
Per MPI rank memory allocation (min/avg/max) = 3.644 | 3.646 | 3.650 Mbytes
Step Temp E_pair E_mol TotEng Press Volume 
   10000     2.357606    -4.609093            0   -1.0735681     5.776709    3637.4034 
   11000    1.2590152    -6.749031            0   -4.8609804    5.8059289    2806.9993 
   12000    1.2429549   -6.8266416            0   -4.9626754     5.567882    2789.7676 
Loop time of 0.667198 on 48 procs for 2000 steps with 4000 atoms

Performance: 517987.295 tau/day, 2997.612 timesteps/s
99.6% CPU use with 48 MPI tasks x no OpenMP threads

MPI task timing breakdown:
Section |  min time  |  avg time  |  max time  |%varavg| %total
---------------------------------------------------------------
Pair    | 0.29771    | 0.32793    | 0.36676    |   2.2 | 49.15
Neigh   | 0.0412     | 0.043881   | 0.050068   |   0.7 |  6.58
Comm    | 0.20363    | 0.24363    | 0.27601    |   2.9 | 36.52
Output  | 5.2883e-05 | 5.4546e-05 | 7.3199e-05 |   0.0 |  0.01
Modify  | 0.040336   | 0.046555   | 0.051575   |   1.5 |  6.98
Other   |            | 0.005145   |            |       |  0.77

Nlocal:        83.3333 ave          89 max          76 min
Histogram: 3 0 3 7 7 5 10 5 2 6
Nghost:        2093.40 ave        2112 max        2067 min
Histogram: 1 0 0 6 10 9 6 6 9 1
Neighs:        13686.9 ave       15469 max       11749 min
Histogram: 1 0 3 13 6 10 6 6 1 2

Total # of neighbors = 656972
Ave neighs/atom = 164.24300
Neighbor list builds = 141
Dangerous builds = 14

#############################
# L I N E A R  Q U E N C H  #
#############################

# Define solid atoms. This closely follows ten Wolde  Ruiz-Montero and Frenkel  Faraday Discuss  1996  104  93-110
# Compute components of the per-atom q6 vector
compute q6 all orientorder/atom degrees 1 6 components 6 nnn NULL cutoff 1.3 # compute the Q6 parameter.
                                                                             # Use all neighbours within 1.3 unit cell.

# get number of connections
compute coord_number all coord/atom orientorder q6 0.5

# An atom is solid if it has 8 or more connections (of a possible 14)
variable is_solid atom c_coord_number>=8
group solid dynamic all var is_solid    # Must be dynamic to update
dynamic group solid defined

# do clustering
compute cluster solid cluster/atom 1.3 # Create a cluster where all atoms within are solid and max 1.3 units from another member

# define chunks one chunk per cluster
compute clus_chunks solid chunk/atom c_cluster nchunk every compress yes  # Says which atoms are in which chunk

# count the size of each chunk
compute size_chunks solid property/chunk clus_chunks count


# Find the maximum entry in the vector of chunk sizes
variable max_n equal max(c_size_chunks)


# Thermo style which includes this variable
# thermo_style custom step temp pe vol v_max_n

thermo ${N}  # Print the thermo information every 100 steps
thermo 1000  

# Reset the npt fix at a lower temperature (below freezing)
fix 1  all npt temp  ${temp} ${temp}  0.1  iso  5.68  5.68  0.5  mtk yes tchain  5  pchain  5
fix 1  all npt temp  0.45 ${temp}  0.1  iso  5.68  5.68  0.5  mtk yes tchain  5  pchain  5
fix 1  all npt temp  0.45 0.45  0.1  iso  5.68  5.68  0.5  mtk yes tchain  5  pchain  5

dump dmp2 all dcd ${N} traj.dcd
dump dmp2 all dcd 1000 traj.dcd


compute msd all msd com yes
variable twopoint equal c_msd[4]/6/(step*dt+1.0e-6)
fix 9 all vector 10 c_msd[4]
variable fit equal slope(f_9)/6/(10*dt)
thermo_style custom step temp pe c_msd[4] v_twopoint v_fit v_max_n

fix 1 all npt temp 1.25 ${temp} 0.1 iso 5.68 5.68 0.5 mtk yes tchain 5 pchain 5
fix 1 all npt temp 1.25 0.45 0.1 iso 5.68 5.68 0.5 mtk yes tchain 5 pchain 5
run 500000 # 5000000  # Run for this many steps
Neighbor list info ...
  update every 1 steps, delay 10 steps, check yes
  max neighbors/atom: 2000, page size: 100000
  master list distance cutoff = 3.8
  ghost atom cutoff = 3.8
  binsize = 1.9, bins = 8 8 8
  4 neighbor lists, perpetual/occasional/extra = 1 3 0
  (1) pair lj/cut, perpetual
      attributes: half, newton on
      pair build: half/bin/atomonly/newton
      stencil: half/bin/3d
      bin: standard
  (2) compute orientorder/atom, occasional
      attributes: full, newton on
      pair build: full/bin/atomonly
      stencil: full/bin/3d
      bin: standard
  (3) compute coord/atom, occasional
      attributes: full, newton on
      pair build: full/bin/atomonly
      stencil: full/bin/3d
      bin: standard
  (4) compute cluster/atom, occasional
      attributes: full, newton on
      pair build: full/bin/atomonly
      stencil: full/bin/3d
      bin: standard
Per MPI rank memory allocation (min/avg/max) = 9.843 | 9.848 | 9.853 Mbytes
Step Temp PotEng c_msd[4] v_twopoint v_fit v_max_n 
   12000    1.2429549   -6.8266416 1.6583828e-30 1.1516547e-32 8.3333333e+20            1 
   13000    1.2358865   -6.8888009   0.46183643 0.0029604898  0.038073439            4 
   14000     1.248366   -6.8457129   0.89079414 0.0053023459  0.035499582            2 
   15000    1.2384014   -6.9331612    1.2797172 0.0071095399  0.035364125            3 
   16000    1.2281231   -6.9332801    1.6798634 0.0087492883  0.034250519            1 
   17000    1.2156119   -6.8998586    2.1019206  0.010303532  0.034376286            2 
   18000    1.2507613   -6.8928179    2.4742912  0.011455052  0.034102335            4 
   19000    1.2566949   -6.9026059    2.8613598  0.012549823  0.033635578            2 
   20000    1.2493754    -6.933954    3.2097528  0.013373969  0.033175409            2 
   21000    1.2367734    -6.938577    3.6516273  0.014490584  0.033026144            2 
   22000    1.2185019    -6.924448    4.0139056  0.015204187  0.032984343            3 
   23000    1.2021485    -6.947853    4.4011172  0.015946076  0.032906103            1 
   24000    1.2227937   -6.9328048    4.8314268  0.016775787  0.032829052            2 
   25000     1.230951   -6.8991862    5.2227634  0.017409211   0.03280505            1 
   26000    1.1976696   -6.9724707    5.6016371  0.017953965   0.03281565            2 
   27000    1.2137193   -6.9702134    6.0034539  0.018529178  0.032837756            2 
   28000    1.2296157   -6.9468265    6.3945422  0.019031375  0.032861767            1 
   29000    1.2260184   -6.9525998      6.77709  0.019474396  0.032819246            6 
   30000    1.2334016   -6.9470729    7.2252576   0.02007016  0.032849388            5 
   31000    1.2254104   -6.9522865    7.5957194    0.0204186   0.03286523            3 
   32000    1.1722009   -6.9526076    8.0517984  0.020968225  0.032941687            1 
   33000    1.1969521   -6.9712555    8.4484435  0.021334453  0.033027293            2 
   34000    1.2287431   -6.9613323    8.8394765  0.021665383   0.03305729            2 
   35000    1.2029311   -6.9663727    9.1653516  0.021822265  0.033056423            2 
   36000    1.2088344    -6.994008    9.5329883  0.022067102  0.033019289            4 
   37000    1.2061351   -6.9755694    9.8688291  0.022227092  0.032960711            3 
   38000    1.1954701    -7.032069    10.212054  0.022394855  0.032864311            3 
   39000     1.153385   -7.0512461     10.65058   0.02275765  0.032781481            4 
   40000    1.1840712   -7.0301129    11.079398   0.02308208  0.032764025            3 
   41000    1.1938467   -7.0450069    11.382187  0.023134527  0.032731822            5 
   42000    1.2059223   -7.0039068    11.794793  0.023402366  0.032678154            4 
   43000    1.2115965   -7.0003356    12.223765  0.023689467  0.032658935            3 
   44000    1.1713448   -7.0149591    12.559959  0.023787801  0.032625214            2 
   45000    1.1793042   -7.0593361    12.844789  0.023786646  0.032580719            1 
   46000    1.2081621   -7.0173523    13.256754  0.024015859  0.032522847            4 
   47000    1.2131239   -7.0325475    13.553921  0.024031774  0.032461776            3 
   48000    1.1759831   -7.0066411    13.937621  0.024197259  0.032378807            2 
   49000    1.1625896    -7.032245     14.20995  0.024166581  0.032287096            4 
   50000     1.191508   -7.0475595    14.608959  0.024348264  0.032197501            1 
   51000    1.1870214   -7.0467149     15.01711  0.024537762  0.032112501            3 
   52000    1.1883808   -7.0719795     15.36528  0.024623845  0.032047765            2 
   53000    1.1910508   -7.0347727      15.6726  0.024642453  0.031983297            2 
   54000    1.1973265   -7.0767452    15.960104  0.024629791   0.03189746            1 
   55000    1.1791338   -7.0332638    16.339637  0.024757026  0.031801127            4 
   56000    1.1833868   -7.0368435    16.642287  0.024765308  0.031709764            2 
   57000    1.1639625   -7.0482894    17.113164  0.025019245  0.031644306            3 
   58000    1.1799939   -7.0816571    17.464732  0.025093006   0.03159195            2 
   59000    1.1621703   -7.0508289    17.717885  0.025025262  0.031526317            2 
   60000    1.1818436   -7.0765674    18.023902  0.025033197  0.031445496            3 
   61000    1.1946727   -7.0969728    18.319273  0.025026329  0.031363944            2 
   62000    1.1687699    -7.078466    18.725837  0.025169136  0.031277001            1 
   63000    1.1593689   -7.1375069    18.910878  0.025014389  0.031185129            2 
   64000    1.1759137   -7.1078076    19.237395  0.025048692  0.031090914            2 
   65000    1.1509278    -7.149478    19.475066  0.024968033  0.030983224            4 
   66000    1.1655008    -7.074973      19.7501  0.024936995  0.030873759            2 
   67000    1.1668925   -7.1291726    20.196673   0.02512024  0.030764776            2 
   68000    1.1744757   -7.0931873    20.405825  0.025007138  0.030660998            2 
   69000    1.1444642   -7.0957312    20.636065  0.024922783  0.030547026            2 
   70000    1.1465362   -7.1541251    20.865711  0.024840132  0.030426408            1 
   71000    1.1430166    -7.144113    21.101351  0.024766844  0.030295633            5 
   72000    1.1575996   -7.1075062    21.459085  0.024836904  0.030170079            2 
   73000    1.1447777   -7.1352994    21.649455  0.024713989  0.030040218            4 
   74000    1.1533168   -7.1328371     21.92273  0.024687759    0.0299058            3 
   75000    1.1814774   -7.1242174     22.17119  0.024634656  0.029777621            3 
   76000    1.1312425    -7.124898    22.563054   0.02474019  0.029655142            2 
   77000    1.1338982   -7.0728745    22.901304   0.02478496  0.029536089            4 
   78000    1.1347419   -7.1639637    23.023377  0.024597624  0.029420222            5 
   79000     1.163014   -7.1312919    23.221235  0.024494974  0.029302659            2 
   80000    1.1182299   -7.1735298    23.661473  0.024647368  0.029190369            4 
   81000    1.1596366   -7.1657623    23.953906  0.024643936  0.029080263            2 
   82000    1.1423381   -7.2032637    24.049945  0.024441001  0.028969427            4 
   83000     1.142696     -7.17503    24.444682  0.024542853  0.028862436            3 
   84000    1.1347008   -7.1754129    24.821053   0.02462406   0.02876161            5 
   85000     1.147841   -7.1723028    25.136511  0.024643638  0.028672217            3 
   86000    1.1154423   -7.1805686    25.308032  0.024523287  0.028574565            2 
   87000    1.1338365   -7.1954595    25.514996  0.024439652  0.028474599            2 
   88000    1.1382844   -7.1949528    25.660677  0.024299884  0.028368146            3 
   89000    1.1184743   -7.1928085    25.968393  0.024314975  0.028261926            3 
   90000     1.128688    -7.202363    26.346115  0.024394551  0.028161321            3 
   91000    1.1154686   -7.2457096    26.480679  0.024249706  0.028063439            2 
   92000    1.1038522    -7.189659    27.026607  0.024480622   0.02797184            2 
   93000    1.1198439   -7.2342218      27.2072  0.024379211   0.02788496            2 
   94000    1.1312733   -7.2667722    27.420345  0.024308817  0.027793097            5 
   95000     1.110879   -7.2297079    27.739091  0.024332535  0.027706574            3 
   96000    1.1417352   -7.2002991    28.011818  0.024315814  0.027621273            4 
   97000    1.1239637   -7.2277836    28.380494  0.024381868  0.027548819            4 
   98000    1.1162277   -7.2830485    28.422795  0.024169044  0.027471335            4 
   99000    1.1087888    -7.250453     28.70482  0.024162306  0.027389697            2 
  100000     1.097684   -7.2847633    28.981813  0.024151511  0.027307882            2 
  101000    1.0995055   -7.2770186    29.282412  0.024160406  0.027230595            5 
  102000    1.1226372    -7.235873    29.639908  0.024215611  0.027161288            2 
  103000    1.1300576   -7.2837146    29.781677  0.024095208  0.027083549            2 
  104000    1.1193179   -7.3023376    29.998704  0.024037423  0.027006664            4 
  105000    1.0862174   -7.2712334    30.239216  0.023999378  0.026930105            4 
  106000    1.1108268   -7.2774535    30.446087  0.023935603  0.026851911            3 
  107000    1.0996032   -7.3104242      30.6678  0.023884579   0.02677027            2 
  108000     1.084548   -7.3207046    30.930641  0.023866235  0.026691304            3 
  109000    1.0784528   -7.2636553    31.293515  0.023924706  0.026612789            7 
  110000    1.0959001   -7.2889662    31.590404  0.023932124  0.026542579            4 
  111000    1.0808953   -7.3063903    31.886954  0.023939154  0.026474497            2 
  112000     1.079824   -7.3058972    31.867234   0.02371074  0.026400584            7 
  113000    1.0881294   -7.2968256    32.188713  0.023737989  0.026320305            9 
  114000     1.052874   -7.3217466    32.396201  0.023681433  0.026245187            4 
  115000    1.0897225   -7.2890047    32.632503  0.023646741  0.026168471            2 
  116000     1.085541   -7.3047716    32.515194  0.023358616  0.026082741            4 
  117000    1.0908834   -7.3372721    32.766076  0.023337661  0.025994496            3 
  118000    1.0484548   -7.3217689    32.996232  0.023302424  0.025906463            2 
  119000    1.0760399   -7.3375266    33.149463   0.02321391  0.025817118            2 
  120000    1.0662985   -7.3960586    33.275121  0.023107723  0.025725849            4 
  121000    1.0797091   -7.3880314    33.306108  0.022938091   0.02563253            4 
  122000    1.0928977   -7.4117529    33.725518  0.023036556   0.02553944           10 
  123000    1.0501396   -7.4030058    33.765841  0.022876586  0.025448365            4 
  124000      1.07758   -7.3341144    34.072448   0.02289815  0.025356948            7 
  125000    1.0791373   -7.3938817    34.060215   0.02270681  0.025266339            6 
  126000    1.0769088   -7.3718989    34.433709  0.022773617  0.025175801            4 
  127000    1.0817009   -7.3239043    34.739286  0.022794807  0.025085798            3 
  128000    1.0614537   -7.4037009    34.868217  0.022700662  0.024996415            2 
  129000    1.0528956   -7.3830227     35.13139  0.022694696  0.024909652            6 
  130000     1.056911    -7.365873    35.377553  0.022677918  0.024824174            5 
  131000    1.0426637   -7.4141016    35.353133   0.02248927  0.024736839            2 
  132000    1.0715105   -7.4236963    35.615374  0.022484453  0.024652609            5 
  133000    1.0433215    -7.418415    35.788382  0.022423798  0.024568319            3 
  134000    1.0635775   -7.4004047    36.041097  0.022413618  0.024486444            3 
  135000    1.0787558   -7.4464371    36.101135  0.022284651  0.024401853            3 
  136000    1.0582371   -7.4561049    36.298716   0.02224186  0.024318434            4 
  137000     1.026901   -7.4553804    36.755069  0.022357098  0.024236223            2 
  138000    1.0375612   -7.4261741    36.996932  0.022341143  0.024160112            4 
  139000    1.0371717   -7.4382286    37.036051  0.022203867  0.024084713            4 
  140000    1.0331195   -7.4458366    37.207137  0.022147105  0.024007512            8 
  141000    1.0318309   -7.4383001    37.407178  0.022108261  0.023930865            1 
  142000    1.0655014   -7.4446221    37.625573  0.022080735  0.023853967            1 
  143000    1.0388594   -7.4788111    37.828617  0.022044648   0.02378159            3 
  144000    1.0541416   -7.4654826     37.99991  0.021990688  0.023709018            2 
  145000    1.0435899   -7.4521926    38.187679  0.021946942  0.023636398            2 
  146000    1.0219249   -7.4572229    38.390097  0.021912156  0.023563589            4 
  147000    1.0058766   -7.4355225    38.525086  0.021839618  0.023489803            5 
  148000    1.0380873   -7.4535131    38.661436  0.021768826  0.023416178            6 
  149000     1.042728   -7.4853926    38.765154  0.021680735  0.023342844            7 
  150000    1.0285291   -7.4658133    38.975157  0.021652865  0.023268787           12 
  151000    1.0007606   -7.4888723    39.270715   0.02167258  0.023197095            8 
  152000    1.0061847   -7.4701141    39.541886  0.021678665  0.023127085            9 
  153000    1.0234164   -7.4794714    39.604793  0.021571238  0.023057109            5 
  154000    1.0414021   -7.4854458    39.966686  0.021626994  0.022989712            4 
  155000    1.0713801   -7.5083458    40.097447  0.021557767  0.022924296            3 
  156000    1.0245604   -7.4698728    40.251386  0.021501809  0.022858721            3 
  157000    1.0395995   -7.4509505    40.503653  0.021498754  0.022792003            3 
  158000    1.0116266   -7.5114205    40.475757  0.021347973  0.022723018            5 
  159000    1.0219441   -7.5095553    40.406746   0.02117754  0.022650957           12 
  160000    1.0193231   -7.5448481    40.457007  0.021071358    0.0225778            7 
  161000    1.0385936    -7.524386      40.7157  0.021074379  0.022504137            4 
  162000   0.99948911   -7.5255876    40.867288  0.021022268  0.022432365            6 
  163000    1.0108982   -7.5345995    41.142348   0.02103392  0.022360368            2 
  164000   0.99204188   -7.5421591    41.244352  0.020957496  0.022288535            4 
  165000     1.008157   -7.5636246     41.31691  0.020867126  0.022215571            5 
  166000    1.0315502   -7.5354379    41.496218  0.020831435  0.022144489            6 
  167000    1.0233958   -7.5546385    41.607968  0.020762459  0.022074162            3 
  168000    1.0186556   -7.5314068    41.852013  0.020759927  0.022004545            4 
  169000   0.97230492   -7.5680448    42.015587  0.020717745  0.021937242            3 
  170000    1.0025993   -7.5605277    42.289344   0.02073007  0.021871516            2 
  171000    1.0013262   -7.5348111    42.416232  0.020670679  0.021804095            9 
  172000   0.98194921   -7.5894658    42.553041  0.020616784  0.021737843            5 
  173000    1.0082896   -7.6107278    42.762734  0.020598619  0.021673853            3 
  174000   0.99251638   -7.6393121     42.93377   0.02056215  0.021610858            7 
  175000   0.99607821   -7.6226922    43.041779  0.020496085  0.021546259            9 
  176000   0.98571856   -7.6732554    43.060469   0.02038848  0.021481742            4 
  177000   0.98398093   -7.5823793    43.466652  0.020464525  0.021417311            3 
  178000    0.9902565   -7.5829876    43.563664  0.020394974  0.021355498            3 
  179000   0.95952131   -7.6688341    43.569906  0.020283942  0.021293284            6 
  180000   0.98210754   -7.6031388    43.855483  0.020303464  0.021229553            3 
  181000   0.97339178   -7.6245014    43.712222  0.020125332  0.021164445            7 
  182000   0.97888944   -7.6123411    43.880255  0.020091692  0.021099806            1 
  183000   0.98574194   -7.6304642    44.063721  0.020065447  0.021035971            4 
  184000   0.96849537   -7.6490271    44.289976  0.020058866  0.020973098            4 
  185000   0.98248706   -7.6425524    44.656623  0.020115596  0.020912239            3 
  186000   0.96417476    -7.677169    44.647191  0.020003222   0.02085152            4 
  187000   0.97262743   -7.6833462    44.616082   0.01988239   0.02078953           11 
  188000   0.96594946    -7.690169    44.853689  0.019881954  0.020728553            7 
  189000   0.95334346   -7.6625613    45.157048  0.019910515  0.020669674           10 
  190000   0.96572544   -7.6739076    45.226304  0.019836098  0.020611577            4 
  191000   0.97653743   -7.6624733    45.422033  0.019817641  0.020554265            6 
  192000   0.96855353   -7.7113039    45.271479   0.01964908  0.020494911            3 
  193000    0.9656013   -7.7198089    45.457611  0.019627639  0.020432844            5 
  194000   0.96051721   -7.7265255    45.601539   0.01958829  0.020371347            5 
  195000   0.97848535   -7.7061701     45.75348  0.019552769  0.020311068            8 
  196000    0.9466504   -7.7161169    45.778006  0.019463438  0.020251146           14 
  197000   0.94251997   -7.7307172    45.931185  0.019429435  0.020190841           12 
  198000   0.95239562   -7.7357687     45.87851  0.019309137  0.020129896            7 
  199000   0.93916308   -7.7069302    46.069595  0.019292125  0.020067845            3 
  200000   0.95815749   -7.7433016    45.930387  0.019137661   0.02000456            7 
  201000   0.96831267    -7.702854    46.078195  0.019103729  0.019941448            6 
  202000    0.9349276    -7.749553    46.244439  0.019077739  0.019878434            7 
  203000   0.93728825   -7.7179818    46.287655    0.0190015  0.019814777           11 
  204000     0.936477   -7.7296627    46.411279  0.018958856  0.019751064            6 
  205000   0.96735837   -7.7266718    46.433887  0.018875564  0.019687852            5 
  206000   0.93064595   -7.7384507    46.450798  0.018790776  0.019624595            5 
  207000   0.94439141   -7.7917019    46.504007   0.01872142   0.01956008            4 
  208000   0.93492548   -7.7767102    46.562698  0.018654927  0.019493908            9 
  209000   0.95296984   -7.7427165    46.608716  0.018584017  0.019427234           11 
  210000   0.93695568    -7.728094    46.937349  0.018625932  0.019361858            4 
  211000   0.95710648   -7.7637444    47.023712  0.018571766  0.019298987            3 
  212000   0.91563945   -7.7915999    46.983135  0.018468213  0.019235142            6 
  213000   0.92105198   -7.7897252    47.129126  0.018438625  0.019171492            2 
  214000   0.93439109   -7.7237611    47.316552  0.018425448   0.01910796            7 
  215000     0.933508   -7.7769919    47.201221  0.018295047  0.019043847            6 
  216000   0.94594844   -7.8108447    47.182076  0.018202961  0.018978779           30 
  217000    0.9164489   -7.8142332    47.109039  0.018091029  0.018914017            4 
  218000   0.94859421   -7.8236096    47.437154  0.018133468  0.018848369            7 
  219000   0.91676545    -7.831144    47.421052   0.01804454  0.018784136           10 
  220000    0.9150315   -7.8201893    47.465112  0.017979209  0.018718802            6 
  221000   0.92161586   -7.8178482    47.679565   0.01797872  0.018654608            2 
  222000   0.93251721   -7.8090672    47.817393  0.017949472  0.018592567            2 
  223000   0.90653992   -7.8103868    47.955132  0.017920453  0.018530174            5 
  224000   0.89631284   -7.8392661    48.025523  0.017866638  0.018468614            8 
  225000   0.90543582   -7.8540244    48.155635   0.01783542   0.01840696            9 
  226000   0.91882849    -7.830364    48.086351  0.017730955  0.018345097            6 
  227000   0.91393631   -7.8372273    48.285084  0.017725802  0.018283399            5 
  228000   0.92254055    -7.828773    48.374535  0.017680751  0.018222044           12 
  229000   0.90567752   -7.8698588    48.267294  0.017564517  0.018160112            7 
  230000   0.91306724   -7.8612261     48.45371  0.017555692   0.01809824           10 
  231000   0.88878959   -7.8723465    48.603279  0.017533651  0.018037428            7 
  232000   0.88065172   -7.8569617     48.73517  0.017505449   0.01797658           12 
  233000   0.88888955   -7.8908776    48.439826  0.017324687  0.017914802            4 
  234000   0.89115299   -7.9163736    48.451754  0.017254898  0.017852497            6 
  235000   0.88434272   -7.8775229    48.686274  0.017264636  0.017790378            5 
  236000   0.89918359    -7.904892    48.654578  0.017180289  0.017729247            4 
  237000   0.89859191   -7.8662686    48.876172  0.017185715  0.017667888            8 
  238000   0.88484199   -7.8965171    48.850146  0.017104393  0.017606544            4 
  239000   0.87376606    -7.905546    48.909796  0.017053625  0.017545418            7 
  240000   0.87141259   -7.9188386    48.777214  0.016936532  0.017483524           11 
  241000   0.88728187   -7.9130847    48.865694  0.016896851    0.0174206            5 
  242000   0.88254013   -7.9180001     48.93817  0.016851987  0.017357862            4 
  243000   0.89425473   -7.9600678    48.786463  0.016730611  0.017295539            4 
  244000   0.86707689   -7.9625508    48.926824  0.016709981  0.017233088            4 
  245000   0.87107251   -7.9641958    49.004598  0.016668231  0.017171156            4 
  246000   0.87469102   -7.9168975    49.153155  0.016650798   0.01711016            5 
  247000   0.86777174   -7.9412215    49.133036  0.016576598     0.017048            6 
  248000   0.85809135    -7.983808    49.144995  0.016513775  0.016985734            5 
  249000   0.87483972   -7.9764945    49.162566  0.016453335  0.016923936           12 
  250000   0.86334894   -7.9920384    49.096597  0.016365532  0.016861969            9 
  251000   0.86917327   -7.9723294    49.247122  0.016350306  0.016801037           12 
  252000   0.86888114   -8.0039429    49.493123  0.016366774  0.016740522            8 
  253000   0.86624946   -7.9714241    49.406658  0.016273603  0.016679868           18 
  254000   0.87273604   -7.9607471     49.59426  0.016271083  0.016620059            7 
  255000   0.86745406   -7.9837471    49.771929  0.016265336  0.016561422           10 
  256000   0.84809128    -8.001848      49.7078  0.016180924  0.016502609            8 
  257000    0.8480549    -7.995648    49.810398  0.016151231  0.016443891            5 
  258000   0.86026143   -8.0103186    49.708553  0.016055734   0.01638497            6 
  259000   0.85227781   -8.0056236    49.837938  0.016035372  0.016326308            6 
  260000   0.85443214   -8.0036323    50.015015  0.016030454  0.016268856            7 
  261000   0.83077714   -8.0130116    49.913313  0.015936562  0.016211728            5 
  262000   0.85215852   -8.0049802    49.959721  0.015890497  0.016154215           13 
  263000    0.8417805   -8.0274587    50.283429  0.015932645  0.016097203            9 
  264000   0.85174923   -8.0344215    50.037497  0.015794664  0.016039843           10 
  265000   0.84308987   -8.0188759    50.094637  0.015753031  0.015982575            9 
  266000   0.83190443   -8.0323724     50.15383  0.015712353   0.01592495           12 
  267000   0.84990441   -8.0278029    50.247877  0.015682858  0.015867927            7 
  268000   0.85351493   -8.0471642     50.15353  0.015595003  0.015811142           23 
  269000   0.83993053   -8.0670376    50.097933  0.015519806  0.015754077           21 
  270000   0.84558735   -8.0467407    50.172377  0.015485301    0.0156971           22 
  271000   0.82485587   -8.0879468    50.235058  0.015447435  0.015640596           17 
  272000   0.83697811   -8.0870764    50.212933  0.015383864  0.015583527           81 
  273000   0.84947916   -8.0878462    50.324948  0.015361706  0.015526785           32 
  274000   0.81891061   -8.1057902    50.259687  0.015285793  0.015470114            9 
  275000   0.84124772   -8.0736955    50.485785  0.015298723  0.015413725           12 
  276000   0.84171913   -8.1263013    50.299502  0.015187048  0.015357977           13 
  277000    0.8271383   -8.0977459    50.451042  0.015177811  0.015301893            9 
  278000   0.82384211   -8.0958643    50.584582  0.015163244  0.015246497           15 
  279000   0.83675327   -8.1131955     50.44189  0.015066275  0.015191239           16 
  280000   0.80415595   -8.0937524    50.461497  0.015018303  0.015135628           22 
  281000   0.81395729   -8.1401903    50.440442  0.014958613  0.015080098           20 
  282000    0.8176725   -8.1387196    50.466797  0.014913356  0.015024417           21 
  283000    0.8107471   -8.1205573    50.392194  0.014838691  0.014968548           17 
  284000   0.80933476   -8.1025184    50.640884  0.014859414  0.014913329           15 
  285000   0.81616698   -8.1438316    50.413066  0.014740663   0.01485791           23 
  286000   0.81863909   -8.1413145    50.438827  0.014696628  0.014802719            8 
  287000    0.8091142   -8.1758798    50.610073  0.014695143  0.014748121           12 
  288000   0.81019119   -8.1844968    50.579129  0.014635164  0.014693541           14 
  289000   0.82495947   -8.1504465    50.611806  0.014593946  0.014639356           16 
  290000   0.80872735   -8.1634163    50.755627   0.01458495  0.014584925           19 
  291000   0.80561643   -8.1981804    50.831861  0.014556661  0.014530959           24 
  292000    0.7998766   -8.1934406    50.637628  0.014451378  0.014477177           16 
  293000   0.80448171   -8.1808935    50.740062  0.014431189  0.014423277           50 
  294000   0.81261168   -8.2123314    50.536056  0.014324279  0.014369837           65 
  295000   0.78185239   -8.2278438    50.772478  0.014342508  0.014316261           35 
  296000    0.7843134   -8.1911189    50.733133  0.014282976  0.014262697           22 
  297000   0.78887486    -8.209481    50.722869  0.014232006  0.014209528           53 
  298000   0.78227513   -8.2287271    50.678297  0.014171783  0.014156263           47 
  299000   0.78795653   -8.2365915    50.780935  0.014152992  0.014103067           35 
  300000   0.79160786   -8.2389951     50.83322  0.014120339  0.014050023           41 
  301000   0.79001364   -8.2321744    50.723576  0.014043072  0.013997205           43 
  302000    0.8150932    -8.235198    50.893005  0.014043324  0.013944795           57 
  303000   0.80055692   -8.2329521    50.822856  0.013977683  0.013892852           46 
  304000   0.78177693   -8.2612417    50.885262  0.013948811  0.013841073           40 
  305000   0.78619468   -8.2551378    50.985541  0.013930476  0.013789417           30 
  306000   0.78512861   -8.2600268    50.951866   0.01387578  0.013738108           43 
  307000   0.78030444   -8.2716719    50.964834  0.013834103  0.013686475           39 
  308000   0.78106538    -8.236045    51.017105  0.013803329  0.013635163           36 
  309000   0.76359774   -8.2417748    51.042035  0.013765382  0.013584038           37 
  310000   0.76986211   -8.2822084    50.871318  0.013675086  0.013532798           68 
  311000   0.77320481   -8.2800702     50.96389  0.013655919  0.013482115           28 
  312000    0.7799087   -8.2870839    50.961185  0.013611428  0.013431169           69 
  313000   0.76488371   -8.2615485    51.011564  0.013581354  0.013380642          103 
  314000   0.76700824    -8.260825    51.057552  0.013550306  0.013330172           60 
  315000   0.76129813   -8.2903831    50.903779  0.013466608  0.013279635           44 
  316000   0.75777029    -8.316947    50.934151  0.013432002  0.013229091           52 
  317000    0.7626164   -8.3306534    51.009077  0.013409326  0.013178943           37 
  318000   0.77308623   -8.3137436    50.823806  0.013318607  0.013128822           31 
  319000   0.77059649   -8.3073324     50.96699  0.013314261  0.013078997           26 
  320000   0.75776317   -8.2840364    50.943611  0.013266565  0.013029285           30 
  321000   0.76300882   -8.3379172    50.927274  0.013220995  0.012979708           71 
  322000   0.75209151    -8.343013    50.966079  0.013189979  0.012930312           69 
  323000   0.75699784    -8.335227    50.962486  0.013148216  0.012881059           59 
  324000   0.73751442    -8.331747    50.856535  0.013080385  0.012831966           52 
  325000   0.73935741   -8.3579323    50.860791  0.013041229  0.012783011           61 
  326000   0.75740578   -8.3472148    50.936687  0.013020625  0.012734224          104 
  327000   0.76286283   -8.3597651    50.967965  0.012988778  0.012685535           88 
  328000   0.74496761   -8.3825419    50.970147  0.012949732  0.012637184          121 
  329000   0.73299388   -8.3911516    50.850856  0.012880156  0.012588668           73 
  330000   0.74290883    -8.363783    50.843835  0.012839352  0.012540341           68 
  331000   0.74624013   -8.3917743    50.812614  0.012792702  0.012492321          104 
  332000   0.73526954   -8.3776337    50.862347  0.012766653  0.012444213           56 
  333000   0.73495633    -8.382155     50.89594  0.012736722  0.012396172           47 
  334000   0.74858751   -8.3868587    50.848262  0.012686692  0.012348466          116 
  335000   0.72379688   -8.4120254    50.985079  0.012682855  0.012300921           46 
  336000   0.72039114   -8.3793841    50.910815   0.01262669  0.012253631          109 
  337000   0.72229939   -8.3889042    50.962339  0.012601963  0.012206519           50 
  338000   0.71761063   -8.3859651    50.857826  0.012538912  0.012159632           50 
  339000   0.72318526   -8.3847071    50.956897  0.012526278  0.012113018           66 
  340000   0.72206786   -8.4178398    50.841582  0.012461172  0.012066337          185 
  341000   0.72463127   -8.4074561    50.890045  0.012436472  0.012019906          148 
  342000   0.72093312   -8.4015702    50.898158  0.012402085  0.011973661          169 
  343000   0.72809701   -8.3969001    50.889173  0.012363745  0.011927674          148 
  344000   0.72975134   -8.3920785    50.913133  0.012333608  0.011881644           66 
  345000   0.72462765   -8.4088526    50.873289  0.012288234  0.011836071          156 
  346000   0.71582669   -8.4358613    50.781229  0.012230546  0.011790551          170 
  347000   0.71666934   -8.3987781    50.962804  0.012238906  0.011745277          167 
  348000   0.70359613   -8.4258101    50.972584  0.012206078  0.011699959          153 
  349000   0.71230372   -8.4212677    50.849753  0.012141775  0.011654761          146 
  350000    0.7278304   -8.4341857    50.928744  0.012125891  0.011609711          119 
  351000   0.71329982   -8.4392408    50.945798  0.012095394  0.011565074          120 
  352000   0.70898837   -8.4115196    50.964453  0.012065448  0.011520625          169 
  353000   0.69634252   -8.4318439    51.010088  0.012042042  0.011476366          136 
  354000   0.70764286   -8.4477845    50.922403  0.011987383  0.011432243          191 
  355000   0.70468924   -8.4338694    50.849749  0.011936561  0.011388246          186 
  356000    0.7137977   -8.4655797    50.907619  0.011916577  0.011344224          157 
  357000   0.69709866   -8.4668862    50.890851  0.011879284  0.011300481          197 
  358000   0.69284335   -8.4622049    50.726385  0.011807818  0.011256754          182 
  359000   0.68951982   -8.4697384    50.796381  0.011791175  0.011213227          120 
  360000    0.6978693   -8.4735596    50.700928  0.011736326  0.011169765          171 
  361000   0.69022234   -8.4753093    50.724117  0.011709168  0.011126456          154 
  362000   0.69142193   -8.4823943    50.734075  0.011679115  0.011083246          218 
  363000    0.6909719   -8.5049709    50.711429  0.011641742  0.011040416          127 
  364000   0.68225778    -8.495668    50.770438  0.011623269  0.010997617          188 
  365000   0.68385755   -8.5161696    50.673291  0.011569245   0.01095492          236 
  366000   0.68229025   -8.5337956    50.739652  0.011552744  0.010912401          270 
  367000    0.6848991   -8.4914042    50.886885  0.011554697   0.01087007          215 
  368000   0.67323635   -8.5116177    50.677676  0.011475923  0.010827891          186 
  369000   0.68367331   -8.5256109    50.664808  0.011441917  0.010786028          255 
  370000   0.67205233   -8.5278284    50.760541  0.011432554  0.010744181          205 
  371000   0.69489229   -8.5215302    50.638434  0.011374311  0.010702629          265 
  372000   0.66097652   -8.5610448    50.695785  0.011356583  0.010661174          214 
  373000   0.68961314   -8.5178838    50.714889  0.011330404  0.010620053          169 
  374000   0.66088178   -8.5337743    50.680623  0.011292474  0.010579089          195 
  375000   0.66455833   -8.5541842    50.841878  0.011298195  0.010538273          307 
  376000   0.66999677   -8.5705853    50.689857  0.011234454  0.010497568          262 
  377000   0.66197198   -8.5676509    50.747014  0.011217289  0.010457226          332 
  378000   0.66985309   -8.5692755    50.612684  0.011157999  0.010416966          327 
  379000   0.66923325   -8.5570495    50.644527   0.01113556   0.01037699          332 
  380000   0.67143466   -8.5695391    50.711577   0.01112096  0.010337079          470 
  381000   0.66514036   -8.5761326    50.817631  0.011114967  0.010297642          342 
  382000    0.6625864    -8.556886    50.732968  0.011067401  0.010258216          260 
  383000   0.63924556   -8.5887011    50.681745   0.01102736  0.010218916          282 
  384000   0.66949669    -8.586089     50.65943    0.0109938  0.010179791          315 
  385000   0.66097264   -8.5817863    50.739649  0.010982608  0.010140874          306 
  386000   0.64275759   -8.5933235    50.693599  0.010944214  0.010102119          339 
  387000   0.66099266   -8.5955614    50.703309  0.010918025  0.010063515          293 
  388000   0.64460785   -8.6046579     50.75164  0.010900266  0.010025076          393 
  389000   0.64042238   -8.6011789    50.587511  0.010837085 0.0099866578          292 
  390000   0.64381891   -8.5919525    50.617274  0.010815657 0.0099484695          283 
  391000   0.64013221   -8.6174541    50.604151  0.010785198 0.0099104908          295 
  392000   0.64283262   -8.5926484    50.640634  0.010765441 0.0098725504          394 
  393000   0.65327749   -8.5938079    50.596844  0.010728763 0.0098349718          341 
  394000   0.63135735   -8.6349672    50.679307  0.010718974 0.0097975865          309 
  395000   0.64007147   -8.5876219    50.611654  0.010677564 0.0097603586          343 
  396000    0.6249053   -8.6100957    50.674865  0.010663902  0.009723374          328 
  397000   0.62765207   -8.6365684      50.7254  0.010647649 0.0096864643          361 
  398000   0.63774362   -8.6568505    50.565491  0.010587414 0.0096498159          370 
  399000   0.62880044   -8.6312507    50.598213  0.010567714 0.0096132606          327 
  400000   0.62924255   -8.6358703    50.680442  0.010558425 0.0095768737          312 
  401000   0.61757857   -8.6440873      50.7567  0.010547943 0.0095407217          316 
  402000   0.64066578   -8.6529947    50.653971  0.010500409 0.0095047388          437 
  403000   0.64243105   -8.6401511    50.746041  0.010493391 0.0094688755          273 
  404000   0.63808742   -8.6647247     50.60374  0.010438065 0.0094330864          277 
  405000   0.61732817   -8.6421157    50.515869  0.010394212 0.0093974962          340 
  406000   0.62285794   -8.6432083    50.598783  0.010385629 0.0093620292          309 
  407000   0.60626825   -8.6389339    50.605435  0.010361473 0.0093267417          279 
  408000   0.61237852   -8.6644619    50.605249  0.010336039  0.009291626          340 
  409000   0.60758173   -8.6595981    50.593842  0.010308444 0.0092566646          365 
  410000   0.61770868   -8.6579705    50.599491  0.010284449 0.0092217961          337 
  411000   0.62702395   -8.6517243    50.592363  0.010257981  0.009187048          300 
  412000   0.59832918   -8.6847531    50.539689  0.010222429 0.0091525119          325 
  413000   0.62327193   -8.6901002    50.489303  0.010187511 0.0091181819          391 
  414000   0.58769795    -8.670787    50.579701  0.010181099  0.009083835          397 
  415000    0.6094181   -8.6747772    50.567991  0.010154215 0.0090496356          337 
  416000   0.60357706   -8.6884177     50.43767    0.0101037 0.0090156178          327 
  417000   0.61619244   -8.6713349    50.565333  0.010104983 0.0089817367          370 
  418000   0.61226492     -8.69064    50.503442  0.010068469 0.0089480873          392 
  419000   0.60007833    -8.668833    50.480222  0.010039821 0.0089145191          366 
  420000    0.6001411    -8.704054    50.423688    0.0100047 0.0088810939          385 
  421000   0.61717357   -8.7084263    50.544712  0.010004892 0.0088477978          315 
  422000   0.58848159   -8.6915754    50.543987 0.0099810401 0.0088148076          367 
  423000   0.58113195   -8.7039976    50.504101 0.0099495865 0.0087818973          413 
  424000   0.58694713   -8.7050326    50.380009 0.0099017313 0.0087490628          405 
  425000   0.57063309      -8.7102    50.545477 0.0099108777 0.0087164175          411 
  426000   0.58953753   -8.7161409    50.461479 0.0098711814 0.0086838914          440 
  427000   0.58070097   -8.7217436     50.33916 0.0098241921 0.0086515579          446 
  428000   0.59054793   -8.7279589    50.422247 0.0098174156 0.0086193431          454 
  429000   0.58505167   -8.7475213    50.477861 0.0098053342  0.008587268          426 
  430000   0.58572092   -8.7375731    50.441436 0.0097754721 0.0085552962          345 
  431000   0.57219107   -8.7425062    50.396498 0.0097441025 0.0085235154          481 
  432000   0.57353772   -8.7317194    50.470698 0.0097358599 0.0084918092          344 
  433000   0.57814686   -8.7425318    50.383617 0.0096966161 0.0084603542          451 
  434000   0.57821797   -8.7374425    50.391667 0.0096758192 0.0084289756          394 
  435000   0.55359454   -8.7433029    50.378281 0.0096510116  0.008397856          390 
  436000   0.57381954   -8.7631476    50.428997 0.0096385698 0.0083668102          355 
  437000   0.57357709   -8.7393071    50.369998 0.0096052628 0.0083358875          349 
  438000   0.57805759   -8.7166841    50.348339 0.0095792121 0.0083051742          461 
  439000   0.57097754   -8.7676029     50.32966 0.0095538459 0.0082745869          452 
  440000   0.57361463    -8.763229    50.289799 0.0095245831 0.0082440653          435 
  441000   0.56255129   -8.7534062    50.365087 0.0095172122 0.0082137221          417 
  442000   0.56489365   -8.7571983    50.352662 0.0094933375 0.0081834936          518 
  443000   0.55531321   -8.7771837    50.299563 0.0094619192 0.0081533614          388 
  444000   0.55499917   -8.7767916    50.334752 0.0094472132 0.0081233942          487 
  445000    0.5542134   -8.7629765    50.266477 0.0094131979 0.0080935594          450 
  446000   0.55738457   -8.7738516    50.351208 0.0094079238 0.0080638567          355 
  447000    0.5531841   -8.7780589    50.321734 0.0093813822 0.0080342866          429 
  448000   0.54904227   -8.7792284    50.263198 0.0093495531 0.0080049318          382 
  449000   0.54799013   -8.7853488    50.283014  0.009332408 0.0079756978          408 
  450000   0.55467497   -8.7793154    50.282024 0.0093114859  0.007946669          363 
  451000   0.56226398     -8.78329    50.298865 0.0092939514 0.0079177165          393 
  452000   0.53608926   -8.7746941    50.303134 0.0092741766 0.0078889233          391 
  453000   0.54890935   -8.8095629    50.198996 0.0092345468 0.0078602889          492 
  454000    0.5332467   -8.7949816    50.263406  0.009226029 0.0078317439          455 
  455000   0.53084345   -8.7842799    50.220936 0.0091979736 0.0078033314          440 
  456000   0.53798402   -8.7983075    50.297754 0.0091918411 0.0077751056          338 
  457000   0.53433437   -8.8054226    50.276631 0.0091678759 0.0077469874          457 
  458000   0.53031359   -8.8237746    50.271174 0.0091468657 0.0077189342          494 
  459000   0.53248352   -8.8038807    50.308032 0.0091336296 0.0076911345          413 
  460000   0.53663922   -8.8053223    50.305687 0.0091133492 0.0076633702          480 
  461000   0.53745732   -8.8155275    50.196644 0.0090738692 0.0076357865          463 
  462000   0.53523818   -8.8134249    50.180752 0.0090513621 0.0076083055          477 
  463000   0.52887076   -8.8223431    50.267722 0.0090474661 0.0075810783          456 
  464000   0.52902325   -8.8213256    50.304859  0.009034637 0.0075538429          391 
  465000   0.52111719   -8.8100607    50.226682 0.0090011975 0.0075267345          424 
  466000   0.52523329    -8.843144    50.211142 0.0089791026 0.0074997353          447 
  467000   0.52422716   -8.8205144    50.299503 0.0089756429 0.0074729636          416 
  468000   0.51836085   -8.8323526    50.156157 0.0089309396 0.0074462679          369 
  469000   0.51776294   -8.8392915    50.207724 0.0089210597  0.007419639          388 
  470000   0.51758632   -8.8418992    50.172781 0.0088958832  0.007393123          439 
  471000   0.51473465   -8.8414173    50.164634 0.0088755546 0.0073667735          483 
  472000   0.51857082   -8.8262113    50.209175 0.0088646142 0.0073405265          426 
  473000   0.51440787   -8.8411681    50.201077 0.0088444463 0.0073144243          343 
  474000   0.50624922   -8.8482096    50.144121 0.0088157738 0.0072884381          426 
  475000   0.51613992   -8.8412051    50.168569 0.0088015033 0.0072625267          335 
  476000   0.50665537   -8.8746694    50.156537 0.0087809064 0.0072367333          506 
  477000   0.49478694   -8.8672706     50.07096 0.0087475472 0.0072110475          511 
  478000   0.50578257    -8.849503    50.150773 0.0087431613 0.0071854638          444 
  479000   0.50756777   -8.8617281    50.101588 0.0087163515 0.0071600345          464 
  480000   0.51254563    -8.864392    50.103934 0.0086985997  0.007134723          485 
  481000   0.49297888   -8.8691569    50.063424 0.0086734969 0.0071094473          428 
  482000   0.49421481   -8.8587236    50.103404 0.0086624143 0.0070843588          514 
  483000   0.49429934   -8.8687901    50.141695 0.0086510861 0.0070594089          439 
  484000   0.49799788   -8.8765249    50.056455 0.0086185356 0.0070345191          449 
  485000   0.49433875   -8.8870773     50.08549 0.0086057543 0.0070097732          441 
  486000   0.48272327   -8.8913816    50.152081 0.0085994653 0.0069851433          486 
  487000   0.48061059    -8.869459    50.068089 0.0085674348 0.0069606017          503 
  488000   0.47509941   -8.8934389    50.037825 0.0085447105 0.0069361927          414 
  489000   0.48752994   -8.8842777    50.090997  0.008536298 0.0069118803          508 
  490000   0.48364188   -8.8872885    49.968857 0.0084981049 0.0068877008          520 
  491000   0.47562524   -8.8850655    50.061557 0.0084965304 0.0068636009          410 
  492000   0.47828144   -8.9063721    50.082213 0.0084827596 0.0068395236          465 
  493000   0.47994356    -8.884848    49.986132 0.0084493123 0.0068156453          426 
  494000   0.46951117   -8.9107937    50.047019 0.0084424795 0.0067918434          410 
  495000   0.47552976   -8.9094079    50.105803 0.0084353204 0.0067681958          463 
  496000   0.46787714   -8.9027653    50.040046 0.0084072657 0.0067446947          488 
  497000   0.47866773   -8.8898167    50.155389 0.0084096897 0.0067212902          441 
  498000   0.46904114   -8.9036363    50.057543 0.0083764296 0.0066979358          491 
  499000   0.46936461   -8.8924357    50.035748 0.0083560033 0.0066747038          537 
  500000   0.47762349     -8.91317    50.043276  0.008340546 0.0066515997          455 
  501000   0.47121974   -8.9144754    50.006374 0.0083177601 0.0066285669          563 
  502000   0.45633704   -8.9255698    50.015979 0.0083027853 0.0066056533          475 
  503000   0.46527951   -8.9073687    50.032003 0.0082889336 0.0065828707          492 
  504000   0.45846869   -8.9338663    49.978201 0.0082635915 0.0065601686          597 
  505000   0.46672185   -8.9289552    49.959826 0.0082441956 0.0065375765          551 
  506000    0.4613976   -8.9260622    49.903381  0.008218607 0.0065150644          461 
  507000   0.45448253   -8.9253129    50.065097 0.0082289771 0.0064926344          507 
  508000   0.45566047   -8.9422991     49.95003 0.0081939026 0.0064703227          541 
  509000   0.45535365   -8.9369288    49.850975 0.0081615872 0.0064480477          469 
  510000    0.4531483    -8.922621    49.993375 0.0081688521 0.0064259201          508 
  511000   0.44776569   -8.9357356    49.929735 0.0081424878 0.0064038605          479 
  512000    0.4542267   -8.9338435    49.984721 0.0081355341  0.006381927          498 
Loop time of 1296.59 on 48 procs for 500000 steps with 4000 atoms

Performance: 66636.344 tau/day, 385.627 timesteps/s
99.4% CPU use with 48 MPI tasks x no OpenMP threads

MPI task timing breakdown:
Section |  min time  |  avg time  |  max time  |%varavg| %total
---------------------------------------------------------------
Pair    | 92.14      | 98.762     | 107.11     |  31.3 |  7.62
Neigh   | 8.9227     | 9.2508     | 9.7827     |   6.4 |  0.71
Comm    | 78.794     | 89.076     | 97.12      |  38.4 |  6.87
Output  | 1.1423     | 1.1432     | 1.1712     |   0.4 |  0.09
Modify  | 1082.6     | 1086.5     | 1091.2     |   5.3 | 83.80
Other   |            | 11.87      |            |       |  0.92

Nlocal:        83.3333 ave          91 max          76 min
Histogram: 2 0 7 5 12 5 8 2 5 2
Nghost:        2375.54 ave        2393 max        2351 min
Histogram: 2 2 3 5 3 10 8 2 8 5
Neighs:        16342.9 ave       19584 max       13543 min
Histogram: 4 2 3 7 12 8 5 4 1 2
FullNghs:      32684.4 ave       35923 max       29805 min
Histogram: 2 3 4 9 8 10 5 2 3 2

Total # of neighbors = 1568851
Ave neighs/atom = 392.21275
Neighbor list builds = 26638
Dangerous builds = 0

#clear
#
#next RN
#
#jump SELF
Total wall time: 0:21:40
