
units lj                  # Use reduced LJ style units
atom_style atomic         # Uncharged point particles
atom_modify map hash      # Needed for indexing of clusters etc
                          # Used to be able to find where atoms are in relation to each other.

# Define a lattice with which to populate the simulation cell. With units
# set to 'lj' the second argument to the lattice command is the reduced
# density rho* and the spacings are multiples of that required to acheive
# that density. Also define a simulation cell called 'box' in lattice units
# and fill it with atoms. Here we're creating a box which is ten lattice
# constants in each direction.
lattice fcc 1.0 spacing 1 1 1                 # All equal sizes - gives the right reduced density.
Lattice spacing in x,y,z = 1.5874011 1.5874011 1.5874011

region box block 0 10 0 10 0 10 units lattice # Defines a region, "box", in lattice units
create_box 1 box                              # Creates a simulation box as specified above,
Created orthogonal box = (0.0000000 0.0000000 0.0000000) to (15.874011 15.874011 15.874011)
  2 by 2 by 5 MPI processor grid
                                              # with one type of atom
create_atoms 1 box                            # Creates particles on lattice points
Created 4000 atoms
  using lattice units in orthogonal box = (0.0000000 0.0000000 0.0000000) to (15.874011 15.874011 15.874011)
  create_atoms CPU = 0.002 seconds


# Set the mass of the first (and only) atom type.
mass 1 1.0

# Lennard-Jones interactions between particles, 3.5 sigma cut-off. Apply
# long range tail corrections to energy and pressure and set all coefficients
# to unity since we work in reduced units here. Note that this doesn't shift
# the potential such that it goes to zero at the cutoff. That would require
# pair_modify('shift', 'yes').
pair_style lj/cut  3.5      # non-GPU version
pair_modify tail  yes
pair_coeff 1  1  1.0  1.0   # Intearaction between 1 and 1 set with epsilon = 1 and sigma = 1

write_data data.*
System init for write_data ...
Neighbor list info ...
  update every 1 steps, delay 10 steps, check yes
  max neighbors/atom: 2000, page size: 100000
  master list distance cutoff = 3.8
  ghost atom cutoff = 3.8
  binsize = 1.9, bins = 9 9 9
  1 neighbor lists, perpetual/occasional/extra = 1 0 0
  (1) pair lj/cut, perpetual
      attributes: half, newton on
      pair build: half/bin/atomonly/newton
      stencil: half/bin/3d
      bin: standard

#############################
#   M E L T   S Y S T E M   #
#############################

velocity all create 2.4 5833274 mom yes dist gaussian # Assign velocities
                                                    # Temperature 2.4, random number seed, zero linear momentum
						                                                        # Gaussian distribution

timestep 0.002   # simulation timestep
thermo 100       # output thermodynamic data every 100 steps

# Define a fix  in this case with index 1 applied to all
# particles in the simulation. This fix is for simulations
# in the anisotropic NPT ensemble. Note that we use the MTK
# correction.
fix 1 all npt temp 2.4 2.4 0.1 iso 5.68 5.68 0.5 mtk yes tchain 5 pchain 5 # Use NPT ensemble
                                                                         # Set temperature and pressure and damping
                                                                         # Numbers of thermostats in chain and in barostat
run 1000         # run for 10000 steps
Per MPI rank memory allocation (min/avg/max) = 3.681 | 3.682 | 3.682 Mbytes
Step Temp E_pair E_mol TotEng Press Volume 
       0          2.4   -8.3859253            0   -4.7868253   -2.2405722         4000 
     100    1.2560543   -6.5166947            0   -4.6330842    5.4738617     4090.264 
     200    1.4620147   -6.2944328            0    -4.101959    6.0489469    4141.8953 
     300    1.5805517   -6.0148662            0   -3.6446313    5.8775706    4268.7287 
     400    1.6834669   -5.7107066            0   -3.1861375    5.9071358    4403.4982 
     500    1.7905016   -5.4263411            0   -2.7412601    5.8268731    4549.0839 
     600    1.8978346    -5.162881            0   -2.3168407    5.7228626    4703.0892 
     700    1.9845484    -4.865807            0   -1.8897287     6.002426    4840.6855 
     800    2.1384022    -4.696791            0   -1.4899895    5.9101296    4967.4306 
     900    2.2534752   -4.5516747            0    -1.172307    5.7523082    5085.8653 
    1000    2.3409821   -4.4247023            0  -0.91410702    5.7016656    5179.7126 
Loop time of 0.48248 on 20 procs for 1000 steps with 4000 atoms

Performance: 358149.783 tau/day, 2072.626 timesteps/s
100.0% CPU use with 20 MPI tasks x no OpenMP threads

MPI task timing breakdown:
Section |  min time  |  avg time  |  max time  |%varavg| %total
---------------------------------------------------------------
Pair    | 0.26314    | 0.28084    | 0.30445    |   2.2 | 58.21
Neigh   | 0.050918   | 0.053241   | 0.056919   |   0.7 | 11.03
Comm    | 0.097332   | 0.12109    | 0.13989    |   3.7 | 25.10
Output  | 0.00020097 | 0.00020904 | 0.00027049 |   0.0 |  0.04
Modify  | 0.021476   | 0.023773   | 0.027697   |   1.4 |  4.93
Other   |            | 0.003335   |            |       |  0.69

Nlocal:        200.000 ave         214 max         185 min
Histogram: 1 1 2 4 1 2 4 2 2 1
Nghost:        2060.35 ave        2080 max        2025 min
Histogram: 1 0 0 1 4 0 5 5 0 4
Neighs:        17663.0 ave       19553 max       16156 min
Histogram: 1 3 2 3 4 1 1 4 0 1

Total # of neighbors = 353260
Ave neighs/atom = 88.315000
Neighbor list builds = 87
Dangerous builds = 21

# Equilibrate just above the melting temperature to avoid step fn in T

fix 1 all npt temp 1.25 1.25 0.1 iso 5.68 5.68 0.5 mtk yes tchain 5 pchain 5
run 1000
Per MPI rank memory allocation (min/avg/max) = 3.682 | 3.683 | 3.683 Mbytes
Step Temp E_pair E_mol TotEng Press Volume 
    1000    2.3409821   -4.4247023            0  -0.91410702    5.7016656    5179.7126 
    1100    1.9394202   -4.6489983            0   -1.7405953    5.7043192    5010.4975 
    1200    1.7538302   -4.9709308            0   -2.3408432    5.7068483    4807.0107 
    1300    1.5722219   -5.1950829            0   -2.8373396    5.6802724    4673.3381 
    1400    1.4568845   -5.4057081            0   -3.2209276    5.5567683    4573.8845 
    1500    1.3503547   -5.5212706            0   -3.4962449    5.7302676    4490.7966 
    1600    1.3147643   -5.6482764            0   -3.6766229    5.6898925    4434.2315 
    1700    1.2716924   -5.7297408            0   -3.8226791    5.6958397    4391.1098 
    1800    1.2648862   -5.7893213            0   -3.8924664    5.8003465    4355.9343 
    1900    1.2354209   -5.8175189            0   -3.9648509     5.800932    4342.1233 
    2000    1.2349334    -5.850737            0      -3.9988    5.7262948    4335.4701 
Loop time of 0.470358 on 20 procs for 1000 steps with 4000 atoms

Performance: 367379.516 tau/day, 2126.039 timesteps/s
100.0% CPU use with 20 MPI tasks x no OpenMP threads

MPI task timing breakdown:
Section |  min time  |  avg time  |  max time  |%varavg| %total
---------------------------------------------------------------
Pair    | 0.25907    | 0.27797    | 0.29699    |   2.2 | 59.10
Neigh   | 0.043874   | 0.046489   | 0.048703   |   0.6 |  9.88
Comm    | 0.098028   | 0.11846    | 0.13846    |   3.7 | 25.18
Output  | 0.00020279 | 0.00020957 | 0.00025945 |   0.0 |  0.04
Modify  | 0.021879   | 0.023508   | 0.025982   |   1.0 |  5.00
Other   |            | 0.003718   |            |       |  0.79

Nlocal:        200.000 ave         208 max         193 min
Histogram: 3 2 2 0 3 2 4 1 0 3
Nghost:        2288.05 ave        2299 max        2264 min
Histogram: 1 0 0 2 0 3 2 3 5 4
Neighs:        21066.1 ave       22634 max       19412 min
Histogram: 1 2 3 1 3 1 2 4 2 1

Total # of neighbors = 421322
Ave neighs/atom = 105.33050
Neighbor list builds = 76
Dangerous builds = 7


# Small amount of linear quench

fix 1 all npt temp 1.25 ${temp} 0.1 iso 5.68 5.68 0.5 mtk yes tchain 5 pchain 5
fix 1 all npt temp 1.25 0.08 0.1 iso 5.68 5.68 0.5 mtk yes tchain 5 pchain 5
run 2000
Per MPI rank memory allocation (min/avg/max) = 3.683 | 3.683 | 3.684 Mbytes
Step Temp E_pair E_mol TotEng Press Volume 
    2000    1.2349334    -5.850737            0      -3.9988    5.7262948    4335.4701 
    2100    1.2041491   -5.8816298            0   -4.0758578    5.4921786    4338.5996 
    2200    1.1674067   -5.9229324            0   -4.1722601    5.4565199    4320.7395 
    2300    1.1431107   -5.9987315            0   -4.2844942    5.4078637      4292.46 
    2400    1.0739599   -6.0254651            0    -4.414928    5.5874555    4263.1222 
    2500    1.0443826   -6.1046586            0   -4.5384764    5.7949782    4213.0245 
    2600    1.0045485   -6.1908874            0   -4.6844414    5.7910547    4176.1488 
    2700   0.93470216   -6.2644124            0   -4.8627097    5.7582286    4146.3473 
    2800   0.90304151   -6.3828727            0   -5.0286491    5.7008827    4103.6261 
    2900   0.82327725   -6.4530467            0   -5.2184395     5.638009    4078.9153 
    3000   0.77361359   -6.5329598            0   -5.3728296    5.8065398    4035.5128 
    3100   0.73642307   -6.6343707            0   -5.5300122    5.8751856    3992.5432 
    3200   0.67058341   -6.7191086            0    -5.713485    5.7263785     3969.722 
    3300   0.61242089   -6.8081988            0   -5.8897972    5.6640671    3941.7254 
    3400   0.55384597   -6.8826898            0   -6.0521285    5.7457805    3908.7203 
    3500   0.49731358   -6.9712634            0   -6.2254795    5.6602123    3882.2946 
    3600   0.44743194   -7.0646153            0   -6.3936352    5.5798552    3854.9675 
    3700   0.38896779    -7.136389            0   -6.5530832    5.6809921    3823.5622 
    3800   0.34013434   -7.2229482            0   -6.7128743    5.6197128    3797.9397 
    3900    0.2811469   -7.2964015            0   -6.8747866    5.6365153    3772.2056 
    4000    0.2206842   -7.3706196            0   -7.0396761    5.6673527    3746.4185 
Loop time of 0.979245 on 20 procs for 2000 steps with 4000 atoms

Performance: 352924.872 tau/day, 2042.389 timesteps/s
100.0% CPU use with 20 MPI tasks x no OpenMP threads

MPI task timing breakdown:
Section |  min time  |  avg time  |  max time  |%varavg| %total
---------------------------------------------------------------
Pair    | 0.59111    | 0.62702    | 0.66536    |   2.8 | 64.03
Neigh   | 0.062756   | 0.065933   | 0.06906    |   0.7 |  6.73
Comm    | 0.18775    | 0.23003    | 0.26645    |   5.0 | 23.49
Output  | 0.00039274 | 0.0004061  | 0.00050417 |   0.0 |  0.04
Modify  | 0.041172   | 0.046805   | 0.052013   |   1.6 |  4.78
Other   |            | 0.009046   |            |       |  0.92

Nlocal:        200.000 ave         207 max         196 min
Histogram: 3 4 3 5 0 1 1 1 1 1
Nghost:        2488.55 ave        2502 max        2471 min
Histogram: 1 0 0 3 2 4 6 1 2 1
Neighs:        24651.7 ave       25812 max       22868 min
Histogram: 2 0 1 1 4 1 3 2 2 4

Total # of neighbors = 493033
Ave neighs/atom = 123.25825
Neighbor list builds = 103
Dangerous builds = 0

#############################
# F R E E Z E  S Y S T E M  #
#############################

# Define solid atoms. This closely follows ten Wolde  Ruiz-Montero and Frenkel  Faraday Discuss  1996  104  93-110
# Compute components of the per-atom q6 vector
compute q6 all orientorder/atom degrees 1 6 components 6 nnn NULL cutoff 1.3 # compute the Q6 parameter.
                                                                             # Use all neighbours within 1.3 unit cell.

# get number of connections
compute coord_number all coord/atom orientorder q6 0.5

# An atom is solid if it has 8 or more connections (of a possible 14)
variable is_solid atom c_coord_number>=8
group solid dynamic all var is_solid    # Must be dynamic to update
dynamic group solid defined

# do clustering
compute cluster solid cluster/atom 1.3 # Create a cluster where all atoms within are solid and max 1.3 units from another member

# define chunks one chunk per cluster
compute clus_chunks solid chunk/atom c_cluster nchunk every compress yes  # Says which atoms are in which chunk

# count the size of each chunk
compute size_chunks solid property/chunk clus_chunks count


# Find the maximum entry in the vector of chunk sizes
variable max_n equal max(c_size_chunks)


# Thermo style which includes this variable
thermo_style custom step temp pe vol v_max_n

thermo ${N}  # Print the thermo information every 100 steps
thermo 100  

# Reset the npt fix at a lower temperature (below freezing)
fix 1  all npt temp  ${temp} ${temp}  0.1  iso  5.68  5.68  0.5  mtk yes tchain  5  pchain  5
fix 1  all npt temp  0.08 ${temp}  0.1  iso  5.68  5.68  0.5  mtk yes tchain  5  pchain  5
fix 1  all npt temp  0.08 0.08  0.1  iso  5.68  5.68  0.5  mtk yes tchain  5  pchain  5

dump dmp2 all dcd ${N} traj_${rand}.dcd
dump dmp2 all dcd 100 traj_${rand}.dcd
dump dmp2 all dcd 100 traj_462431.dcd


# fix rnuntil all halt ${N} v_max_n >= 3980 error soft message no   # Stop when solidified


run 100000 # 5000000  # Run for this many steps
Neighbor list info ...
  update every 1 steps, delay 10 steps, check yes
  max neighbors/atom: 2000, page size: 100000
  master list distance cutoff = 3.8
  ghost atom cutoff = 3.8
  binsize = 1.9, bins = 9 9 9
  4 neighbor lists, perpetual/occasional/extra = 1 3 0
  (1) pair lj/cut, perpetual
      attributes: half, newton on
      pair build: half/bin/atomonly/newton
      stencil: half/bin/3d
      bin: standard
  (2) compute orientorder/atom, occasional
      attributes: full, newton on
      pair build: full/bin/atomonly
      stencil: full/bin/3d
      bin: standard
  (3) compute coord/atom, occasional
      attributes: full, newton on
      pair build: full/bin/atomonly
      stencil: full/bin/3d
      bin: standard
  (4) compute cluster/atom, occasional
      attributes: full, newton on
      pair build: full/bin/atomonly
      stencil: full/bin/3d
      bin: standard
Per MPI rank memory allocation (min/avg/max) = 9.531 | 9.532 | 9.534 Mbytes
Step Temp PotEng Volume v_max_n 
    4000    0.2206842   -7.3706196    3746.4185           50 
    4100   0.17783822   -7.4314812    3725.4932           65 
    4200   0.14368654   -7.4733112    3711.3531           62 
    4300   0.12032405   -7.5046094    3702.9075          132 
    4400    0.1073349   -7.5323078    3696.4988          140 
    4500  0.097085797   -7.5535362    3693.6612          145 
    4600   0.08916655   -7.5641853    3688.1315           79 
    4700  0.083818619   -7.5675222    3680.9057          111 
    4800  0.082574561   -7.5744342    3676.1919           95 
    4900  0.081479262   -7.5827169    3675.9562           87 
    5000  0.080849863   -7.5904271    3677.7043           74 
    5100  0.078678081   -7.5940226    3678.5588           90 
    5200  0.080824874   -7.5952598     3678.294           81 
    5300  0.080403123    -7.596525    3675.5584           94 
    5400  0.080090537   -7.5980468    3673.0807          161 
    5500  0.081638407   -7.6026493    3671.4208          118 
    5600  0.079694277    -7.604051    3672.3527          164 
    5700    0.0793727   -7.6098659    3672.8143          150 
    5800  0.081312868   -7.6179272    3673.2507          154 
    5900  0.081150563   -7.6213399    3672.2137          114 
    6000  0.080094092   -7.6185118    3667.8348          104 
    6100  0.079406887   -7.6146757     3664.425          126 
    6200  0.078692531   -7.6177537    3665.0838          131 
    6300  0.080027416   -7.6262506    3666.2835          132 
    6400  0.080116339   -7.6276848    3667.9231          120 
    6500  0.079306923   -7.6296241    3668.0705          106 
    6600  0.079891869   -7.6318384    3666.3653           99 
    6700  0.080993403   -7.6310109      3664.64           98 
    6800  0.080551976   -7.6327982     3662.818           96 
    6900  0.078882247   -7.6322222     3663.128          114 
    7000  0.081776423   -7.6345338    3664.5317           97 
    7100  0.080870846   -7.6404745    3666.2601          125 
    7200  0.080017844   -7.6442718    3668.4364          123 
    7300   0.08166567   -7.6392274    3666.0688          116 
    7400  0.080131254   -7.6341211    3661.5552          134 
    7500  0.080839238   -7.6344151     3659.865          152 
    7600  0.079061006    -7.637382    3660.5054          150 
    7700  0.080137303   -7.6413306    3662.8999          100 
    7800  0.078971763   -7.6406793    3665.2999          131 
    7900  0.078808497   -7.6427208    3664.9677          173 
    8000  0.080291132   -7.6439556    3662.3344          136 
    8100  0.081246907   -7.6391529    3661.9224          127 
    8200  0.079674281   -7.6413059    3660.3174          116 
    8300  0.079247956   -7.6431906     3660.665          147 
    8400  0.081542571   -7.6437209    3662.4141          118 
    8500  0.081493017   -7.6465236    3662.7438          170 
    8600  0.078612978    -7.647084    3662.9052          104 
    8700  0.078785519   -7.6460745    3661.5403          159 
    8800  0.082207395   -7.6452977    3659.8057          104 
    8900  0.080703924   -7.6448905    3657.7748          220 
    9000  0.079071338   -7.6436316    3658.8286          258 
    9100  0.079713487   -7.6496162    3661.4462          216 
    9200  0.078401319   -7.6566156    3663.4332          216 
    9300  0.079343907   -7.6527618    3663.4442          151 
    9400  0.081348899   -7.6498002    3660.3889          218 
    9500   0.07916666   -7.6482031    3658.7757          110 
    9600  0.078724666   -7.6490787    3658.4044          201 
    9700  0.081588956   -7.6488984    3659.7367          128 
    9800  0.079671973   -7.6509057    3660.3052          145 
    9900   0.08032571   -7.6534779    3660.7192          159 
   10000  0.078955923   -7.6559544    3659.9285          230 
   10100  0.079204643   -7.6518598    3659.4598          266 
   10200  0.080466836   -7.6508205    3657.2517          134 
   10300   0.07904764   -7.6485926    3656.7238          252 
   10400  0.079173196   -7.6491427    3658.3558          288 
   10500  0.081222265   -7.6529466    3661.9374          202 
   10600  0.079904083   -7.6580837    3662.7151          286 
   10700   0.07871728   -7.6573795    3661.1562          223 
   10800  0.078670852   -7.6555558    3658.3912          404 
   10900  0.080939429   -7.6526674    3656.6465          297 
   11000  0.081087312   -7.6543749    3655.7583          427 
   11100  0.079409929   -7.6562263    3657.2741          354 
   11200  0.080036953   -7.6577821    3659.6256          271 
   11300  0.079902756   -7.6593182    3660.2244          305 
   11400  0.080829018   -7.6596668    3659.7412          397 
   11500  0.080839774   -7.6542405    3658.5206          384 
   11600  0.080014336   -7.6523469    3656.6169          211 
   11700  0.079462242   -7.6546362    3655.7349          266 
   11800   0.08132753   -7.6562573    3657.6829          350 
   11900  0.080311866   -7.6565138    3660.2171          311 
   12000  0.080337454   -7.6608047    3660.1972          310 
   12100       0.0789   -7.6589213    3659.7098          303 
   12200  0.079363197   -7.6546083    3657.5299          218 
   12300  0.078546107   -7.6543242    3654.7761          249 
   12400  0.079226703   -7.6521636    3654.9183          197 
   12500   0.08055723   -7.6561608    3657.3289          354 
   12600  0.081021487   -7.6629247    3660.1335          331 
   12700  0.078664793   -7.6630452    3660.5553          260 
   12800  0.079633796   -7.6587081    3659.4558          273 
   12900   0.07935574   -7.6568107    3657.4504          233 
   13000   0.07807667   -7.6570258    3656.3613          267 
   13100  0.079036999   -7.6556941    3656.6665          176 
   13200  0.081451114   -7.6576439    3657.7458          347 
   13300  0.078674753   -7.6600538    3658.3315          254 
   13400  0.078975689   -7.6602599    3658.7995          225 
   13500   0.07991673   -7.6583992    3658.7426          356 
   13600  0.079949935   -7.6579265    3656.7022          366 
   13700  0.079011072    -7.656036    3655.7411          302 
   13800  0.080767514   -7.6570851    3655.7349          243 
   13900  0.078521052   -7.6583996    3657.0228          164 
   14000  0.079497208   -7.6613341    3658.8216          259 
   14100  0.078650583   -7.6626178    3660.0133          236 
   14200  0.081346622   -7.6621128    3658.5259          275 
   14300  0.079431459   -7.6599984    3655.2146          250 
   14400  0.081422616   -7.6577749    3653.0423          253 
   14500  0.079449199   -7.6571813    3653.9452          332 
   14600  0.079352664   -7.6629045    3655.8974          278 
   14700  0.080989747   -7.6625588     3658.245          338 
   14800  0.079816131   -7.6637893    3657.7315          365 
   14900   0.07944516   -7.6628149    3656.8656          281 
   15000  0.080594146   -7.6616247    3656.0304          384 
   15100  0.079301329   -7.6602831      3655.32          353 
   15200  0.078263324   -7.6628348    3655.1156          350 
   15300  0.080122215   -7.6626946    3656.1644          353 
   15400  0.079902958   -7.6643684     3657.408          318 
   15500  0.079097455   -7.6672447    3657.1464          367 
   15600  0.080275594   -7.6648917    3657.4148          343 
   15700  0.080525116   -7.6613254    3655.0273          404 
   15800   0.07995129   -7.6606003    3652.8441          373 
   15900  0.078790458   -7.6623273    3653.2341          391 
   16000  0.079934885   -7.6640045    3656.2693          401 
   16100  0.080344346    -7.668756    3658.1805          359 
   16200  0.078587044    -7.668807    3658.2829          366 
   16300  0.077249695   -7.6642333    3657.4722          388 
   16400   0.08019306    -7.663248    3654.4747          390 
   16500  0.078880902   -7.6642356    3652.9218          384 
   16600  0.080439087   -7.6639082    3653.5107          285 
   16700  0.080803026   -7.6660909    3655.3658          300 
   16800  0.080149882   -7.6660412    3657.8041          467 
   16900  0.080081435   -7.6687482    3657.3532          322 
   17000  0.081129337    -7.668872    3656.0334          404 
   17100  0.078155318   -7.6636009    3654.4064          345 
   17200  0.080718595    -7.661151    3652.4563          405 
   17300  0.080358255   -7.6619015    3651.9607          343 
   17400  0.081494462   -7.6669139    3655.1444          404 
   17500  0.081320278   -7.6697215    3658.9757          359 
   17600   0.07947984   -7.6708601    3658.2154          400 
   17700  0.078285361   -7.6678875    3656.0604          448 
   17800  0.080498319   -7.6647569    3654.8808          384 
   17900  0.078265942   -7.6636082    3653.8457          421 
   18000  0.080870214   -7.6651182    3653.9642          196 
   18100  0.081056752    -7.665934    3655.6267          355 
   18200  0.078876902   -7.6684048    3656.3994          409 
   18300  0.077708971   -7.6705786    3656.5701          392 
   18400  0.080514903   -7.6677625    3656.2221          373 
   18500  0.079878352   -7.6621525    3654.5509          369 
   18600   0.08053796   -7.6602617    3651.3465          376 
   18700  0.080187732   -7.6618471    3651.4917          397 
   18800  0.079211239   -7.6674028    3655.3411          468 
   18900  0.080430688   -7.6720124    3656.8328          387 
   19000  0.080760893   -7.6678077    3657.2046          377 
   19100  0.080271282    -7.667571    3655.7744          362 
   19200  0.079521497   -7.6687063    3653.7633          352 
   19300  0.079661715    -7.666611    3653.3958          357 
   19400  0.078778927   -7.6648869    3654.3991          488 
   19500  0.078806883   -7.6663756    3655.4707          458 
   19600    0.0813231   -7.6723243    3655.8224          476 
   19700  0.078852691   -7.6716112    3657.1528          350 
   19800  0.078783936   -7.6686449     3656.472          476 
   19900  0.080755022   -7.6647668    3652.7103          383 
   20000  0.082040241   -7.6605769     3650.728          298 
   20100  0.080123644   -7.6651693    3651.8997          364 
   20200  0.079608202   -7.6687805    3655.1892          362 
   20300  0.082599472   -7.6701174    3656.3514          390 
   20400  0.080202673   -7.6705225    3656.2122          410 
   20500  0.078624896   -7.6682534    3655.4648          410 
   20600  0.080102471   -7.6646464    3654.8466          389 
   20700  0.079797558   -7.6665368    3653.4695          380 
   20800  0.080995822    -7.668216    3653.3934          392 
   20900  0.080785874     -7.66962    3654.5993          406 
   21000  0.081173436   -7.6698726    3656.9038          390 
   21100  0.078991067   -7.6722364     3657.632          400 
   21200  0.081321534   -7.6732522    3655.5182          513 
   21300  0.081116352   -7.6637947    3652.2255          500 
   21400  0.079202554   -7.6617025    3649.9689          264 
   21500   0.08013801    -7.665789    3651.9504          434 
   21600  0.080094903   -7.6682677    3655.1459          390 
   21700  0.079523792   -7.6694111    3656.9557          514 
   21800  0.078359809   -7.6717086    3656.3021          262 
   21900  0.079380266   -7.6697223    3655.2364          416 
   22000  0.082031016   -7.6685894    3653.4838          454 
   22100  0.079021334   -7.6672057     3652.174          542 
   22200  0.078831079   -7.6657771    3653.0698          403 
   22300  0.080566445   -7.6690468     3654.875          537 
   22400  0.080416468    -7.674236    3656.4598          522 
   22500  0.079278892   -7.6758129     3657.834          408 
   22600  0.079186076    -7.671561    3656.3061          375 
   22700  0.080913675   -7.6644611    3652.4435          397 
   22800  0.079715124   -7.6627512    3650.8264          397 
   22900  0.079735752   -7.6676485    3652.2453          265 
   23000  0.080845365   -7.6711303    3654.1835          439 
   23100  0.079990365    -7.669776    3656.0643          497 
   23200  0.079392884   -7.6724637    3655.7373          405 
   23300  0.078326704   -7.6716815    3654.4085          435 
   23400  0.079530267   -7.6695605    3653.1511          420 
   23500  0.080800976   -7.6684088    3652.0309          536 
   23600  0.078559027   -7.6689633    3652.4325          570 
   23700  0.081818371   -7.6718004    3653.9904          538 
   23800  0.078276354   -7.6743384    3656.8812          506 
   23900  0.080562999   -7.6777494    3657.8158          422 
   24000  0.078557887   -7.6750868    3654.9852          432 
   24100  0.079084444   -7.6707124    3651.4782          451 
   24200  0.079668831   -7.6684823    3651.8473          535 
   24300  0.078740966   -7.6710583    3652.3878          520 
   24400  0.079427983   -7.6736222    3653.3891          436 
   24500  0.080751245   -7.6731974     3654.527          455 
   24600  0.079751816    -7.674673    3654.3553          508 
   24700  0.080095225   -7.6739006    3653.7002          466 
   24800  0.080975829   -7.6708499    3652.9995          557 
   24900  0.080897846   -7.6703748    3651.1462          534 
   25000  0.079426939   -7.6706313    3650.9795          544 
   25100  0.080009209   -7.6721482    3653.8157          560 
   25200  0.080590238   -7.6756079    3657.2089          469 
   25300  0.080724488   -7.6785466    3657.1127          455 
   25400  0.080004851   -7.6752309    3654.3013          557 
   25500  0.080353703   -7.6692179    3652.8748          546 
   25600  0.081645398   -7.6694541    3651.1605          453 
   25700  0.078512789   -7.6703659    3651.9114          422 
   25800  0.082183517   -7.6741498    3653.2846          416 
   25900  0.079079745   -7.6755992    3654.9175          488 
   26000    0.0807434    -7.679616    3654.4424          532 
   26100  0.080301045   -7.6742407    3654.6458          427 
   26200  0.081290994   -7.6717886     3652.596          536 
   26300  0.078318532   -7.6694759    3650.8156          546 
   26400  0.079048391   -7.6687301    3650.5936          533 
   26500  0.081358401   -7.6721024    3653.4352          532 
   26600  0.080101698   -7.6782606    3657.2403          551 
   26700  0.079096878   -7.6811403    3656.6007          545 
   26800  0.078931162   -7.6755247    3654.2324          545 
   26900  0.080421147   -7.6715621    3652.6741          551 
   27000  0.080305854   -7.6732754     3650.985          559 
   27100  0.079576852   -7.6725776     3651.714          568 
   27200  0.081268004   -7.6747351    3652.9354          555 
   27300   0.07808871   -7.6775404    3654.0266          532 
   27400  0.079409626   -7.6774764    3654.8989          525 
   27500  0.081894914   -7.6768695    3653.9311          525 
   27600  0.079484398   -7.6749818    3651.5607          514 
   27700  0.079508655     -7.66969    3648.2702          535 
   27800  0.079120273   -7.6644152    3648.5817          362 
   27900  0.080127609   -7.6756049    3652.5257          515 
   28000  0.081576616   -7.6815656    3655.0976          557 
   28100  0.081200835   -7.6793212    3655.9915          536 
   28200  0.081234795   -7.6759484    3654.4344          506 
   28300   0.07890105   -7.6739978    3651.7522          478 
   28400   0.07933277   -7.6724258     3651.056          518 
   28500  0.080194109   -7.6713676    3652.0469          514 
   28600  0.080209754   -7.6751511    3652.9766          519 
   28700  0.079337782   -7.6777603    3653.8184          518 
   28800  0.080457211   -7.6783244    3654.3443          522 
   28900  0.081456247   -7.6759569    3653.8217          550 
   29000  0.079763894   -7.6735101    3652.8479          571 
   29100  0.079301862   -7.6738145    3651.7669          547 
   29200    0.0818943   -7.6739617    3651.8196          528 
   29300  0.079516639   -7.6746179     3652.864          556 
   29400  0.079272361   -7.6766768    3653.9895          563 
   29500  0.080040786   -7.6770826    3655.3647          546 
   29600  0.079621731   -7.6767008    3655.2725          571 
   29700  0.080253598   -7.6744841    3651.6401          536 
   29800   0.07811214   -7.6708301    3648.7123          544 
   29900  0.080681739    -7.670558    3649.4034          512 
   30000  0.079348635   -7.6737975    3652.3277          504 
   30100  0.079865217   -7.6791193    3654.3877          544 
   30200  0.079812973   -7.6786874    3655.6513          509 
   30300  0.079205248   -7.6801404     3653.813          520 
   30400  0.079501051   -7.6745793    3652.6124          560 
   30500   0.08023191   -7.6721307    3650.9012          555 
   30600  0.079075815   -7.6746173    3650.5579          592 
   30700  0.080717049    -7.676877    3651.6946          571 
   30800  0.078985044   -7.6762866    3654.5218          558 
   30900  0.081543449   -7.6782613    3655.4419          546 
   31000  0.078798914   -7.6787656    3654.1545          529 
   31100  0.079974618   -7.6746988    3652.7988          586 
   31200  0.081814609    -7.673335    3650.3229          575 
   31300  0.079106296   -7.6718151    3649.6444          545 
   31400  0.081480058   -7.6755254    3651.7281          560 
   31500  0.079910825   -7.6797046    3655.0255          542 
   31600  0.082015011   -7.6814697    3656.4752          544 
   31700  0.081044039   -7.6795575    3654.5419          578 
   31800  0.080425252   -7.6768374    3651.8263          567 
   31900  0.079597076   -7.6753492    3650.9912          557 
   32000  0.081726151   -7.6748216    3651.6612          559 
   32100  0.079114184   -7.6760926     3652.098          551 
   32200  0.080684549   -7.6786236    3652.8583          535 
   32300  0.079658592   -7.6777305    3654.1483          582 
   32400  0.080080749   -7.6786751    3653.3986          572 
   32500  0.078175936   -7.6774735    3651.9464          539 
   32600  0.078853529   -7.6733949    3650.9749          561 
   32700  0.081524898   -7.6728152    3650.0456          531 
   32800  0.082726944   -7.6734896    3652.3199          528 
   32900  0.080090329   -7.6805862     3655.059          539 
   33000  0.079386573   -7.6829675    3656.5536          535 
   33100  0.078566566   -7.6809245    3654.7424          535 
   33200  0.081233091   -7.6767303    3652.2236          550 
   33300  0.079527944   -7.6740447    3650.7534          549 
   33400  0.080090606   -7.6743423    3650.4852          549 
   33500  0.081199546   -7.6747318    3652.3949          544 
   33600  0.080771199   -7.6778373    3653.8428          557 
   33700  0.079459851   -7.6813941    3654.2122          551 
   33800  0.080708917   -7.6792133    3654.2612          541 
   33900  0.078617163   -7.6777423    3652.6012          539 
   34000  0.080232363    -7.674353    3650.9348          549 
   34100   0.07960578   -7.6741223    3649.2867          554 
   34200  0.079749882   -7.6759608    3650.3403          548 
   34300  0.080533952   -7.6810456    3655.3728          596 
   34400  0.078414757   -7.6835021    3657.9131          567 
   34500  0.079607849   -7.6821524    3655.1186          560 
   34600  0.080422269   -7.6804489    3651.7124          581 
   34700  0.081278392   -7.6756077    3650.7004          599 
   34800  0.081956081   -7.6758767    3650.4319          595 
   34900  0.080214149   -7.6791991    3651.0339          578 
   35000  0.080635357   -7.6785334    3653.4146          581 
   35100  0.081226934   -7.6805037    3654.2779          609 
   35200  0.078228973   -7.6798425    3653.8833          595 
   35300  0.079163265   -7.6789929    3652.4955          567 
   35400  0.082020997   -7.6751785     3650.727          538 
   35500  0.081025249   -7.6747578    3648.9266          600 
   35600  0.080083662   -7.6767993    3650.0487          579 
   35700  0.081708078   -7.6795027    3654.6861          576 
   35800  0.079514651   -7.6834874     3656.415          570 
   35900  0.078774812   -7.6810102    3654.8338          560 
   36000  0.081209249   -7.6772204    3652.9823          558 
   36100   0.07965653   -7.6772547    3650.9123          547 
   36200  0.079789365   -7.6773464    3650.5263          571 
   36300  0.082384194   -7.6765108    3651.7733          526 
   36400  0.079269118   -7.6782773     3652.916          563 
   36500  0.081351708   -7.6822998    3653.2873          555 
   36600   0.07831273   -7.6818012     3653.256          565 
   36700   0.08040506   -7.6800637    3652.3208          561 
   36800  0.080829979   -7.6767136    3651.2141          523 
   36900  0.079066317   -7.6770079    3649.8469          550 
   37000  0.080402133   -7.6758542    3651.0593          577 
   37100  0.079419087     -7.67842    3653.3637          582 
   37200  0.080267241   -7.6841987    3655.0713          577 
   37300  0.081634734   -7.6825319    3655.9154          599 
   37400  0.080628099   -7.6798029    3653.2439          571 
   37500   0.08090941   -7.6770679    3649.8454          601 
   37600  0.078959977   -7.6728327     3650.615          579 
   37700  0.080036722   -7.6760854    3651.3533          570 
   37800  0.079307768   -7.6802057    3652.2844          614 
   37900  0.080510736   -7.6790814    3653.7466          572 
   38000  0.079297454   -7.6793115    3653.6241          577 
   38100  0.081208089   -7.6805578    3652.0571          567 
   38200  0.081286437   -7.6769751    3651.8141          540 
   38300   0.08082495   -7.6748752    3651.7062          611 
   38400  0.080050509   -7.6784358    3651.1333          602 
   38500  0.080476604   -7.6808387    3652.1571          589 
   38600  0.080597923   -7.6801312    3654.9363          550 
   38700   0.08000515   -7.6839045    3654.8194          579 
   38800  0.080143651   -7.6806812    3653.2582          573 
   38900  0.079352372   -7.6759338    3650.1708          526 
   39000  0.079273926   -7.6755102    3648.3612          599 
   39100  0.080651737   -7.6748169    3650.4448          605 
   39200  0.080071482   -7.6794553    3652.3724          570 
   39300  0.078678558   -7.6827698    3653.7339          583 
   39400  0.079304652   -7.6828368    3654.0434          585 
   39500  0.079311699   -7.6789983    3653.2988          575 
   39600  0.080577893   -7.6770447    3651.7106          583 
   39700   0.07955533   -7.6758467    3650.2656          591 
   39800  0.080945614    -7.677379    3650.3491          563 
   39900  0.079748368    -7.676188     3653.322          567 
   40000  0.080904941   -7.6825139         3654          571 
   40100  0.079194578   -7.6814616    3655.2347          609 
   40200  0.079085711   -7.6805643    3653.9044          597 
   40300  0.080077625   -7.6766664    3650.5262          531 
   40400  0.080660835   -7.6709953    3648.2888          608 
   40500  0.078663769   -7.6743561    3648.5425          593 
   40600  0.079660576   -7.6790504    3651.8671          563 
   40700  0.080616262   -7.6796821    3654.1892          612 
   40800  0.079084538   -7.6796702    3654.2394          581 
   40900  0.078478257   -7.6793564    3653.0994          594 
   41000  0.079622137   -7.6770108    3652.0307          627 
   41100  0.080515978   -7.6786764    3650.5282          554 
   41200   0.08124795   -7.6783582    3651.1348          604 
   41300   0.07924776   -7.6772048    3652.7819          589 
   41400  0.078591964   -7.6811526    3653.3038          571 
   41500  0.080192858   -7.6807476    3654.8266          609 
   41600  0.080834152   -7.6813119    3654.0991          570 
   41700  0.079846842   -7.6786655    3650.6249          577 
   41800  0.080500244   -7.6728531    3648.5153          585 
   41900  0.080503194    -7.674025    3649.2216          582 
   42000  0.079395384   -7.6794592    3651.5091          591 
   42100  0.080307864   -7.6814423    3654.2188          594 
   42200  0.079388352   -7.6819399    3654.7406          567 
   42300  0.078839286   -7.6812414    3653.3973          599 
   42400  0.081534191   -7.6776719    3652.0012          573 
   42500   0.08033966    -7.676366    3650.1344          544 
   42600  0.079422915   -7.6769089    3650.0626          572 
   42700  0.080258792   -7.6769841    3651.9471          599 
   42800  0.079170887   -7.6797693    3653.7436          630 
   42900  0.078949536    -7.683358    3654.1769          610 
   43000  0.080405447   -7.6803354    3654.0169          593 
   43100  0.080452652   -7.6779779    3651.8979          608 
   43200  0.079783891   -7.6762261    3649.2553          627 
   43300  0.077454484   -7.6770658    3648.5385          589 
   43400  0.079679315   -7.6784617    3651.0322          579 
   43500  0.080301643   -7.6811156    3654.6528          586 
   43600  0.079081336   -7.6845217    3654.8216          581 
   43700  0.078834758   -7.6808857    3653.7883          613 
   43800  0.081131325   -7.6790617     3651.954          569 
   43900  0.079280148   -7.6775085    3651.1686          580 
   44000  0.080542048    -7.675598    3651.7859          590 
   44100  0.080543917   -7.6794807    3651.5965          577 
   44200  0.078561563   -7.6788409    3653.3929          589 
   44300  0.082161122   -7.6807741    3653.5041          568 
   44400  0.080576131   -7.6813926    3652.8811          553 
   44500  0.080081697   -7.6792218    3651.9134          553 
   44600  0.080017942    -7.672755     3650.246          591 
   44700  0.079683312   -7.6731737     3648.716          612 
   44800  0.079324698    -7.676937    3651.2223          604 
   44900   0.08153939   -7.6813984    3654.4995          634 
   45000  0.079435408    -7.683361    3655.3505          602 
   45100  0.079185773    -7.681686    3654.1624          556 
   45200  0.081341767   -7.6771735    3652.4198          591 
   45300  0.079677647   -7.6761336    3650.5168          577 
   45400  0.079683604   -7.6757531    3650.5101          572 
   45500  0.081086213   -7.6771439    3651.8001          599 
   45600  0.079034715   -7.6816024    3652.8669          580 
   45700  0.079279854    -7.680195    3654.4236          594 
   45800  0.078883312   -7.6793985    3654.2704          579 
   45900  0.079989627   -7.6794606    3651.6813          575 
   46000  0.081699957   -7.6742405    3650.7646          589 
   46100  0.079887102   -7.6739603    3650.1196          649 
   46200  0.079547144   -7.6779324    3650.9829          585 
   46300  0.077588799   -7.6837473    3653.0776          578 
   46400   0.07961593   -7.6853288    3655.6701          582 
   46500  0.080696009   -7.6847375    3655.8944          595 
   46600  0.077117086   -7.6790201    3652.1832          587 
   46700  0.079439855   -7.6752413    3649.3786          563 
   46800    0.0802206   -7.6755429    3649.9182          573 
   46900  0.079322344    -7.681152    3650.5736          584 
   47000  0.079016191   -7.6799849    3653.1662          581 
   47100  0.080139865   -7.6798954    3653.9211          592 
   47200   0.08013317    -7.680523    3653.7143          640 
   47300  0.077920218   -7.6790481    3652.4086          609 
   47400  0.080820528   -7.6755446    3651.5325          586 
   47500  0.081315684   -7.6766122    3650.0756          599 
   47600  0.078115926   -7.6758211    3651.1677          552 
   47700  0.079491024    -7.680036    3654.8208          582 
   47800  0.078021029   -7.6858665    3658.0412          519 
   47900  0.081109838   -7.6865841    3655.2977          616 
   48000   0.08016076   -7.6771046    3653.1638          645 
   48100  0.080397408   -7.6768346     3649.895          587 
   48200  0.079152937   -7.6766003    3649.8879          571 
   48300  0.080405494   -7.6773631    3651.4766          599 
   48400  0.078860269   -7.6784822    3653.0339          608 
   48500  0.080325158   -7.6815013    3653.6252          638 
   48600  0.079882572   -7.6793655    3653.6611          617 
   48700  0.080972081   -7.6781809    3652.8653          644 
   48800  0.079507606   -7.6782379    3650.8419          595 
   48900  0.080786386   -7.6775787    3650.2162          598 
   49000  0.080843153   -7.6758859    3651.1607          592 
   49100  0.078260263   -7.6805769    3653.5853          566 
   49200  0.078663836   -7.6834916    3656.5963          543 
   49300  0.081221907    -7.683611    3656.2084          545 
   49400  0.079811404   -7.6795034    3652.6566          589 
   49500  0.078964185    -7.677308    3650.1674          556 
   49600  0.078608844   -7.6757774    3650.4999          589 
   49700  0.080086622   -7.6766554     3651.881          581 
   49800  0.078756484   -7.6800381    3652.4954          569 
   49900  0.079307677   -7.6804388    3653.6851          592 
   50000  0.079232493   -7.6781236      3654.06          564 
   50100  0.079950214   -7.6789966    3652.5267          595 
   50200  0.079031013   -7.6788643    3650.6763          596 
   50300  0.081080892   -7.6754677    3649.8714          647 
   50400   0.07961922   -7.6745302     3650.061          610 
   50500  0.077972587    -7.680162    3654.0096          584 
   50600  0.081823673   -7.6850541    3656.3771          589 
   50700  0.079057363   -7.6829995    3655.4819          593 
   50800  0.080121177   -7.6809167    3652.1367          583 
   50900  0.080182058   -7.6769862    3651.0204          595 
   51000  0.078533971    -7.674175    3651.1521          569 
   51100  0.079543773   -7.6783831    3651.0517          567 
   51200   0.08165121   -7.6798366    3652.6317          590 
   51300  0.080291785    -7.680932    3653.1982          599 
   51400  0.078590078   -7.6810211    3653.1597          563 
   51500   0.07969614   -7.6773337    3653.0828          578 
   51600  0.080150475   -7.6754156    3651.8788          574 
   51700  0.079561483   -7.6755964    3649.9551          580 
   51800  0.078365172   -7.6753859     3650.169          563 
   51900  0.081008295   -7.6805377    3652.8251          575 
   52000   0.07971956   -7.6820607    3656.6266          577 
   52100  0.080363111   -7.6849477    3655.1821          576 
   52200  0.079447852    -7.681593    3653.0615          537 
   52300  0.081146455   -7.6763707    3651.6095          570 
   52400  0.080258022   -7.6756492    3650.6739          569 
   52500  0.079507585   -7.6782132    3650.8385          580 
   52600  0.080100814   -7.6777416    3652.8622          552 
   52700  0.079990061   -7.6802747    3653.6483          574 
   52800  0.078076705   -7.6815327    3653.5995          576 
   52900  0.080626023   -7.6795651    3652.9002          574 
   53000  0.079629096   -7.6769932    3651.7529          619 
   53100  0.079743256   -7.6759196    3650.6763          600 
   53200  0.078634811   -7.6753428    3651.3214          609 
   53300  0.078864879   -7.6784818    3652.2018          595 
   53400   0.08137626   -7.6828406    3653.5424          602 
   53500  0.080372684   -7.6819944     3654.391          573 
   53600  0.080890069   -7.6802235    3653.3404          617 
   53700  0.079764184   -7.6791855    3650.6932          616 
   53800  0.080158204   -7.6749745    3649.5596          631 
   53900  0.080493318   -7.6748512    3649.2106          592 
   54000  0.078432515    -7.677645    3652.0703          629 
   54100  0.078791711   -7.6817733    3656.7775          652 
   54200  0.078396958   -7.6836956    3656.8665          606 
   54300  0.080332959   -7.6807159    3653.7259          587 
   54400  0.080194795   -7.6790671    3651.1691          621 
   54500  0.080423727   -7.6751974     3651.261          623 
   54600  0.079292316   -7.6757048    3651.4587          590 
   54700  0.079857437   -7.6802699    3651.7513          627 
   54800  0.078278559    -7.681181    3653.0145          601 
   54900  0.079917097   -7.6803966    3654.0153          540 
   55000  0.080841816   -7.6797672     3653.665          591 
   55100  0.079898815   -7.6797623    3651.2022          590 
   55200   0.07882832   -7.6734145    3649.8497          603 
   55300  0.081254686   -7.6728449    3648.6812          625 
   55400  0.079749025   -7.6778661    3651.1373          554 
   55500  0.081139732   -7.6814945    3655.2017          605 
   55600  0.080961454   -7.6822799    3655.2492          608 
   55700  0.080596335   -7.6814789    3653.1407          585 
   55800  0.079747192   -7.6798457    3651.5926          607 
   55900  0.080364862    -7.674813    3651.3145          606 
   56000  0.081365862    -7.678253     3650.242          593 
   56100  0.079398616   -7.6786839     3651.584          612 
   56200  0.081325887   -7.6796634    3653.2596          610 
   56300  0.080797188   -7.6804656    3654.1828          614 
   56400  0.079628994   -7.6820241    3653.6323          632 
   56500  0.080057065   -7.6776618    3652.3134          607 
   56600  0.077986255   -7.6734664     3647.769          601 
   56700  0.080394416   -7.6707153    3646.0067          623 
   56800  0.081206334   -7.6753829    3650.5162          593 
   56900   0.08008311   -7.6803455    3654.1172          621 
   57000  0.079516277   -7.6833657    3654.5836          638 
   57100  0.080435158   -7.6820563    3654.0597          638 
   57200    0.0812827   -7.6767627    3652.9437          641 
   57300  0.081034941   -7.6771572    3650.7585          622 
   57400  0.079357991   -7.6771924    3650.1444          613 
   57500   0.08271401   -7.6786623    3651.4067          588 
   57600  0.080440302   -7.6798514     3653.388          630 
   57700  0.080471741   -7.6829858    3653.9681          618 
   57800  0.080247743   -7.6821164     3653.915          616 
   57900  0.080738925    -7.677026     3653.041          610 
   58000  0.079057836   -7.6752567    3649.8573          609 
   58100  0.078561658   -7.6717446    3648.6113          621 
   58200  0.080557079   -7.6760403    3650.0771          594 
   58300  0.080141771   -7.6814722    3652.9925          620 
   58400  0.080841325    -7.683914    3654.2218          631 
   58500  0.079626421   -7.6783788    3654.5446          623 
   58600  0.080585954   -7.6791501    3652.4227          648 
   58700  0.079189752   -7.6780765    3651.3127          644 
   58800  0.081284335   -7.6777532    3651.1951          598 
   58900  0.083588368   -7.6766687    3652.0988          613 
   59000    0.0796614   -7.6782356     3652.752          613 
   59100  0.078606487   -7.6804364    3653.6412          644 
   59200  0.080172992   -7.6786506    3654.3658          628 
   59300  0.081365762   -7.6803204    3652.3965          630 
   59400  0.080301086   -7.6771203    3650.1972          626 
   59500  0.081664517   -7.6748771     3649.256          637 
   59600  0.078799735   -7.6750473    3650.0775          604 
   59700  0.081005612   -7.6818036    3652.7148          603 
   59800   0.07918627   -7.6843767    3655.1056          582 
   59900  0.080302036   -7.6805353    3654.8254          603 
   60000   0.08018411   -7.6800091    3651.9812          618 
   60100  0.081462682    -7.679846     3650.969          614 
   60200   0.08064757   -7.6764308     3651.823          638 
   60300  0.078982893   -7.6795745    3651.3928          624 
   60400  0.080309012   -7.6800122    3652.1001          572 
   60500   0.08179561   -7.6805881    3653.2155          614 
   60600  0.079334361    -7.679257    3653.4204          634 
   60700  0.079398783    -7.679823    3652.5309          582 
   60800  0.080452264   -7.6759109    3651.1887          618 
   60900   0.08005998   -7.6727225    3650.3312          633 
   61000  0.079613711   -7.6775506     3650.281          610 
   61100  0.079311709   -7.6795882    3653.0499          625 
   61200  0.080572796   -7.6823733    3654.6708          634 
   61300  0.080989595   -7.6829536    3654.1995          634 
   61400   0.07977122   -7.6770879     3653.739          601 
   61500   0.07944219   -7.6782842    3650.9914          609 
   61600  0.078590196   -7.6755075    3650.5526          620 
   61700  0.080432284   -7.6762694    3651.6483          646 
   61800   0.07927137   -7.6785714    3652.5947          593 
   61900  0.080128909   -7.6805399    3652.8345          626 
   62000  0.083479961   -7.6799582    3652.9521          629 
   62100  0.080063302   -7.6788441    3652.7148          619 
   62200  0.077879385   -7.6781422    3652.0871          607 
   62300  0.078612221   -7.6805792    3651.2989          615 
   62400  0.079754719   -7.6775285    3651.8494          617 
   62500  0.079230164   -7.6776348    3652.5002          597 
   62600   0.07916252   -7.6814043     3652.434          606 
   62700  0.080131456   -7.6819733    3653.2234          588 
   62800  0.079489889   -7.6788241    3653.5932          640 
   62900  0.078114487   -7.6772316    3651.7308          588 
   63000  0.080161663   -7.6752981    3650.0565          591 
   63100  0.080703054    -7.674539    3650.2523          602 
   63200  0.080482516   -7.6787486    3651.7229          603 
   63300  0.079928501   -7.6815837    3654.1904          597 
   63400  0.080165322   -7.6867531    3654.3312          641 
   63500  0.078397624   -7.6799819    3654.2713          613 
   63600  0.080692257   -7.6768125    3651.8064          624 
   63700  0.079135572   -7.6770412    3650.2827          627 
   63800  0.080847126   -7.6784093    3650.7078          625 
   63900  0.079461823   -7.6773454    3652.5771          619 
   64000  0.081168843   -7.6802821    3653.0015          593 
   64100  0.078211747   -7.6802749    3653.1328          605 
   64200  0.079890793   -7.6793375    3652.9262          627 
   64300  0.079822583   -7.6788101    3652.1229          629 
   64400  0.082743161   -7.6779323    3651.0938          608 
   64500  0.079342633   -7.6771981    3651.2718          592 
   64600  0.080495075   -7.6794266     3651.717          630 
   64700  0.080734465   -7.6807271    3653.8352          642 
   64800  0.081731428   -7.6838206    3655.1667          612 
   64900  0.079418311   -7.6841789    3654.2263          627 
   65000  0.080419279   -7.6788994    3651.5642          636 
   65100  0.080410033   -7.6745433    3649.5816          617 
   65200  0.080819983   -7.6757191    3649.5551          627 
   65300  0.082048674   -7.6799422     3651.195          597 
   65400  0.078997882   -7.6810679    3653.0307          595 
   65500  0.081454475   -7.6793049    3653.9435          632 
   65600  0.081483305   -7.6805555    3653.0118          618 
   65700  0.079019625   -7.6776879    3652.5544          651 
   65800  0.081649863    -7.679204    3651.1545          642 
   65900  0.078072343   -7.6768698    3651.4642          616 
   66000  0.081007915   -7.6774372    3652.1677          587 
   66100  0.080430039   -7.6797319    3653.3963          577 
   66200  0.079843164   -7.6835054    3653.8468          582 
   66300  0.081140973   -7.6805369    3654.2112          620 
   66400  0.080042276   -7.6761092    3652.5008          606 
   66500  0.080356106   -7.6764034    3648.9426          602 
   66600  0.079117782    -7.673946    3649.1928          615 
   66700  0.078990461   -7.6744189    3652.1987          618 
   66800  0.080344371   -7.6818462    3653.3341          620 
   66900  0.080067767   -7.6850815    3653.9811          587 
   67000  0.081609525   -7.6816762    3653.6608          608 
   67100  0.079232253    -7.679194    3651.8986          587 
   67200  0.078144691   -7.6803489     3650.077          603 
   67300  0.079541733   -7.6767657     3650.721          591 
   67400  0.080241848   -7.6769271    3651.9455          606 
   67500  0.078559589   -7.6803683    3652.4668          630 
   67600  0.079710108   -7.6806314    3653.3287          606 
   67700  0.081109755   -7.6799922    3652.9779          639 
   67800  0.077341597   -7.6790172    3652.2686          618 
   67900  0.080093917   -7.6786825    3651.4638          631 
   68000  0.079898562   -7.6777139    3651.8754          615 
   68100  0.079665359   -7.6786073    3652.0736          627 
   68200  0.078282445   -7.6798158    3652.2645          616 
   68300  0.079316059   -7.6793123    3654.0381          645 
   68400  0.080915357   -7.6810643    3653.6997          604 
   68500  0.079373459   -7.6805168    3651.7168          598 
   68600  0.079965557   -7.6755051    3649.5464          593 
   68700  0.080678878   -7.6746978    3648.9126          633 
   68800  0.083096902   -7.6762203    3651.3328          639 
   68900  0.079709474   -7.6798119    3653.9551          604 
   69000   0.08074002   -7.6828395    3654.3667          597 
   69100  0.078613496   -7.6822031    3653.8887          603 
   69200  0.078979949   -7.6791953     3652.291          611 
   69300  0.080629853   -7.6775729    3651.6889          611 
   69400  0.080137185   -7.6790275     3651.471          607 
   69500  0.079472836   -7.6796062    3652.0436          640 
   69600  0.081675266   -7.6790557    3652.6577          599 
   69700  0.079229657   -7.6801475    3652.6565          620 
   69800  0.079247824    -7.678914    3652.6802          627 
   69900  0.080760108   -7.6780136    3652.4676          628 
   70000  0.079128995   -7.6774181    3651.8253          619 
   70100  0.079449702   -7.6763416    3651.6913          610 
   70200  0.082182107    -7.677203    3652.3338          637 
   70300  0.081147949   -7.6809875    3652.7053          638 
   70400  0.081262545   -7.6810862    3653.9384          608 
   70500  0.079319138   -7.6818198    3653.1594          617 
   70600  0.079755519   -7.6787284    3652.1911          605 
   70700  0.079679115   -7.6750214    3650.1947          601 
   70800  0.079884501   -7.6742539    3649.7475          599 
   70900  0.078624167   -7.6774712    3650.8223          614 
   71000  0.082173536   -7.6816345    3653.9503          649 
   71100  0.079631302   -7.6844553    3655.6958          627 
   71200  0.079816249   -7.6826056     3654.467          620 
   71300  0.081373561   -7.6794267    3651.7657          642 
   71400   0.07913242   -7.6786367    3650.7238          629 
   71500  0.079642489   -7.6773604     3651.034          603 
   71600  0.080594368   -7.6785578    3651.8908          599 
   71700  0.078600574   -7.6792146    3652.6388          618 
   71800  0.081532742   -7.6801442    3653.1856          633 
   71900  0.079760009   -7.6796598     3653.175          594 
   72000   0.07920209   -7.6789546    3652.3229          611 
   72100  0.082184271   -7.6779898    3650.8894          618 
   72200  0.080373674    -7.677393    3648.9567          640 
   72300  0.080430258   -7.6780795    3649.9615          560 
   72400  0.081268708     -7.68167    3653.2944          635 
   72500  0.080090771   -7.6834048    3655.6103          608 
   72600  0.081692686   -7.6835506    3654.5521          614 
   72700  0.079654549    -7.681487    3651.8864          598 
   72800  0.080200813   -7.6762041    3650.7899          646 
   72900  0.081559501   -7.6764738    3650.4019          619 
   73000   0.07874733   -7.6784472    3651.3071          611 
   73100  0.080124771   -7.6804176    3652.1336          577 
   73200  0.079087697   -7.6792581     3654.102          571 
   73300  0.079766455   -7.6803298    3653.4195          626 
   73400  0.077793439   -7.6806509    3652.1612          632 
   73500  0.078629906   -7.6783161    3652.1282          511 
   73600  0.080088968   -7.6775623    3652.0718          589 
   73700  0.078843471   -7.6797284    3651.5512          619 
   73800  0.078953091   -7.6802104    3651.6575          615 
   73900   0.07986605   -7.6788363    3652.5277          550 
   74000  0.081001397    -7.679505    3652.4066          605 
   74100  0.078220079   -7.6783025    3652.8567          624 
   74200  0.078670761   -7.6770894    3651.8411          622 
   74300  0.081585584   -7.6774812    3650.3481          616 
   74400  0.080051202   -7.6786249    3650.5455          611 
   74500   0.07859635   -7.6781634    3653.1611          587 
   74600  0.081419674   -7.6797023    3655.2911          616 
   74700   0.08149692   -7.6834228    3654.9358          637 
   74800  0.080464768   -7.6812479    3652.8462          626 
   74900  0.081011264   -7.6753305    3651.1791          638 
   75000   0.07923548   -7.6734176    3649.7352          663 
   75100  0.079247511   -7.6760835    3650.3934          631 
   75200  0.079914302   -7.6782968    3652.7572          606 
   75300  0.079313942   -7.6835684    3652.3919          608 
   75400  0.079421469   -7.6816251    3652.9074          607 
   75500  0.081155682   -7.6802422    3652.5877          624 
   75600   0.07858914   -7.6782364    3651.8132          596 
   75700  0.078908486   -7.6790933    3650.9969          642 
   75800  0.080527866   -7.6777246    3651.9177          603 
   75900  0.081072987    -7.679466    3652.1851          624 
   76000  0.079082136   -7.6812688    3654.3386          652 
   76100  0.081865516   -7.6845058    3655.8368          632 
   76200  0.079183449   -7.6816352    3653.7414          597 
   76300  0.080703354   -7.6760392    3650.7078          585 
   76400  0.080899436   -7.6758789    3648.7928          596 
   76500  0.078338093   -7.6769868    3650.2413          620 
   76600  0.081412125    -7.678792    3652.3011          614 
   76700  0.079863788   -7.6811848    3653.6311          600 
   76800  0.078953941   -7.6809723    3653.8651          614 
   76900   0.08045383   -7.6801037    3652.6938          599 
   77000  0.079645204   -7.6783758    3651.7266          610 
   77100  0.078729335   -7.6776898    3650.3271          609 
   77200  0.081327507   -7.6761902    3650.8041          616 
   77300  0.080426987   -7.6782169    3652.3605          605 
   77400  0.079805749   -7.6847378    3654.7949          557 
   77500  0.080501893   -7.6849646    3657.4207          579 
   77600   0.08124961   -7.6812617    3654.7363          638 
   77700  0.078144159    -7.676419    3651.0197          533 
   77800   0.08077686   -7.6757249    3649.2595          586 
   77900  0.082940365   -7.6754005     3650.547          578 
   78000  0.080438513   -7.6781578    3652.0812          623 
   78100  0.079690728   -7.6833871    3653.2015          584 
   78200  0.078621931   -7.6819854    3654.1693          614 
   78300  0.081403376   -7.6816612    3653.1761          638 
   78400  0.080192725   -7.6772421    3652.0715          610 
   78500  0.078606723   -7.6767012    3650.0429          549 
   78600  0.079988387   -7.6772049    3650.3054          593 
   78700  0.080002976   -7.6781455    3651.8314          647 
   78800  0.080561233   -7.6807029    3654.3042          571 
   78900  0.080312683   -7.6815434    3655.9202          578 
   79000  0.079333214   -7.6820469      3654.42          607 
   79100  0.081015033   -7.6778762    3651.5783          614 
   79200  0.081483675   -7.6732442    3650.1211          622 
   79300   0.07925701   -7.6760463    3650.1052          619 
   79400  0.079260088   -7.6787695    3651.8858          618 
   79500  0.081623865    -7.682043    3652.6537          589 
   79600   0.08202286   -7.6806632     3653.482          660 
   79700  0.081039092   -7.6803313     3652.444          592 
   79800  0.079760994   -7.6790568    3651.8349          621 
   79900  0.081502292   -7.6783728    3651.1916          596 
   80000  0.079492113   -7.6779828    3651.0002          548 
   80100  0.079243508   -7.6799665    3651.5382          610 
   80200  0.080203034   -7.6793666    3653.7159          592 
   80300  0.079206992    -7.681851    3655.3661          568 
   80400  0.077653112   -7.6834381      3654.25          575 
   80500  0.080987982    -7.678679     3651.751          574 
   80600  0.079532811   -7.6746525    3649.1959          558 
   80700  0.079751069   -7.6753734    3649.4015          540 
   80800  0.080296997   -7.6771822    3651.4494          594 
   80900  0.080598822   -7.6811352    3653.0466          567 
   81000  0.080805486   -7.6798093    3654.6598          620 
   81100  0.080189746   -7.6794019    3653.4924          622 
   81200  0.079684619   -7.6800997    3651.8191          591 
   81300  0.079784363   -7.6762727    3651.8632          600 
   81400  0.080131647   -7.6771318    3651.3427          613 
   81500   0.07839253   -7.6773901    3652.2218          621 
   81600  0.079555876   -7.6794218    3652.5028          589 
   81700  0.080114101   -7.6784672    3653.0792          608 
   81800  0.079613697   -7.6782758     3652.955          567 
   81900  0.078256071   -7.6787442    3652.3866          569 
   82000  0.082725563   -7.6800766    3651.5551          592 
   82100  0.079244931   -7.6779339    3652.0492          638 
   82200  0.079018956   -7.6794764    3651.9432          575 
   82300  0.079931912   -7.6798118    3652.4512          579 
   82400  0.079821051   -7.6796287    3653.9853          619 
   82500  0.080135184   -7.6821387    3652.8269          589 
   82600  0.078562327   -7.6780906    3652.2228          573 
   82700  0.080170065    -7.676012     3650.996          590 
   82800  0.079453798   -7.6763251    3650.0507          605 
   82900  0.080607771   -7.6759118     3652.087          552 
   83000  0.079921234   -7.6812678    3653.7561          599 
   83100  0.079701962    -7.685047    3655.2543          605 
   83200  0.081547635     -7.68306    3655.1591          584 
   83300  0.080293731   -7.6786376    3652.1742          575 
   83400  0.080914884   -7.6766587    3649.4824          555 
   83500  0.078698105   -7.6755118    3650.3619          632 
   83600  0.081813326   -7.6770312    3651.9296          562 
   83700  0.079957471   -7.6804316    3652.7675          580 
   83800  0.079680135   -7.6807836    3653.1122          568 
   83900   0.08013993   -7.6776045    3653.6353          555 
   84000  0.080539761   -7.6791325    3652.0454          569 
   84100  0.080351264   -7.6780115    3651.3986          575 
   84200   0.08123003   -7.6758757    3651.1523          587 
   84300  0.078511448   -7.6766977    3651.5783          570 
   84400  0.078843625   -7.6798862    3653.6339          581 
   84500  0.081296153   -7.6827217    3655.9287          600 
   84600  0.079166185   -7.6843332    3655.1279          573 
   84700   0.08126734   -7.6799232    3652.2894          595 
   84800  0.081533152   -7.6760866    3649.7186          543 
   84900  0.078922833    -7.676305    3649.5183          582 
   85000  0.080825325   -7.6790063    3650.8907          602 
   85100  0.079763975     -7.67874    3653.7613          565 
   85200  0.080263317   -7.6829101    3653.8538          540 
   85300   0.07929027   -7.6834672    3653.2023          580 
   85400  0.079300926   -7.6784408    3652.7979          613 
   85500  0.080385721    -7.677113    3650.8927          601 
   85600  0.078252123    -7.676991       3649.9          575 
   85700  0.080734328   -7.6772874    3650.9072          607 
   85800  0.080697996   -7.6787197    3653.1622          559 
   85900  0.079398368   -7.6823733    3654.8757          553 
   86000   0.08086883   -7.6834985    3655.0815          571 
   86100  0.080248485   -7.6819853    3652.6739          581 
   86200  0.079225294    -7.673634    3648.7673          575 
   86300  0.080659155    -7.671863    3647.7185          576 
   86400  0.078852651   -7.6766938    3650.4112          585 
   86500  0.079271093   -7.6833952     3652.077          549 
   86600  0.079565259   -7.6810779    3653.7904          588 
   86700  0.081061449   -7.6805554    3653.7346          575 
   86800  0.079199017   -7.6813615    3651.9769          589 
   86900  0.079228089   -7.6783927    3651.5039          562 
   87000  0.080007413   -7.6755587    3651.0846          566 
   87100  0.080772504   -7.6782958     3650.957          557 
   87200  0.078972146   -7.6815562    3651.8051          580 
   87300  0.079629722   -7.6836833    3654.3415          603 
   87400   0.08022479   -7.6846482     3655.901          568 
   87500  0.080897471   -7.6808738    3653.7824          575 
   87600  0.080554355    -7.674511    3651.0334          552 
   87700  0.078352657   -7.6741099    3649.0285          568 
   87800  0.079439177   -7.6770862    3649.8276          595 
   87900   0.08092093   -7.6786188    3652.5103          577 
   88000  0.079591063   -7.6828134     3653.722          548 
   88100  0.080115715   -7.6833578    3654.1634          592 
   88200  0.081274018   -7.6810087    3653.0865          605 
   88300  0.080379042   -7.6759718    3651.7534          574 
   88400   0.08069769    -7.675114    3650.4573          584 
   88500  0.080016915   -7.6780531    3650.0437          578 
   88600  0.079941869   -7.6800686    3651.8085          550 
   88700  0.080322424   -7.6794331    3654.3602          577 
   88800  0.079279832   -7.6819499    3654.4499          585 
   88900  0.081082621   -7.6827894    3652.9169          609 
   89000  0.079443026   -7.6792276    3651.0916          580 
   89100  0.080265449   -7.6746983     3650.443          612 
   89200  0.078788494   -7.6755047    3650.0658          575 
   89300  0.079415362   -7.6799041     3651.414          625 
   89400  0.080849421   -7.6836576    3654.3384          603 
   89500  0.079509933   -7.6825266    3656.2378          571 
   89600  0.080750448   -7.6815124    3654.1042          622 
   89700  0.078107871    -7.678725    3651.3156          638 
   89800  0.080018142   -7.6766479    3650.5598          591 
   89900  0.079848039   -7.6777079    3651.1183          568 
   90000  0.077248988    -7.679626    3651.7206          612 
   90100  0.080381491   -7.6810904    3652.5699          575 
   90200  0.080972545   -7.6807928    3653.2882          594 
   90300   0.08177312   -7.6783867    3653.5526          559 
   90400     0.080403   -7.6795465    3651.8034          583 
   90500  0.080495151   -7.6786435    3650.3379          534 
   90600  0.079817998   -7.6739662    3650.7357          590 
   90700  0.079459971   -7.6782426    3651.2358          599 
   90800  0.079658834   -7.6828176    3654.5157          591 
   90900  0.080910735   -7.6838098    3656.4766          550 
   91000  0.079787351   -7.6824454    3654.5094          533 
   91100  0.079408708   -7.6792358    3651.7113          530 
   91200  0.080235497   -7.6760824     3650.576          559 
   91300  0.080446017   -7.6775595     3650.463          572 
   91400  0.078334405   -7.6815066    3650.9747          569 
   91500  0.080260049   -7.6810873    3652.7737          581 
   91600  0.081352232   -7.6816898    3654.1397          577 
   91700  0.079154189   -7.6824738    3652.8895          593 
   91800  0.081301243   -7.6800333    3651.7183          567 
   91900  0.078830914   -7.6761044     3650.747          586 
   92000  0.079374838   -7.6744395    3650.7628          558 
   92100  0.080563316   -7.6776855    3651.3559          586 
   92200  0.080104937       -7.682    3652.6712          596 
   92300    0.0778555   -7.6818829     3654.885          572 
   92400  0.079691454    -7.680493    3654.6843          567 
   92500  0.079550248   -7.6807106    3651.8006          587 
   92600  0.078679982   -7.6753094    3650.0504          625 
   92700  0.081319387   -7.6750158    3648.9956          563 
   92800  0.078047853    -7.676287    3650.9082          570 
   92900  0.080496354   -7.6786594    3654.0816          593 
   93000  0.080507677    -7.681396     3655.032          615 
   93100  0.079479096   -7.6812371    3653.7439          608 
   93200  0.079916317    -7.679425    3652.5113          572 
   93300  0.079293672   -7.6778406    3651.5611          592 
   93400  0.081420732   -7.6769383    3651.5441          603 
   93500  0.081058097   -7.6784317    3651.7971          601 
   93600  0.078962174   -7.6799151    3652.3902          600 
   93700  0.081485871   -7.6803661    3653.2474          605 
   93800  0.082432185   -7.6820806    3653.1157          590 
   93900  0.078818263   -7.6793169    3652.8378          537 
   94000  0.079681979   -7.6768124    3650.5525          557 
   94100  0.079708956   -7.6746648    3648.5673          612 
   94200  0.081129608   -7.6742191    3650.5104          542 
   94300  0.079348067   -7.6796223    3652.9503          577 
   94400  0.078484424   -7.6828567    3654.7414          553 
   94500   0.08032959   -7.6815646    3654.8211          598 
   94600  0.079059369   -7.6805208    3652.5361          571 
   94700  0.080240346   -7.6789846    3650.9547          620 
   94800  0.079010823   -7.6749259     3651.446          605 
   94900  0.080089619   -7.6763504    3652.0907          604 
   95000  0.079173946   -7.6798017    3652.0852          596 
   95100   0.08177787   -7.6816507    3652.0554          605 
   95200  0.081811729   -7.6788033    3652.6813          611 
   95300  0.079432082   -7.6777128     3652.566          619 
   95400  0.078936364   -7.6800013    3651.8588          592 
   95500  0.080997952   -7.6787481    3651.9108          634 
   95600  0.079540567   -7.6784627      3652.34          609 
   95700  0.078782918   -7.6802026    3652.2142          615 
   95800  0.078193415   -7.6800501    3652.6333          612 
   95900  0.079987003   -7.6789941    3652.9759          584 
   96000  0.079108209   -7.6807149    3652.1138          597 
   96100  0.079481907    -7.681517    3651.2652          602 
   96200  0.079299529   -7.6767969    3651.8674          602 
   96300  0.080509957   -7.6778011    3651.5653          563 
   96400   0.08035145   -7.6808162    3651.5924          605 
   96500  0.079901815   -7.6822077    3652.7996          619 
   96600  0.081810507   -7.6820272    3653.7603          579 
   96700  0.080919984   -7.6808052    3653.0017          581 
   96800  0.080556452   -7.6795259    3650.8802          594 
   96900  0.080555331   -7.6770175    3649.2222          578 
   97000  0.080378071   -7.6801883    3648.8636          590 
   97100  0.080552126   -7.6801351    3651.6053          581 
   97200  0.080824559   -7.6833125    3653.8907          615 
   97300  0.079369371   -7.6840303    3654.1662          577 
   97400  0.080675095   -7.6823799    3653.0286          557 
   97500  0.078971176   -7.6795442    3651.3283          580 
   97600  0.080511863   -7.6782769    3649.7506          621 
   97700  0.079656949   -7.6769192    3650.4778          590 
   97800  0.079844565   -7.6817148    3651.4375          571 
   97900  0.081404229   -7.6820929    3652.8449          564 
   98000   0.07849954   -7.6822291    3653.6217          583 
   98100  0.080228616   -7.6807836     3653.179          543 
   98200  0.081283915   -7.6780484    3651.9306          558 
   98300  0.080110753   -7.6776763    3649.7171          575 
   98400  0.081153417    -7.677211    3649.0036          583 
   98500  0.080462763   -7.6790841    3651.6139          570 
   98600  0.079682111   -7.6863464    3654.6258          595 
   98700  0.079965607   -7.6853863    3656.6659          609 
   98800  0.080228603   -7.6821879    3654.1682          606 
   98900  0.079164903   -7.6788108    3651.4064          562 
   99000  0.080226709   -7.6792601    3650.1377          593 
   99100  0.079754493   -7.6793504    3650.3797          594 
   99200  0.081261062   -7.6792997    3651.7198          594 
   99300   0.08110113   -7.6825331    3652.5822          558 
   99400  0.079994854   -7.6832002    3653.4524          629 
   99500  0.082284429    -7.681228    3653.2038          589 
   99600  0.082370935   -7.6820749    3650.8201          571 
   99700   0.08087428   -7.6779064    3649.4602          638 
   99800   0.07749551   -7.6747553    3648.9354          597 
   99900  0.081285478    -7.677138    3650.8998          627 
  100000  0.079604589   -7.6840051    3655.1953          607 
  100100   0.08009821   -7.6882421    3656.2189          607 
  100200  0.081414979   -7.6822786    3653.8187          632 
  100300  0.079881682   -7.6802064    3651.7363          585 
  100400  0.079797702   -7.6790841    3650.5724          583 
  100500  0.080771458   -7.6771122    3651.2086          555 
  100600  0.079551166   -7.6805964    3651.2803          626 
  100700  0.080959771    -7.683008    3652.3532          581 
  100800  0.080505601   -7.6816801    3653.7609          593 
  100900  0.080977062   -7.6815339    3653.3949          611 
  101000  0.080002505    -7.680345    3651.6788          552 
  101100   0.08006897   -7.6758038    3649.1196          575 
  101200  0.081373115   -7.6761155    3646.4865          594 
  101300  0.079977035   -7.6785519    3649.2978          574 
  101400  0.080136198   -7.6830519    3653.2702          622 
  101500  0.078885274   -7.6842884    3654.9265          609 
  101600  0.080101486   -7.6826394    3654.3838          606 
  101700    0.0805826   -7.6795149    3652.2767          583 
  101800  0.078753697    -7.678083    3650.3694          608 
  101900   0.08073236   -7.6778311    3649.9351          566 
  102000  0.079522749   -7.6796433    3650.7493          613 
  102100  0.079194413   -7.6830487    3651.9429          562 
  102200  0.081322713   -7.6826417    3653.5869          612 
  102300  0.078755405   -7.6814514    3653.9728          610 
  102400  0.080179179   -7.6810235    3652.2903          608 
  102500  0.080314537   -7.6800677    3649.7572          582 
  102600  0.079773281   -7.6773678    3648.0864          560 
  102700  0.080287338   -7.6763916    3650.0464          579 
  102800  0.080136975    -7.682488    3652.5964          615 
  102900  0.077913083   -7.6864764    3654.5089          602 
  103000  0.080170329   -7.6837777    3654.5117          612 
  103100  0.079733503   -7.6811397    3652.3343          586 
  103200  0.077745372   -7.6788833    3651.2497          597 
  103300  0.079790331   -7.6790124    3650.9585          590 
  103400  0.080429111   -7.6803444     3650.926          615 
  103500  0.078924674   -7.6816113    3651.8615          585 
  103600   0.08010595   -7.6811414    3653.1787          593 
  103700  0.079647621   -7.6815348    3653.4268          572 
  103800  0.080589339    -7.682245    3652.1612          592 
  103900  0.080480894     -7.67973     3650.277          567 
  104000  0.080825376   -7.6764016    3648.5473          551 
Loop time of 333.364 on 20 procs for 100000 steps with 4000 atoms

Performance: 51835.208 tau/day, 299.972 timesteps/s
99.9% CPU use with 20 MPI tasks x no OpenMP threads

MPI task timing breakdown:
Section |  min time  |  avg time  |  max time  |%varavg| %total
---------------------------------------------------------------
Pair    | 32.296     | 35.38      | 38.014     |  25.6 | 10.61
Neigh   | 0.69045    | 0.7375     | 0.7686     |   2.6 |  0.22
Comm    | 11.249     | 14.08      | 17.207     |  41.9 |  4.22
Output  | 9.7339     | 9.7357     | 9.7517     |   0.1 |  2.92
Modify  | 265.67     | 268.88     | 270.39     |   7.5 | 80.66
Other   |            | 4.55       |            |       |  1.36

Nlocal:        200.000 ave         205 max         189 min
Histogram: 1 1 0 1 2 1 2 3 4 5
Nghost:        2535.20 ave        2551 max        2522 min
Histogram: 1 4 1 6 1 0 1 3 2 1
Neighs:        25436.3 ave       27388 max       23289 min
Histogram: 2 0 2 2 1 6 3 1 0 3
FullNghs:      50872.0 ave       52208 max       48009 min
Histogram: 1 1 0 2 2 0 2 3 4 5

Total # of neighbors = 1017440
Ave neighs/atom = 254.36000
Neighbor list builds = 1130
Dangerous builds = 0

#clear
#
#next RN
#
#jump SELF
Total wall time: 0:05:35
