
units lj                  # Use reduced LJ style units
atom_style atomic         # Uncharged point particles
atom_modify map hash      # Needed for indexing of clusters etc
                          # Used to be able to find where atoms are in relation to each other.

# Define a lattice with which to populate the simulation cell. With units
# set to 'lj' the second argument to the lattice command is the reduced
# density rho* and the spacings are multiples of that required to acheive
# that density. Also define a simulation cell called 'box' in lattice units
# and fill it with atoms. Here we're creating a box which is ten lattice
# constants in each direction.
lattice fcc 1.0 spacing 1 1 1                 # All equal sizes - gives the right reduced density.
Lattice spacing in x,y,z = 1.5874011 1.5874011 1.5874011

region box block 0 10 0 10 0 10 units lattice # Defines a region, "box", in lattice units
create_box 1 box                              # Creates a simulation box as specified above,
Created orthogonal box = (0.0000000 0.0000000 0.0000000) to (15.874011 15.874011 15.874011)
  2 by 3 by 3 MPI processor grid
                                              # with one type of atom
create_atoms 1 box                            # Creates particles on lattice points
Created 4000 atoms
  using lattice units in orthogonal box = (0.0000000 0.0000000 0.0000000) to (15.874011 15.874011 15.874011)
  create_atoms CPU = 0.002 seconds


# Set the mass of the first (and only) atom type.
mass 1 1.0

# Lennard-Jones interactions between particles, 3.5 sigma cut-off. Apply
# long range tail corrections to energy and pressure and set all coefficients
# to unity since we work in reduced units here. Note that this doesn't shift
# the potential such that it goes to zero at the cutoff. That would require
# pair_modify('shift', 'yes').
pair_style lj/cut  3.5      # non-GPU version
pair_modify tail  yes
pair_coeff 1  1  1.0  1.0   # Intearaction between 1 and 1 set with epsilon = 1 and sigma = 1

write_data data.*
System init for write_data ...
Neighbor list info ...
  update every 1 steps, delay 10 steps, check yes
  max neighbors/atom: 2000, page size: 100000
  master list distance cutoff = 3.8
  ghost atom cutoff = 3.8
  binsize = 1.9, bins = 9 9 9
  1 neighbor lists, perpetual/occasional/extra = 1 0 0
  (1) pair lj/cut, perpetual
      attributes: half, newton on
      pair build: half/bin/atomonly/newton
      stencil: half/bin/3d
      bin: standard

#############################
#   M E L T   S Y S T E M   #
#############################

velocity all create 2.4 6229865 mom yes dist gaussian # Assign velocities
                                                    # Temperature 2.4, random number seed, zero linear momentum
						                                                        # Gaussian distribution

timestep 0.002   # simulation timestep
thermo 100       # output thermodynamic data every 100 steps

# Define a fix  in this case with index 1 applied to all
# particles in the simulation. This fix is for simulations
# in the anisotropic NPT ensemble. Note that we use the MTK
# correction.
fix 1 all npt temp 2.4 2.4 0.1 iso 5.68 5.68 0.5 mtk yes tchain 5 pchain 5 # Use NPT ensemble
                                                                         # Set temperature and pressure and damping
                                                                         # Numbers of thermostats in chain and in barostat
run 1000         # run for 10000 steps
Per MPI rank memory allocation (min/avg/max) = 3.680 | 3.683 | 3.691 Mbytes
Step Temp E_pair E_mol TotEng Press Volume 
       0          2.4   -8.3859253            0   -4.7868253   -2.2405722         4000 
     100    1.2536957    -6.512639            0   -4.6325656     5.478955    4089.9923 
     200    1.4643499   -6.2844612            0   -4.0884856    6.2225923    4132.6721 
     300    1.5613501   -5.9933187            0    -3.651879    5.8912714    4272.8847 
     400    1.6731008   -5.7064704            0   -3.1974466    5.7980079    4409.8935 
     500    1.7993987   -5.4325725            0   -2.7341491    5.8329956     4543.536 
     600    1.8982906   -5.1495669            0   -2.3028429    5.9004247    4690.6414 
     700    1.9845076   -4.8772598            0   -1.9012426    5.8338611    4846.8673 
     800    2.1343222   -4.6883289            0   -1.4876459    5.9300075    4961.2015 
     900    2.2685415   -4.5564143            0   -1.1544528    5.7429537    5072.3143 
    1000    2.3671174   -4.4804745            0  -0.93068614    5.6609343    5154.7975 
Loop time of 0.559209 on 18 procs for 1000 steps with 4000 atoms

Performance: 309007.796 tau/day, 1788.240 timesteps/s
99.5% CPU use with 18 MPI tasks x no OpenMP threads

MPI task timing breakdown:
Section |  min time  |  avg time  |  max time  |%varavg| %total
---------------------------------------------------------------
Pair    | 0.3184     | 0.34369    | 0.36276    |   2.1 | 61.46
Neigh   | 0.06213    | 0.064524   | 0.067622   |   0.6 | 11.54
Comm    | 0.10361    | 0.12257    | 0.14722    |   3.5 | 21.92
Output  | 0.00022811 | 0.00023662 | 0.0003171  |   0.0 |  0.04
Modify  | 0.021987   | 0.025259   | 0.028723   |   1.3 |  4.52
Other   |            | 0.002922   |            |       |  0.52

Nlocal:        222.222 ave         231 max         210 min
Histogram: 3 0 0 2 1 3 2 2 2 3
Nghost:        2031.00 ave        2048 max        2016 min
Histogram: 5 0 1 2 1 2 2 0 3 2
Neighs:        19717.1 ave       21073 max       18338 min
Histogram: 2 1 0 3 2 3 4 0 2 1

Total # of neighbors = 354908
Ave neighs/atom = 88.727000
Neighbor list builds = 86
Dangerous builds = 21

# Equilibrate just above the melting temperature to avoid step fn in T

fix 1 all npt temp 1.25 1.25 0.1 iso 5.68 5.68 0.5 mtk yes tchain 5 pchain 5
run 1000
Per MPI rank memory allocation (min/avg/max) = 3.680 | 3.684 | 3.691 Mbytes
Step Temp E_pair E_mol TotEng Press Volume 
    1000    2.3671174   -4.4804745            0  -0.93068614    5.6609343    5154.7975 
    1100    1.9173858   -4.6307779            0   -1.7554183    5.8554728    4996.3129 
    1200    1.7477579   -4.9829542            0   -2.3619728    5.5796831    4810.9499 
    1300    1.5893104   -5.2408705            0   -2.8575008    5.3451318    4689.7353 
    1400    1.4556711   -5.4006503            0   -3.2176895    5.5642329    4570.8156 
    1500     1.383129   -5.5543358            0   -3.4801609    5.7098519    4482.8499 
    1600    1.3162446   -5.6665882            0    -3.692715    5.5319197    4440.3115 
    1700      1.25084   -5.7143969            0    -3.838606    5.6852524    4398.4145 
    1800    1.2626026   -5.7931589            0   -3.8997285    5.8005288    4354.9947 
    1900    1.2551594   -5.8434232            0   -3.9611548    5.6726084    4344.7346 
    2000    1.2750099   -5.8609224            0   -3.9488856     5.652703    4341.0224 
Loop time of 0.541139 on 18 procs for 1000 steps with 4000 atoms

Performance: 319326.746 tau/day, 1847.956 timesteps/s
99.7% CPU use with 18 MPI tasks x no OpenMP threads

MPI task timing breakdown:
Section |  min time  |  avg time  |  max time  |%varavg| %total
---------------------------------------------------------------
Pair    | 0.32473    | 0.34359    | 0.36225    |   1.7 | 63.49
Neigh   | 0.055346   | 0.056843   | 0.058758   |   0.4 | 10.50
Comm    | 0.095271   | 0.11222    | 0.12841    |   2.7 | 20.74
Output  | 0.00022283 | 0.00023099 | 0.00029393 |   0.0 |  0.04
Modify  | 0.022644   | 0.025      | 0.029426   |   1.5 |  4.62
Other   |            | 0.003255   |            |       |  0.60

Nlocal:        222.222 ave         236 max         215 min
Histogram: 4 1 4 4 1 1 2 0 0 1
Nghost:        2242.33 ave        2259 max        2218 min
Histogram: 1 1 0 3 1 1 4 3 1 3
Neighs:        23367.4 ave       25065 max       22106 min
Histogram: 2 2 3 2 3 3 0 0 2 1

Total # of neighbors = 420613
Ave neighs/atom = 105.15325
Neighbor list builds = 75
Dangerous builds = 5


# Small amount of linear quench

fix 1 all npt temp 1.25 ${temp} 0.1 iso 5.68 5.68 0.5 mtk yes tchain 5 pchain 5
fix 1 all npt temp 1.25 0.07 0.1 iso 5.68 5.68 0.5 mtk yes tchain 5 pchain 5
run 2000
Per MPI rank memory allocation (min/avg/max) = 3.680 | 3.684 | 3.691 Mbytes
Step Temp E_pair E_mol TotEng Press Volume 
    2000    1.2750099   -5.8609224            0   -3.9488856     5.652703    4341.0224 
    2100    1.2111514   -5.8361525            0   -4.0198795    5.8516485    4329.0082 
    2200    1.1995618   -5.9074305            0   -4.1085377    5.8116569    4300.7863 
    2300    1.1336436   -5.9497186            0   -4.2496784    5.7167809    4286.4738 
    2400    1.0869509   -6.0319035            0   -4.4018848    5.6787269    4254.0241 
    2500    1.0418961   -6.1066895            0   -4.5442361    5.6976492    4218.5157 
    2600    1.0137415   -6.2309152            0   -4.7106831    5.5648482    4177.3907 
    2700   0.91767455   -6.2680724            0   -4.8919047     5.620774    4153.3249 
    2800   0.89283339   -6.3902126            0   -5.0512973    5.5275859    4113.5914 
    2900   0.82430553   -6.4583215            0   -5.2221723    5.5625939    4080.6367 
    3000   0.78135373   -6.5651041            0   -5.3933665    5.5071356     4044.528 
    3100   0.71696297   -6.6446318            0   -5.5694562    5.5347807    4011.8924 
    3200   0.66272877   -6.7225591            0   -5.7287145    5.6736406    3971.8874 
    3300   0.61196029   -6.8153952            0   -5.8976843    5.6931177    3937.8055 
    3400   0.56398178   -6.9112743            0   -6.0655131    5.6945187    3903.2721 
    3500   0.49749681   -6.9769158            0   -6.2308571    5.7961023    3872.5239 
    3600   0.44376205   -7.0678385            0   -6.4023618    5.7009277     3847.331 
    3700   0.37673756   -7.1355732            0   -6.5706082    5.6764333    3823.5375 
    3800   0.32360395   -7.2203154            0   -6.7350309    5.6624439    3796.4491 
    3900   0.27133928   -7.3027964            0   -6.8958892    5.6378601    3771.0662 
    4000   0.20806268   -7.3737969            0   -7.0617809     5.643456    3746.1753 
Loop time of 1.1363 on 18 procs for 2000 steps with 4000 atoms

Performance: 304145.673 tau/day, 1760.102 timesteps/s
99.7% CPU use with 18 MPI tasks x no OpenMP threads

MPI task timing breakdown:
Section |  min time  |  avg time  |  max time  |%varavg| %total
---------------------------------------------------------------
Pair    | 0.74003    | 0.77836    | 0.81103    |   2.4 | 68.50
Neigh   | 0.0787     | 0.080823   | 0.082549   |   0.4 |  7.11
Comm    | 0.19116    | 0.21859    | 0.24854    |   4.0 | 19.24
Output  | 0.00044798 | 0.00046272 | 0.00056813 |   0.0 |  0.04
Modify  | 0.043797   | 0.050044   | 0.060304   |   2.3 |  4.40
Other   |            | 0.008018   |            |       |  0.71

Nlocal:        222.222 ave         228 max         217 min
Histogram: 4 0 1 3 1 2 1 4 0 2
Nghost:        2450.17 ave        2460 max        2440 min
Histogram: 1 0 1 3 3 4 2 2 1 1
Neighs:        27369.1 ave       29033 max       25744 min
Histogram: 1 2 1 2 3 2 3 2 1 1

Total # of neighbors = 492643
Ave neighs/atom = 123.16075
Neighbor list builds = 102
Dangerous builds = 0

#############################
# F R E E Z E  S Y S T E M  #
#############################

# Define solid atoms. This closely follows ten Wolde  Ruiz-Montero and Frenkel  Faraday Discuss  1996  104  93-110
# Compute components of the per-atom q6 vector
compute q6 all orientorder/atom degrees 1 6 components 6 nnn NULL cutoff 1.3 # compute the Q6 parameter.
                                                                             # Use all neighbours within 1.3 unit cell.

# get number of connections
compute coord_number all coord/atom orientorder q6 0.5

# An atom is solid if it has 8 or more connections (of a possible 14)
variable is_solid atom c_coord_number>=8
group solid dynamic all var is_solid    # Must be dynamic to update
dynamic group solid defined

# do clustering
compute cluster solid cluster/atom 1.3 # Create a cluster where all atoms within are solid and max 1.3 units from another member

# define chunks one chunk per cluster
compute clus_chunks solid chunk/atom c_cluster nchunk every compress yes  # Says which atoms are in which chunk

# count the size of each chunk
compute size_chunks solid property/chunk clus_chunks count


# Find the maximum entry in the vector of chunk sizes
variable max_n equal max(c_size_chunks)


# Thermo style which includes this variable
thermo_style custom step temp pe vol v_max_n

thermo ${N}  # Print the thermo information every 100 steps
thermo 100  

# Reset the npt fix at a lower temperature (below freezing)
fix 1  all npt temp  ${temp} ${temp}  0.1  iso  5.68  5.68  0.5  mtk yes tchain  5  pchain  5
fix 1  all npt temp  0.07 ${temp}  0.1  iso  5.68  5.68  0.5  mtk yes tchain  5  pchain  5
fix 1  all npt temp  0.07 0.07  0.1  iso  5.68  5.68  0.5  mtk yes tchain  5  pchain  5

dump dmp2 all dcd ${N} traj_${rand}.dcd
dump dmp2 all dcd 100 traj_${rand}.dcd
dump dmp2 all dcd 100 traj_462431.dcd


# fix rnuntil all halt ${N} v_max_n >= 3980 error soft message no   # Stop when solidified


run 100000 # 5000000  # Run for this many steps
Neighbor list info ...
  update every 1 steps, delay 10 steps, check yes
  max neighbors/atom: 2000, page size: 100000
  master list distance cutoff = 3.8
  ghost atom cutoff = 3.8
  binsize = 1.9, bins = 9 9 9
  4 neighbor lists, perpetual/occasional/extra = 1 3 0
  (1) pair lj/cut, perpetual
      attributes: half, newton on
      pair build: half/bin/atomonly/newton
      stencil: half/bin/3d
      bin: standard
  (2) compute orientorder/atom, occasional
      attributes: full, newton on
      pair build: full/bin/atomonly
      stencil: full/bin/3d
      bin: standard
  (3) compute coord/atom, occasional
      attributes: full, newton on
      pair build: full/bin/atomonly
      stencil: full/bin/3d
      bin: standard
  (4) compute cluster/atom, occasional
      attributes: full, newton on
      pair build: full/bin/atomonly
      stencil: full/bin/3d
      bin: standard
Per MPI rank memory allocation (min/avg/max) = 9.531 | 9.536 | 9.541 Mbytes
Step Temp PotEng Volume v_max_n 
    4000   0.20806268   -7.3737969    3746.1753           75 
    4100   0.16831923   -7.4385026    3726.5278           73 
    4200   0.13362736   -7.4806516    3712.3416           77 
    4300   0.11320328   -7.5119906    3701.2474           61 
    4400   0.09906261   -7.5349263    3692.2635           73 
    4500  0.088692708   -7.5502146    3685.0554           83 
    4600  0.081629719   -7.5607314    3678.6082           82 
    4700  0.076222105   -7.5730443    3677.3432           53 
    4800  0.073175182   -7.5862229    3678.2262           73 
    4900  0.070888644   -7.5949426    3678.2991           66 
    5000   0.07139717   -7.6018953    3676.4446           99 
    5100  0.070105375   -7.6045966     3674.635           83 
    5200  0.070090456    -7.605801    3672.5893           81 
    5300  0.070215724   -7.6077748    3670.6451           95 
    5400  0.071410434   -7.6110937    3668.7484           71 
    5500  0.071311951   -7.6135655    3668.0222           88 
    5600  0.070562375   -7.6167358    3668.1227           83 
    5700  0.071455659   -7.6223348    3668.7723           93 
    5800  0.070548744   -7.6278183    3669.3584          154 
    5900  0.069503083   -7.6319217    3669.5802          107 
    6000  0.069506832   -7.6302915    3668.0837           92 
    6100  0.070666626   -7.6241723    3665.9651          106 
    6200  0.070076715   -7.6239256     3663.456          199 
    6300  0.069204829    -7.626453    3663.5906          149 
    6400  0.069236213   -7.6303749    3664.2257          205 
    6500  0.070969017   -7.6327766    3665.1855          302 
    6600  0.069913776   -7.6335123     3665.911          286 
    6700  0.069737425   -7.6355722    3666.1351          177 
    6800  0.071078614   -7.6334895    3666.0707          144 
    6900  0.071846033   -7.6370545    3663.7567          235 
    7000  0.069705041   -7.6377563    3661.6819          273 
    7100  0.070260624   -7.6382296    3660.2076          271 
    7200  0.070397035   -7.6402812    3659.7811          210 
    7300  0.069872274   -7.6452895    3660.6603          147 
    7400  0.069958757   -7.6501174    3664.6732          126 
    7500  0.071204149   -7.6519646    3667.7279          156 
    7600  0.070724367   -7.6510159    3663.9213          145 
    7700  0.070673542   -7.6487024    3660.6265          124 
    7800  0.070090441   -7.6491207    3658.5311          149 
    7900  0.069993156   -7.6477611    3657.7108          173 
    8000  0.072865743   -7.6494813    3657.7155          297 
    8100  0.069949976   -7.6517371    3658.6616          253 
    8200    0.0697306   -7.6556364    3659.2803          303 
    8300  0.070919837   -7.6557823    3660.6256          200 
    8400  0.071389516   -7.6561708    3660.1473          161 
    8500  0.071171372   -7.6579643    3658.3019          198 
    8600  0.069628462   -7.6557673     3656.237          148 
    8700  0.069982783   -7.6514824     3654.459          149 
    8800  0.070980398   -7.6494942    3654.5456          266 
    8900  0.070717444   -7.6564227    3656.2026          230 
    9000  0.069723089   -7.6607233    3658.7338          286 
    9100   0.07066314   -7.6596486    3659.7877          363 
    9200  0.070913111   -7.6613325    3658.7964          190 
    9300  0.070104812   -7.6604666    3657.4593          205 
    9400  0.068860798   -7.6596263    3656.2651          159 
    9500  0.070119301   -7.6574921    3655.7164          144 
    9600  0.070582575   -7.6565725     3655.742          163 
    9700  0.070461604   -7.6589317    3656.3265          425 
    9800  0.070387473   -7.6624735    3657.2336          342 
    9900  0.068039515   -7.6637026    3658.5961          427 
   10000  0.070864165   -7.6639196    3659.3671          307 
   10100  0.069799729   -7.6637266    3657.8875          313 
   10200  0.068725425     -7.66051    3655.2469          367 
   10300  0.072089972   -7.6597954    3652.1246          334 
   10400  0.067899618   -7.6589388    3652.8929          336 
   10500  0.070352264   -7.6619995    3655.1722          376 
   10600  0.070556018   -7.6638626     3656.646          334 
   10700  0.068491037   -7.6658393    3656.4516          417 
   10800  0.070359645   -7.6654725    3656.8284          331 
   10900  0.071409462   -7.6651575    3656.4067          396 
   11000  0.069309026   -7.6638424    3655.4312          354 
   11100  0.070286356   -7.6639044    3654.6644          406 
   11200  0.070709198   -7.6638653    3654.0933          459 
   11300  0.067978292   -7.6646301    3654.5758          447 
   11400  0.070583036    -7.667488    3656.2225          448 
   11500  0.070232559    -7.670783    3658.8445          351 
   11600  0.069858189    -7.674626    3658.2564          283 
   11700  0.070220163   -7.6719878    3656.0665          324 
   11800  0.069560739   -7.6654918    3654.2875          312 
   11900  0.067890467   -7.6642957    3652.7259          425 
   12000  0.070461397     -7.66562    3652.6849          442 
   12100  0.070339426   -7.6670137    3653.9774          452 
   12200  0.068744235   -7.6686829    3655.2749          313 
   12300  0.068749725   -7.6718641    3655.7823          310 
   12400  0.070228577   -7.6701074    3656.3967          402 
   12500  0.069334559   -7.6697518    3655.6323          342 
   12600  0.070877161    -7.670009    3653.5297          331 
   12700  0.070785615   -7.6660426    3652.5607          437 
   12800   0.07072391   -7.6629529    3652.1358          432 
   12900  0.070058579   -7.6665021     3652.729          362 
   13000  0.069039395   -7.6715752    3655.9123          331 
   13100   0.06987418   -7.6729004     3658.502          365 
   13200  0.071136601   -7.6730126    3657.1926          324 
   13300  0.069446316   -7.6710908    3655.2333          327 
   13400  0.071147447   -7.6696423    3653.7059          319 
   13500  0.070252783   -7.6662165     3653.315          421 
   13600  0.070094209   -7.6674137    3652.9492          374 
   13700  0.070829374   -7.6699522    3653.2651          361 
   13800  0.070245782   -7.6702674    3655.0587          444 
   13900  0.070171586   -7.6722724    3656.1392          448 
   14000  0.068578979   -7.6732508    3656.4581          328 
   14100  0.070397017   -7.6713598    3655.8806          318 
   14200  0.070378946    -7.667775     3653.471          353 
   14300  0.071099286   -7.6643695    3651.4112          378 
   14400  0.070080774   -7.6662541    3650.8627          341 
   14500  0.070608299   -7.6680845    3653.1429          485 
   14600  0.071730337   -7.6701564    3655.2756          332 
   14700  0.068989993   -7.6719673    3656.0231          375 
   14800  0.069957963   -7.6719282    3655.4597          499 
   14900  0.071484339   -7.6706483    3655.3426          327 
   15000  0.069475349   -7.6691606    3654.0652          342 
   15100  0.069065656   -7.6692836    3653.1969          190 
   15200  0.071069586   -7.6679633    3653.6437          367 
   15300  0.070273312   -7.6697702    3653.4868          344 
   15400  0.070689821   -7.6731528    3654.5636          333 
   15500  0.070119767   -7.6743127     3657.048          296 
   15600  0.069935818   -7.6755777    3657.8718          289 
   15700  0.069468271   -7.6735025    3655.6786          372 
   15800  0.070146666   -7.6678754    3653.2815          294 
   15900  0.071017747    -7.663591    3652.4998          312 
   16000  0.070286954   -7.6667153    3652.2469          313 
   16100   0.06912529   -7.6697662    3653.2305          341 
   16200  0.070900008    -7.672059    3654.5928          443 
   16300  0.070191839   -7.6712621    3655.7133          462 
   16400  0.069307024   -7.6728264    3655.3371          450 
   16500  0.070195801   -7.6708473    3654.6843          309 
   16600  0.070543489   -7.6693003    3654.1075          326 
   16700  0.069333799   -7.6685509    3652.8596          302 
   16800  0.070341055    -7.667976    3652.5035          478 
   16900  0.070000302   -7.6705314    3652.6879          457 
   17000  0.069910771   -7.6718346    3655.1504          449 
   17100   0.07114927   -7.6745035    3657.6557          339 
   17200  0.070250012   -7.6755927    3657.7829          336 
   17300  0.069100705   -7.6720882    3655.8964          314 
   17400  0.069376855   -7.6713504    3652.6657          375 
   17500  0.070503861    -7.668491    3652.3981          469 
   17600  0.069350499   -7.6687362    3652.6061          468 
   17700  0.069262329   -7.6692097    3653.6997          317 
   17800  0.071935262   -7.6717679    3654.3428          462 
   17900  0.069479654    -7.672341    3655.1146          461 
   18000  0.069415783   -7.6712493    3655.5054          437 
   18100  0.069767907   -7.6709467    3654.9145          359 
   18200   0.06903812   -7.6714098    3653.1499          482 
   18300  0.070231137   -7.6661893    3651.2388          451 
   18400  0.071217098   -7.6659785     3649.828          469 
   18500  0.069812896   -7.6687876    3652.1326          501 
   18600  0.071624064   -7.6738701    3654.9691          488 
   18700  0.069262057   -7.6760936    3655.8712          469 
   18800  0.069778437   -7.6740905    3655.8878          352 
   18900  0.070285675   -7.6716724    3654.9349          338 
   19000  0.068043123   -7.6701974    3653.2792          345 
   19100  0.069646082   -7.6723364    3651.5454          474 
   19200  0.069857225   -7.6689243    3652.9454          501 
   19300  0.069193303    -7.669884    3653.7037          508 
   19400  0.069032605    -7.673605    3654.2434          426 
   19500  0.071194572    -7.674142     3655.565          325 
   19600  0.070626088    -7.675696    3655.0491          486 
   19700   0.06978044    -7.674338    3653.9152          479 
   19800  0.071061327   -7.6705442    3652.6818          466 
   19900  0.070230419   -7.6700609    3651.2489          367 
   20000  0.070691409   -7.6698555    3651.0056          517 
   20100  0.069567071   -7.6721918    3652.1603          540 
   20200  0.070172858   -7.6760944    3653.8549          327 
   20300  0.069649201   -7.6751478    3656.3513          290 
   20400  0.070251041   -7.6763737    3655.9291          493 
   20500  0.068746911    -7.675326    3653.9761          568 
   20600  0.069845628   -7.6710014    3652.1048          288 
   20700  0.069560277   -7.6688251    3650.7904          470 
   20800  0.069751108   -7.6723939    3650.6633          184 
   20900  0.071667823   -7.6732511     3652.634          297 
   21000  0.071168257   -7.6728962    3654.0315          458 
   21100  0.069228887    -7.675023    3653.9838          228 
   21200  0.070147984   -7.6745383    3653.9444          430 
   21300  0.070437644   -7.6717958    3654.0535          304 
   21400  0.070185231   -7.6727658    3652.7098          432 
   21500   0.07014389   -7.6728193    3651.9845          475 
   21600  0.069338565   -7.6709801     3651.637          457 
   21700  0.070856516   -7.6723787    3652.2321          477 
   21800  0.070317893   -7.6768078    3654.4261          276 
   21900   0.06984935    -7.680373    3656.0932          356 
   22000  0.070399558   -7.6770983    3656.3183          332 
   22100  0.070279751   -7.6760015    3653.7975          423 
   22200  0.069793036   -7.6737987    3651.5859          445 
   22300  0.070778205   -7.6700254    3651.8237          313 
   22400  0.070975589   -7.6725668    3651.2275          258 
   22500  0.070233975   -7.6752115    3651.9892          449 
   22600  0.068461347   -7.6765314    3653.1896          294 
   22700  0.070370316   -7.6761425    3653.7814          324 
   22800  0.071647285   -7.6781986    3653.1207          482 
   22900  0.068711889   -7.6772273    3652.4009          336 
   23000  0.070078138   -7.6750404    3651.9349          500 
   23100  0.070611715   -7.6732279    3651.8391          441 
   23200    0.0694992    -7.674377    3651.8639          489 
   23300  0.070167534   -7.6761845    3651.8673          492 
   23400  0.070417842   -7.6777878    3652.8858          342 
   23500  0.070198438    -7.679479    3654.4745          369 
   23600  0.070950615   -7.6805852    3654.7204          341 
   23700   0.07064672   -7.6776219    3653.2441          337 
   23800  0.069612206   -7.6747511     3650.177          515 
   23900  0.070931489   -7.6703505    3649.8092          330 
   24000  0.069043646    -7.672183    3650.1308          344 
   24100  0.070381256   -7.6761467    3651.5142          354 
   24200  0.068306964   -7.6774611     3653.356          343 
   24300  0.072051658   -7.6802543    3653.4949          334 
   24400  0.069423587   -7.6784186    3653.4683          196 
   24500  0.069250928   -7.6788959    3652.1935          196 
   24600  0.071229514   -7.6769102    3651.1144          328 
   24700  0.069855327   -7.6736922    3650.7693          347 
   24800  0.071308394   -7.6726373    3651.3915          325 
   24900  0.071270074   -7.6765486    3651.5301          365 
   25000  0.068974105   -7.6782042    3653.4078          294 
   25100  0.068149047   -7.6825476    3653.9815          321 
   25200  0.070491716   -7.6809645     3654.261          293 
   25300  0.070606605    -7.677836    3652.8807          320 
   25400  0.068021298   -7.6748251    3650.1692          206 
   25500  0.070347683    -7.672027    3648.7685          485 
   25600  0.070943481   -7.6740786    3649.3946          530 
   25700  0.068746585    -7.677494    3651.3852          175 
   25800  0.070630833   -7.6785521    3653.2053          186 
   25900  0.070544213   -7.6777812    3654.0686          337 
   26000  0.069396072   -7.6790725    3653.0063          395 
   26100   0.06996154   -7.6779558    3652.1868          196 
   26200  0.071573167   -7.6754711    3651.7997          178 
   26300  0.070297186   -7.6756234     3651.278          314 
   26400  0.068862457   -7.6761374    3650.8912          314 
   26500  0.070890165   -7.6785121    3651.6911          185 
   26600  0.068575665   -7.6808732    3652.7409          319 
   26700  0.069944577   -7.6820733    3654.7641          153 
   26800  0.070237109   -7.6822606     3654.601          188 
   26900  0.068745144   -7.6792927    3652.1302          447 
   27000  0.070880739   -7.6750438    3649.7635          488 
   27100  0.070003941    -7.674376    3649.0653          326 
   27200  0.068996123   -7.6779717    3649.3451          447 
   27300  0.069593541   -7.6781977    3651.8756          312 
   27400  0.069654467   -7.6802123    3653.2293          300 
   27500  0.071040029    -7.682011    3653.3705          478 
   27600  0.070110868   -7.6803385    3653.2266          169 
   27700  0.069977213   -7.6762549    3652.3491          464 
   27800  0.070012444   -7.6786585    3649.8595          456 
   27900  0.069621843   -7.6764965    3649.3677          296 
   28000  0.071400555   -7.6764312    3650.0256          567 
   28100  0.070169121   -7.6797748     3651.478          548 
   28200   0.06876004   -7.6796476    3653.9978          513 
   28300  0.070252932   -7.6818185    3655.5481          472 
   28400  0.070752356   -7.6842329    3653.9579          470 
   28500  0.070587943   -7.6793262    3651.4523          516 
   28600  0.070220551   -7.6740793    3649.7431          491 
   28700  0.068857192    -7.676334    3649.4052          483 
   28800  0.070959534   -7.6776798    3650.6313          481 
   28900  0.069440859   -7.6786098    3651.6998          309 
   29000  0.068999936   -7.6813988     3652.269          470 
   29100  0.072120766   -7.6813592    3652.6368          450 
   29200  0.070595799   -7.6803838    3652.6043          371 
   29300  0.069752604   -7.6790761    3651.6934          491 
   29400  0.069765158   -7.6773081    3650.6848          562 
   29500  0.068930815   -7.6752327    3649.7354          467 
   29600  0.070334022   -7.6750308     3650.101          330 
   29700   0.06874052    -7.678435    3652.1394          326 
   29800  0.070044581   -7.6821581    3655.4264          476 
   29900  0.071095971   -7.6838853    3655.8186          473 
   30000  0.068914433   -7.6818529    3653.6191          322 
   30100  0.071029038   -7.6788513    3651.8009          497 
   30200  0.070733988   -7.6776852    3650.0965          501 
   30300   0.06907429   -7.6757801    3650.3969          328 
   30400  0.070488294   -7.6774063    3650.5757          478 
   30500  0.070375521    -7.678173    3652.1232          503 
   30600  0.070246835   -7.6804621    3652.9735          476 
   30700  0.068068052   -7.6817781    3653.2168          460 
   30800  0.068570657   -7.6822979    3652.2901          303 
   30900  0.070179067   -7.6784216    3651.4758          316 
   31000  0.071647263   -7.6749905    3648.9742          521 
   31100  0.069191079   -7.6728706    3646.4339          314 
   31200  0.069414558   -7.6740677    3648.4273          308 
   31300  0.068901679   -7.6777799    3652.9835          502 
   31400  0.070961263   -7.6801206    3654.5901          325 
   31500  0.069132296   -7.6812468    3654.0528          312 
   31600  0.070846648   -7.6797791    3653.1959          175 
   31700  0.069015681   -7.6783571    3651.1689          337 
   31800  0.069151246   -7.6749945    3650.4279          159 
   31900  0.069113305   -7.6742517    3650.4464          445 
   32000  0.069374366   -7.6780326    3650.6567          332 
   32100  0.068902152   -7.6807182    3651.7542          161 
   32200  0.070516595   -7.6810181    3653.6431          197 
   32300  0.069368881   -7.6811149    3654.4691          485 
   32400  0.068452241   -7.6821248    3653.2434          309 
   32500  0.069708252   -7.6760943    3651.2575          326 
   32600  0.069989667   -7.6728139    3648.3543          321 
   32700  0.068553063   -7.6743228    3647.8398          314 
   32800  0.069708115   -7.6774101    3650.2501          303 
   32900  0.070387846   -7.6794567    3652.0391          375 
   33000  0.070901382   -7.6783575    3653.4603          491 
   33100  0.071509135   -7.6805525    3652.8973          169 
   33200  0.070280687   -7.6801724    3652.1117          361 
   33300  0.069848175   -7.6787201    3650.9242          310 
   33400  0.070403322   -7.6759892    3650.6639          323 
   33500  0.070438062   -7.6753997    3650.5909          333 
   33600   0.06978434   -7.6782518    3650.6133          459 
   33700  0.071271886   -7.6799023    3652.8458          352 
   33800  0.070139913    -7.681905    3655.0613          319 
   33900  0.068998674   -7.6847208    3655.4455          314 
   34000  0.070782027   -7.6818219    3653.4763          500 
   34100  0.069844827    -7.675088    3650.5481          319 
   34200  0.071442566   -7.6751978    3649.6235          323 
   34300   0.06929088   -7.6771345    3650.1707          322 
   34400  0.069512462   -7.6781538    3651.2224          369 
   34500   0.06889238   -7.6780125    3652.6769          327 
   34600  0.072581701   -7.6791331     3653.393          308 
   34700  0.070471017   -7.6799938    3652.9954          324 
   34800  0.069518085   -7.6799753    3652.0178          477 
   34900   0.06938432   -7.6802501    3650.4519          333 
   35000  0.070828727   -7.6756397    3649.8393          517 
   35100  0.069961439   -7.6753771    3648.7082          327 
   35200   0.06985266   -7.6781688    3650.1308          362 
   35300  0.069943539   -7.6811472    3653.8154          333 
   35400  0.070338407   -7.6828232    3655.6655          331 
   35500  0.069239775   -7.6832539    3654.2382          305 
   35600  0.069343046   -7.6792062    3652.7012          475 
   35700   0.07050978   -7.6759087    3651.1581          325 
   35800  0.070809839   -7.6761076    3649.7352          310 
   35900  0.068192434    -7.677012    3649.8399          335 
   36000  0.069496393   -7.6784909    3651.3593          310 
   36100  0.068826731   -7.6788269    3652.9347          330 
   36200  0.070510003   -7.6801014    3653.8663          327 
   36300  0.068970662   -7.6817266     3653.502          180 
   36400  0.069421272   -7.6800514     3652.236          181 
   36500  0.071063469   -7.6752651    3649.5545          170 
   36600  0.071190727   -7.6720966    3646.4734          161 
   36700  0.068798457   -7.6734288    3648.3137          347 
   36800  0.068839265   -7.6779811    3650.7999          316 
   36900  0.071496839   -7.6802075    3653.0906          327 
   37000  0.069314424   -7.6801159    3654.0721          279 
   37100  0.069661998   -7.6804518    3653.3682          353 
   37200  0.068534067   -7.6804728    3651.5931          481 
   37300   0.06993037   -7.6762509    3650.9731          299 
   37400  0.069988968   -7.6768741    3649.9274          164 
   37500  0.070225502   -7.6767054    3650.2411          180 
   37600  0.069368531   -7.6748908    3652.2914          283 
   37700  0.070415908   -7.6832877    3653.6645          446 
   37800  0.069809693    -7.688587    3657.3882          428 
   37900  0.069147048   -7.6828976    3656.5128          439 
   38000  0.069797873    -7.679739      3652.29          462 
   38100  0.070246249   -7.6773488    3650.2835          499 
   38200  0.070020208   -7.6758969     3649.655          506 
   38300  0.069245073   -7.6771051    3650.2429          526 
   38400  0.068663857   -7.6794942    3651.3082          469 
   38500  0.070554277   -7.6801836    3653.1201          512 
   38600  0.068797009   -7.6818894    3653.4084          528 
   38700  0.069202604   -7.6807749    3653.0624          339 
   38800  0.071363634   -7.6794778    3651.8774          386 
   38900  0.069360923   -7.6762057    3650.3675          526 
   39000  0.068670201   -7.6759132    3647.8387          480 
   39100  0.069258511   -7.6754007    3647.9237          342 
   39200  0.069185798   -7.6766815    3652.1909          480 
   39300  0.071058737   -7.6830845    3653.9314          483 
   39400  0.070772327   -7.6834455    3654.0753          538 
   39500  0.069336561   -7.6811599    3653.0994          460 
   39600  0.070134871   -7.6779186    3652.1936          488 
   39700  0.069657452     -7.67718    3650.7692          329 
   39800  0.069516338   -7.6772609    3650.1899          502 
   39900  0.071140335    -7.678248    3650.4945          472 
   40000  0.070185273   -7.6776706    3652.0625          571 
   40100  0.069474833   -7.6813142     3652.996          381 
   40200  0.069792341   -7.6820241    3653.9403          381 
   40300  0.072090945   -7.6826093    3654.8166          364 
   40400  0.069853805   -7.6789055    3651.7859          548 
   40500  0.068467515   -7.6732162     3648.482          472 
   40600  0.071135061   -7.6732058    3647.7577          529 
   40700  0.068899223   -7.6763636    3649.1923          497 
   40800  0.069650633   -7.6793184     3651.734          482 
   40900  0.070857654   -7.6822249     3653.031          482 
   41000  0.070315964   -7.6801405    3653.9832          357 
   41100  0.069453038    -7.681699    3652.4611          383 
   41200  0.069968371   -7.6793166    3651.6749          488 
   41300   0.06970463   -7.6767316    3650.7721          467 
   41400  0.068200834   -7.6775884    3649.8249          337 
   41500  0.070175262   -7.6775908    3650.7851          336 
   41600  0.070281773   -7.6804409    3651.6564          541 
   41700   0.06793677   -7.6833785    3653.4042          470 
   41800  0.068505477    -7.684305    3655.3366          577 
   41900  0.070994794   -7.6825938    3654.6168          326 
   42000  0.069774339   -7.6792046    3650.8006          512 
   42100  0.068795093   -7.6759651    3649.3199          325 
   42200  0.070328389   -7.6746108    3649.6387          527 
   42300  0.069737088   -7.6785504    3650.2503          449 
   42400  0.070579653   -7.6805721    3651.5981          479 
   42500  0.070288034   -7.6810155     3652.938          452 
   42600  0.069425131   -7.6805987    3653.6491          444 
   42700  0.068670233   -7.6811994    3652.3696          434 
   42800  0.069616513   -7.6782812    3651.3193          330 
   42900  0.070317256   -7.6749312    3650.7055          491 
   43000   0.07041517    -7.674593    3649.5686          325 
   43100  0.070117848   -7.6781925     3649.478          453 
   43200  0.070753835   -7.6808856    3652.7628          477 
   43300  0.070587952   -7.6845912    3656.2669          552 
   43400  0.068688199   -7.6839622    3655.6915          517 
   43500  0.070123875   -7.6803443    3653.4492          319 
   43600  0.070669725   -7.6761477    3651.9181          477 
   43700  0.071247236    -7.678173    3649.5149          373 
   43800   0.06978219   -7.6785649    3649.3272          356 
   43900  0.070970113   -7.6776435    3650.8546          541 
   44000  0.069600679   -7.6795014    3652.2861          510 
   44100   0.06961337    -7.681983    3653.1954          493 
   44200  0.069988241   -7.6814201    3653.9308          494 
   44300  0.072046823   -7.6810511    3652.6532          471 
   44400  0.069117059   -7.6783635    3650.6398          544 
   44500  0.068722707   -7.6751228    3648.4546          564 
   44600  0.071396364   -7.6734442    3647.9201          531 
   44700  0.069867181   -7.6769526    3649.7356          502 
   44800  0.070627404   -7.6817593    3652.2694          475 
   44900  0.068638391   -7.6807142    3653.8421          314 
   45000  0.071312044   -7.6806918    3653.5615          421 
   45100  0.069628071   -7.6809115    3652.0929          341 
   45200  0.070438457   -7.6793189    3651.0058          501 
   45300  0.070513976   -7.6764866    3651.0142          324 
   45400     0.070313   -7.6771226    3650.5738          326 
   45500   0.06905935   -7.6788151    3651.1581          475 
   45600  0.070414583   -7.6794776    3652.6973          566 
   45700  0.068995817   -7.6814907    3653.4176          373 
   45800  0.069870327   -7.6816568    3652.9441          506 
   45900  0.072217046   -7.6795292    3652.5653          376 
   46000  0.071478747   -7.6785015    3650.8817          478 
   46100  0.069880481   -7.6765347    3649.5365          343 
   46200  0.068620044   -7.6765456    3649.1075          469 
   46300  0.069648265   -7.6762137    3651.4117          496 
   46400  0.070143987   -7.6799858     3653.406          464 
   46500   0.07114053   -7.6863626    3654.5114          536 
   46600  0.070187368   -7.6846318     3654.861          432 
   46700  0.071576221   -7.6801349    3652.7847          489 
   46800  0.068921361   -7.6774356    3650.3711          339 
   46900  0.069846088   -7.6771123    3650.1249          514 
   47000  0.070288623   -7.6785057    3650.5065          529 
   47100  0.069925544   -7.6814589    3650.6759          483 
   47200  0.070299004   -7.6793003    3652.2918          447 
   47300  0.069943934   -7.6813577     3652.663          454 
   47400  0.068558492   -7.6807752    3652.5417          494 
   47500  0.070778247   -7.6792236    3652.1933          316 
   47600   0.06895583    -7.678177    3650.6568          462 
   47700  0.070285002   -7.6768168    3648.6174          502 
   47800  0.071087272   -7.6731744    3648.2603          340 
   47900   0.07102945    -7.678244    3650.6131          499 
   48000  0.070410308   -7.6836918    3653.2975          478 
   48100    0.0707425   -7.6835147    3654.6701          405 
   48200  0.072086371   -7.6815173    3654.0958          447 
   48300  0.069934214   -7.6798345    3652.3657          551 
   48400  0.069156624    -7.679077    3650.3896          360 
   48500  0.068160658   -7.6763255    3649.9352          457 
   48600  0.071134761   -7.6784985    3650.1339          464 
   48700  0.069726992   -7.6792269    3651.3846          493 
   48800  0.069304265   -7.6817343    3652.3207          520 
   48900  0.071903525   -7.6818661    3653.1291          382 
   49000  0.069771212   -7.6810145    3653.6674          356 
   49100  0.070080966   -7.6804675    3651.9308          550 
   49200  0.069319374   -7.6776304    3650.0753          379 
   49300  0.070933946   -7.6745611    3648.5926          364 
   49400  0.068456169   -7.6737363     3648.894          338 
   49500  0.068893611   -7.6808179    3650.6269          456 
   49600  0.069887439   -7.6818756    3653.6097          336 
   49700  0.070723604   -7.6821484    3653.6458          505 
   49800  0.068524477   -7.6815629    3652.4054          479 
   49900  0.070004732   -7.6800831    3651.6325          450 
   50000  0.071183478   -7.6797554    3650.9026          465 
   50100  0.070896764   -7.6788411    3650.5407          477 
   50200  0.069188256   -7.6805378    3650.3474          499 
   50300  0.070581646   -7.6802047    3651.1048          362 
   50400  0.069217743   -7.6796214    3653.0825          494 
   50500   0.07244473   -7.6816799    3653.8688          465 
   50600  0.070946171   -7.6838353     3653.117          362 
   50700  0.069911362   -7.6801466    3651.5801          522 
   50800  0.069234406   -7.6739413    3650.2243          528 
   50900  0.070596608   -7.6758129    3648.1757          520 
   51000  0.070216843   -7.6778776    3649.3604          522 
   51100  0.070513703     -7.67988    3651.5906          465 
   51200  0.070891802   -7.6802633    3653.6059          475 
   51300  0.069969446   -7.6827185    3652.9686          429 
   51400  0.068986102   -7.6805577    3652.9713          461 
   51500  0.070186985   -7.6780975    3652.0529          533 
   51600  0.070129898   -7.6790014    3650.3409          528 
   51700  0.069053734   -7.6787157    3650.2432          470 
   51800  0.070829977   -7.6783182    3651.1225          535 
   51900  0.070632892    -7.679514    3651.4976          515 
   52000  0.070292453    -7.682232    3651.2881          343 
   52100  0.069713409   -7.6788764    3652.2022          509 
   52200  0.070118357   -7.6794846    3652.0576          532 
   52300   0.06855385   -7.6803396    3651.4257          524 
   52400  0.069025646   -7.6795172    3651.0684          483 
   52500  0.071378034   -7.6788882    3650.9192          516 
   52600   0.06911959   -7.6794579    3650.6677          484 
   52700  0.070198754   -7.6794187    3651.7813          523 
   52800   0.07052736   -7.6819693    3653.0694          323 
   52900  0.070547896   -7.6826766    3653.7081          446 
   53000  0.069782794   -7.6814808    3653.0177          507 
   53100  0.068898967   -7.6805075    3651.0028          319 
   53200  0.070154548   -7.6763073    3649.5276          450 
   53300  0.071333495   -7.6745311    3649.2086          425 
   53400  0.070284675    -7.677911    3649.6494          512 
   53500   0.06963258   -7.6802118    3651.6261          316 
   53600  0.071619515    -7.680799    3653.1533          462 
   53700   0.07008001   -7.6818012    3652.8023          444 
   53800  0.070434031   -7.6806945     3652.164          416 
   53900  0.070815293    -7.677903    3652.0267          330 
   54000  0.069445283   -7.6774451    3651.4182          378 
   54100  0.069127857   -7.6779836    3650.8477          379 
   54200   0.07243628   -7.6774337    3651.6117          520 
   54300  0.071731183   -7.6800247    3651.5703          534 
   54400  0.068317663   -7.6796467     3652.961          513 
   54500  0.071431161   -7.6820621    3653.7678          465 
   54600  0.069538336   -7.6820843    3653.2475          490 
   54700  0.069669119   -7.6798716    3650.8027          517 
   54800  0.071295713   -7.6761302    3649.4435          290 
   54900    0.0690032   -7.6754029    3649.0113          477 
   55000  0.069838635   -7.6785864    3649.7541          471 
   55100  0.070259825   -7.6790052    3652.2453          432 
   55200   0.06970976   -7.6802521    3653.3546          474 
   55300  0.069514514   -7.6825219    3652.9795          386 
   55400  0.069594674   -7.6812557    3651.9803          308 
   55500  0.070820191   -7.6790534    3651.3776          511 
   55600  0.067820888   -7.6795498    3650.6837          481 
   55700  0.069830049   -7.6808907    3650.8653          467 
   55800  0.069040125   -7.6779468    3651.8081          228 
   55900  0.069671345   -7.6773163    3652.2698          475 
   56000  0.070710115   -7.6794618    3652.1664          474 
   56100  0.068774698   -7.6794644    3652.1847          462 
   56200  0.071201398   -7.6790691    3652.0613          469 
   56300  0.069418265   -7.6799804    3651.2724          516 
   56400  0.069516781   -7.6787443    3650.9511          499 
   56500  0.070659233   -7.6775717    3650.8159          481 
   56600  0.069422036   -7.6785313     3651.011          457 
   56700  0.070164402   -7.6811824    3651.5594          476 
   56800  0.070703407   -7.6804794    3653.1324          504 
   56900  0.069300155   -7.6817173    3653.3394          455 
   57000  0.069265396   -7.6813423    3652.3086          481 
   57100    0.0693687   -7.6779395    3651.1026          368 
   57200  0.069966639   -7.6757142    3649.6023          539 
   57300  0.070400679   -7.6753451    3649.3064          361 
   57400   0.07097475    -7.678508    3650.2921          464 
   57500  0.069084421   -7.6813144    3652.3051          468 
   57600  0.070365933   -7.6812446    3654.4948          453 
   57700  0.070933879   -7.6835302    3653.5189          505 
   57800  0.069727837   -7.6814824    3652.1081          497 
   57900  0.071267699   -7.6793195    3651.2995          483 
   58000  0.070435856   -7.6782111    3650.9487          497 
   58100  0.069229258   -7.6785609    3650.9736          531 
   58200  0.068440997    -7.680575    3651.2066          469 
   58300   0.07088974   -7.6811147     3651.395          551 
   58400  0.070445433   -7.6791149    3652.6146          502 
   58500  0.069786144   -7.6814021    3652.2471          455 
   58600  0.070240693   -7.6806814    3652.0273          489 
   58700  0.070533292   -7.6774375    3651.1932          370 
   58800  0.069853376   -7.6746836    3649.3544          541 
   58900  0.070042835   -7.6771337    3648.7695          480 
   59000  0.071359908   -7.6780133     3650.645          459 
   59100  0.071481047   -7.6803554    3652.6924          446 
   59200   0.06863938    -7.682653    3653.8765          471 
   59300  0.071331437   -7.6829177    3653.5997          485 
   59400  0.070079317   -7.6793963    3652.6112          354 
   59500  0.071130295   -7.6795362    3650.6917          360 
   59600   0.06850964   -7.6791582    3650.0356          472 
   59700  0.069614396   -7.6789846    3650.5829          453 
   59800  0.070107008   -7.6787169    3651.5698          473 
   59900  0.069120476   -7.6805138    3651.5816          497 
   60000   0.06887174   -7.6801487    3652.0129          462 
   60100  0.070107381   -7.6786044    3652.6273          470 
   60200  0.069466852   -7.6803928    3651.7214          572 
   60300  0.070755195   -7.6806771    3650.9764          342 
   60400  0.069468264   -7.6767614    3651.6821          352 
   60500  0.069922462   -7.6794612    3650.9184          391 
   60600  0.069321898   -7.6796377     3651.138          475 
   60700   0.06981028   -7.6803524    3652.3966          355 
   60800  0.069735236   -7.6803761    3653.0889          339 
   60900    0.0696472   -7.6811287    3652.7863          525 
   61000  0.068523244   -7.6797517    3651.9359          324 
   61100  0.069902737    -7.676495    3651.1159          446 
   61200  0.069180752   -7.6769503    3649.5117          461 
   61300  0.068893803   -7.6763848    3649.9163          470 
   61400  0.070001819    -7.677751    3651.4643          535 
   61500  0.069509762   -7.6829223    3653.0716          506 
   61600  0.069150157   -7.6845078    3654.7601          453 
   61700  0.069735311   -7.6827708    3654.5113          453 
   61800  0.071162242   -7.6801872    3652.0935          332 
   61900  0.069130888   -7.6775399    3649.8422          371 
   62000  0.071118701   -7.6770292    3649.7874          379 
   62100  0.069768633    -7.677018    3651.1235          534 
   62200  0.068782504    -7.678589    3651.8143          518 
   62300  0.069915408   -7.6794855    3652.5905          582 
   62400  0.070416433   -7.6795231    3653.0024          322 
   62500  0.070425299   -7.6808636    3652.2371          510 
   62600  0.069291666   -7.6794792    3651.8285          528 
   62700   0.07048696    -7.676276    3651.2497          487 
   62800  0.069918837    -7.677122    3649.5111          468 
   62900  0.068572686   -7.6760153    3649.4226          494 
   63000  0.071579296    -7.679043    3651.8516          455 
   63100  0.070241241   -7.6829664    3653.9916          306 
   63200  0.069887842   -7.6844915    3654.4619          464 
   63300  0.071491407   -7.6814355    3653.7375          327 
   63400  0.069500389    -7.678497    3652.0799          521 
   63500  0.069766435   -7.6772383    3650.4882          476 
   63600  0.069864195   -7.6767622     3650.136          321 
   63700  0.069386682    -7.679658    3650.1921          477 
   63800   0.06992985   -7.6799773    3651.6042          452 
   63900  0.070936657   -7.6806507    3652.4739          457 
   64000  0.068516133   -7.6821028    3652.4554          357 
   64100  0.070416338   -7.6814777      3652.05          472 
   64200  0.070345928   -7.6797187    3651.6187          487 
   64300  0.069991659   -7.6774574    3651.4459          483 
   64400  0.069350841   -7.6790033    3650.9521          506 
   64500  0.069542884   -7.6794896    3650.9516          378 
   64600  0.070721828   -7.6789224    3651.7966          550 
   64700  0.070080753   -7.6803944    3652.0064          470 
   64800  0.068166597   -7.6814405    3652.4412          439 
   64900  0.068884206    -7.679402    3652.9843          544 
   65000  0.070316318   -7.6785178    3651.5559          449 
   65100  0.070187867   -7.6778179    3649.0488          460 
   65200  0.070772708   -7.6742327    3648.7488          362 
   65300  0.070757237   -7.6763291    3649.9445          403 
   65400   0.06918176   -7.6802894    3651.5909          318 
   65500  0.069793991   -7.6811878    3653.8499          318 
   65600  0.070254797   -7.6820022    3654.1405          330 
   65700  0.070013206   -7.6810093    3652.7718          341 
   65800   0.07067531   -7.6787489     3651.693          343 
   65900  0.070816054   -7.6793821    3650.3358          373 
   66000  0.067860526    -7.678424    3650.2857          368 
   66100     0.069841   -7.6792286    3651.0191          394 
   66200  0.070028999    -7.678896    3652.0466          330 
   66300  0.070788709   -7.6789434    3652.8212          327 
   66400  0.070263008   -7.6816463    3652.5817          346 
   66500  0.068919802   -7.6805486     3652.588          344 
   66600  0.069824305   -7.6771202    3651.6321          496 
   66700   0.07041519   -7.6750987    3649.2581          462 
   66800   0.06974419   -7.6750573    3647.9104          359 
   66900  0.070166647   -7.6750801    3649.8318          395 
   67000  0.069429418   -7.6797014    3652.5149          537 
   67100  0.070587477   -7.6840958    3653.5549          332 
   67200  0.071423492   -7.6810113    3653.9356          341 
   67300  0.070261952   -7.6800659    3652.6439          530 
   67400  0.068694268   -7.6785887    3651.5215          330 
   67500  0.070093334   -7.6770213     3650.842          469 
   67600   0.06989568   -7.6775712    3650.4257          466 
   67700  0.070637899   -7.6803251    3650.3361          327 
   67800  0.070451122   -7.6780287    3652.6251          313 
   67900  0.069530035   -7.6797361    3653.3689          344 
   68000  0.069380497   -7.6819345    3653.4804          324 
   68100  0.071144616   -7.6813768    3652.4755          314 
   68200  0.069833955   -7.6771068     3651.521          482 
   68300  0.069368657   -7.6768852    3648.6958          500 
   68400  0.070888901   -7.6764437    3647.9548          497 
   68500  0.071357252   -7.6761983    3650.0612          531 
   68600  0.070016002   -7.6796668    3652.9289          484 
   68700  0.068594861   -7.6829342    3654.3865          464 
   68800  0.067722284    -7.679852    3654.1716          461 
   68900  0.070499304   -7.6808247    3652.1935          526 
   69000  0.069190023   -7.6799878    3650.8986          319 
   69100  0.069993527   -7.6758093    3651.2624          436 
   69200  0.070554935   -7.6773715    3650.6633          363 
   69300  0.069710526   -7.6792599    3651.1292          469 
   69400  0.069470333   -7.6795105    3652.2087          363 
   69500  0.069954653   -7.6816785    3653.0403          488 
   69600  0.069453521   -7.6823403    3653.8433          431 
   69700   0.07095722    -7.681205    3653.2354          325 
   69800  0.071103061   -7.6784078    3649.5022          539 
   69900  0.068186689   -7.6755014    3647.4171          383 
   70000  0.070248666    -7.675871    3648.4675          520 
   70100  0.069909159   -7.6776639    3650.9431          338 
   70200  0.068424384    -7.680662    3652.5728          358 
   70300   0.06903224   -7.6830807    3652.9635          477 
   70400  0.070808842   -7.6818285    3653.0358          485 
   70500  0.070866229   -7.6804683    3652.0495          460 
   70600  0.070419264   -7.6805828    3650.0943          524 
   70700  0.069065165   -7.6749211     3650.806          461 
   70800  0.070261398   -7.6782683    3649.9772          448 
   70900  0.069841944   -7.6788403    3650.9201          526 
   71000  0.069880087   -7.6819394    3653.5267          530 
   71100  0.071332246   -7.6866766     3655.477          336 
   71200  0.069506228   -7.6834452    3655.2639          347 
   71300   0.06858158   -7.6803271    3652.2951          488 
   71400  0.070554411   -7.6783969    3650.2651          342 
   71500  0.069801251   -7.6752911    3649.8024          320 
   71600  0.069731201   -7.6775169    3650.0429          507 
   71700  0.068244539   -7.6792771     3651.068          498 
   71800  0.071223359   -7.6803203    3652.6433          346 
   71900  0.071013633    -7.682813    3652.9817          309 
   72000  0.069460518   -7.6823414    3653.0021          324 
   72100  0.070197172   -7.6798756     3652.055          566 
   72200  0.071093867   -7.6770214    3650.9536          500 
   72300  0.069408682   -7.6763404    3649.2018          494 
   72400  0.069184844   -7.6740458    3649.9975          491 
   72500  0.070735304   -7.6786609    3651.2148          450 
   72600  0.068807956   -7.6825215    3653.9397          481 
   72700  0.071020401   -7.6856015    3656.2831          509 
   72800  0.070458244   -7.6840023    3654.8872          363 
   72900  0.069177604   -7.6813215    3651.8549          360 
   73000  0.070293204   -7.6784755    3650.3207          349 
   73100  0.069604358   -7.6766308    3650.2426          502 
   73200  0.070200943   -7.6781085    3650.4937          548 
   73300  0.069438073   -7.6791791    3651.2915          489 
   73400  0.071081362   -7.6796095     3652.658          365 
   73500  0.069427918   -7.6805367    3652.6922          540 
   73600  0.068732477      -7.6804    3652.6804          531 
   73700   0.07014413   -7.6793555    3651.8929          488 
   73800  0.070631615   -7.6761726    3650.4283          370 
   73900  0.069734113   -7.6766075     3647.848          345 
   74000  0.070471049   -7.6750088    3648.6707          480 
   74100  0.069547456   -7.6789632     3651.504          486 
   74200  0.071068523   -7.6822577    3653.9169          344 
   74300  0.068781153   -7.6823972    3654.3614          526 
   74400  0.070087078    -7.683898    3652.7228          503 
   74500  0.070342341   -7.6789316    3651.9417          459 
   74600  0.070460429   -7.6765749    3650.4145          392 
   74700  0.068769462   -7.6777182    3649.3555          452 
   74800  0.069462719   -7.6773907    3650.1852          458 
   74900  0.070988757   -7.6800212    3651.5082          476 
   75000  0.068435861   -7.6809428    3653.1691          449 
   75100  0.069107426   -7.6836633    3653.7754          490 
   75200  0.070135324   -7.6809176    3653.5699          345 
   75300  0.070498338   -7.6775054    3652.0887          320 
   75400  0.070499529   -7.6781457    3649.3166          466 
   75500  0.069613213   -7.6759671    3648.4016          462 
   75600  0.069325756   -7.6761302    3649.9764          454 
   75700  0.070058521   -7.6799751    3651.9144          388 
   75800  0.069989309   -7.6816828    3654.0199          499 
   75900  0.068960936   -7.6828865    3653.8946          504 
   76000  0.069245288   -7.6810693    3652.5556          471 
   76100  0.069299543   -7.6779204    3651.7654          351 
   76200  0.070516614   -7.6786036    3650.5005          506 
   76300  0.068833565   -7.6786702    3650.4368          338 
   76400  0.069474573   -7.6770712    3651.5172          309 
   76500  0.071400762   -7.6786866     3652.088          327 
   76600  0.068168773   -7.6784526    3652.6809          564 
   76700  0.069743263   -7.6803981    3652.4205          331 
   76800   0.06781788   -7.6815507    3651.4555          530 
   76900  0.069394424   -7.6808825    3651.3168          507 
   77000  0.069975345   -7.6779617    3650.7388          469 
   77100  0.070985144   -7.6756895    3650.2829          340 
   77200   0.06968128   -7.6781914    3650.0633          320 
   77300  0.070136841   -7.6803205    3652.2042          474 
   77400  0.071464408   -7.6819762    3654.5724          482 
   77500  0.069313201   -7.6830844    3654.4381          468 
   77600  0.069762257   -7.6822451    3652.8173          332 
   77700  0.071442557   -7.6778494    3651.3146          508 
   77800  0.071105741   -7.6780431    3649.7335          474 
   77900  0.069062375   -7.6770185    3650.0618          333 
   78000   0.07117445   -7.6793294     3650.912          468 
   78100  0.071367531   -7.6812685    3651.3152          339 
   78200  0.068766172   -7.6802673    3651.9393          324 
   78300  0.071165109   -7.6803519    3652.0575          526 
   78400  0.068362974   -7.6799325    3651.8184          331 
   78500  0.070923287   -7.6796448    3651.3923          442 
   78600  0.071584952   -7.6792944    3650.7089          463 
   78700  0.069227199   -7.6797567    3650.3984          454 
   78800  0.070309578   -7.6793378    3650.9124          339 
   78900   0.07102702   -7.6807745    3652.0656          322 
   79000  0.067980664    -7.681675    3653.1811          465 
   79100  0.069565668   -7.6816807    3653.8696          340 
   79200   0.07208339   -7.6819086    3652.4043          491 
   79300  0.068967308   -7.6777078    3650.8888          452 
   79400  0.070912006   -7.6774218     3649.059          545 
   79500  0.070256908   -7.6758909    3649.1641          346 
   79600  0.069576627   -7.6785224    3650.4139          351 
   79700  0.069522138   -7.6809193    3652.4044          323 
   79800  0.070518549    -7.682011    3653.7582          456 
   79900  0.069273969   -7.6815258    3653.5372          320 
   80000  0.071497895    -7.680106    3652.3317          367 
   80100  0.069978027   -7.6795369    3650.5778          328 
   80200  0.069171418   -7.6774535    3650.6976          386 
   80300  0.069940926   -7.6767242    3651.3386          373 
   80400  0.068926914   -7.6790666    3651.2184          332 
   80500  0.071187054   -7.6815473    3651.6675          525 
   80600  0.068991976   -7.6800382     3652.291          489 
   80700  0.071593001    -7.679256    3652.6594          447 
   80800  0.070587723   -7.6791386    3652.1328          449 
   80900  0.069512307   -7.6797981    3650.8117          466 
   81000  0.070355959   -7.6767746    3649.8094          558 
   81100  0.070289384   -7.6740892    3649.7428          471 
   81200   0.07009472    -7.677523    3650.6088          546 
   81300  0.070942299   -7.6840539     3652.375          335 
   81400  0.071078084   -7.6836212    3654.7365          344 
   81500  0.068711671   -7.6814592    3654.5832          510 
   81600  0.068854088   -7.6817181    3651.8583          454 
   81700  0.069595829   -7.6778886    3650.9926          501 
   81800   0.06984138   -7.6777143     3650.544          485 
   81900  0.069417359   -7.6786027    3650.9251          487 
   82000  0.070331091   -7.6778663     3651.795          509 
   82100  0.069763975    -7.679582    3652.0486          340 
   82200   0.06977926   -7.6806688    3651.8864          343 
   82300  0.069563499   -7.6776123    3652.8395          550 
   82400  0.070955815   -7.6789923    3652.0758          318 
   82500  0.069511542   -7.6799632    3650.9505          481 
   82600  0.071074143   -7.6792395    3650.6096          474 
   82700   0.06984206   -7.6780041    3651.0911          463 
   82800  0.069838445    -7.679057    3651.3862          450 
   82900  0.070020512   -7.6804226    3652.3532          469 
   83000  0.067182809   -7.6806752     3653.055          457 
   83100  0.069998597   -7.6817258    3652.7559          473 
   83200  0.069372774    -7.679118     3652.187          478 
   83300  0.071276693    -7.677017    3650.8721          358 
   83400  0.069685037    -7.676871    3649.1233          307 
   83500  0.069836585   -7.6756685    3649.2836          325 
   83600  0.070798341   -7.6776873     3651.029          462 
   83700  0.068619993   -7.6815731    3653.2568          371 
   83800  0.070435637   -7.6841873     3654.601          370 
   83900  0.069351012   -7.6811648    3653.8692          521 
   84000  0.069006792   -7.6790686    3652.1142          527 
   84100  0.068432597   -7.6794475    3650.8512          483 
   84200  0.070087114   -7.6784767    3650.7055          493 
   84300  0.071345321   -7.6781776    3651.0918          348 
   84400  0.069707418   -7.6790316    3651.7642          450 
   84500  0.068839192   -7.6800193    3652.2436          545 
   84600  0.070267376   -7.6808864    3652.5603          503 
   84700  0.069918893   -7.6809223    3652.7713          362 
   84800  0.069411714    -7.681129    3651.1382          444 
   84900  0.069798931     -7.67663    3650.2313          476 
   85000  0.071380447   -7.6759651    3648.6986          449 
   85100  0.069378227   -7.6751373    3649.3933          512 
   85200  0.069725166   -7.6796102    3651.2729          504 
   85300  0.070533025   -7.6819714     3653.678          490 
   85400   0.06903701    -7.682694    3654.1808          363 
   85500  0.068791088   -7.6821356    3652.9764          483 
   85600  0.070343455    -7.679036    3652.0079          448 
   85700  0.068928946   -7.6790617    3650.5556          566 
   85800  0.069864399   -7.6791527    3650.3614          453 
   85900  0.070269014   -7.6778851    3651.2792          468 
   86000  0.069756592   -7.6790598    3651.7655          361 
   86100  0.067646983   -7.6787179    3652.2449          454 
   86200  0.070965656   -7.6803933    3652.1316          351 
   86300  0.070168633   -7.6800385     3651.857          497 
   86400  0.069609981   -7.6802117    3651.3143          319 
   86500  0.072359429   -7.6791133    3651.5135          367 
   86600  0.070356724      -7.6788    3651.3882          512 
   86700   0.06925575   -7.6807563    3651.1549          359 
   86800  0.068840654   -7.6810917    3651.2869          488 
   86900  0.070375855   -7.6796441    3651.3884          353 
   87000    0.0701145   -7.6783033    3652.0584          510 
   87100  0.069263468   -7.6814338    3651.1736          484 
   87200  0.069560341    -7.679235    3651.7824          474 
   87300  0.070369933   -7.6789297     3651.843          501 
   87400  0.069733379   -7.6807067    3650.9557          449 
   87500  0.070580034   -7.6786357    3651.5798          311 
   87600  0.069794267   -7.6785472    3651.8844          463 
   87700   0.06836182   -7.6791092    3652.1821          522 
   87800  0.068192231   -7.6813428    3651.6499          441 
   87900  0.070605108   -7.6811733    3651.7072          499 
   88000  0.070297869    -7.678469    3651.8389          479 
   88100  0.069482623   -7.6796102    3650.6856          318 
   88200   0.07032977   -7.6780734    3650.3244          462 
   88300  0.071784491    -7.676958    3651.0458          489 
   88400  0.070391913   -7.6794834    3652.0653          491 
   88500  0.070033035   -7.6823395    3653.1547          330 
   88600  0.069271725   -7.6818845    3654.4694          486 
   88700  0.070359176   -7.6811083    3653.5627          373 
   88800   0.06946463   -7.6804363    3650.6843          499 
   88900  0.070798706   -7.6769845    3649.2833          499 
   89000  0.070125236   -7.6749098    3649.4234          326 
   89100  0.070994174   -7.6782004     3650.507          511 
   89200  0.068173871   -7.6796663     3651.718          347 
   89300  0.069863404   -7.6797453    3652.6149          461 
   89400     0.070464   -7.6805176    3652.2556          472 
   89500  0.067804985   -7.6805258    3651.9442          509 
   89600  0.069433096   -7.6795244    3651.5718          519 
   89700  0.068509754   -7.6769571    3651.4867          459 
   89800  0.069442209   -7.6787764     3650.712          486 
   89900  0.069420081   -7.6797477    3650.6596          354 
   90000  0.071245976   -7.6799559    3651.7103          399 
   90100  0.070060299   -7.6820402    3652.6591          381 
   90200  0.070634021   -7.6840147    3653.1721          487 
   90300  0.068645641    -7.679743    3653.5182          467 
   90400  0.072340727   -7.6795309    3651.5441          460 
   90500  0.069340746   -7.6758283    3649.6297          459 
   90600  0.070178619    -7.675412    3648.7885          522 
   90700  0.071051835   -7.6777774    3650.0379          532 
   90800  0.069332842   -7.6807793    3651.6307          331 
   90900  0.070982971   -7.6816708    3653.1689          423 
   91000  0.071216247   -7.6831771    3652.6847          444 
   91100  0.068835999   -7.6806036    3651.9361          372 
   91200  0.069435757   -7.6785101    3651.7563          479 
   91300  0.069218292    -7.678471    3651.5875          489 
   91400  0.070030431    -7.678926     3651.073          482 
   91500  0.068414009   -7.6799064    3650.9472          532 
   91600  0.070834859   -7.6799527    3651.8495          349 
   91700   0.06858489   -7.6791687    3652.6376          524 
   91800  0.067835332   -7.6816171    3652.2452          452 
   91900  0.070650363   -7.6814864    3652.2341          380 
   92000   0.06939678    -7.678453    3651.5453          439 
   92100  0.070744481   -7.6769249    3649.7621          550 
   92200  0.070176698    -7.676649    3648.8077          503 
   92300  0.071000329   -7.6763425    3650.1437          327 
   92400  0.069488799   -7.6818072    3651.9076          328 
   92500  0.069595436   -7.6836864    3653.9466          360 
   92600  0.069169964   -7.6818328    3654.4539          359 
   92700  0.070160889   -7.6808562    3652.6702          496 
   92800  0.069670323   -7.6803072    3650.8524          520 
   92900  0.070550169   -7.6801866    3650.6698          357 
   93000  0.070281521    -7.679101    3650.6967          450 
   93100  0.070591129   -7.6785354    3651.4956          475 
   93200  0.069611472   -7.6805345    3651.8193          447 
   93300  0.068709736   -7.6808632     3652.244          482 
   93400  0.070229767   -7.6801437    3652.9019          570 
   93500  0.070820521   -7.6804851    3651.9299          367 
   93600  0.069493252   -7.6801246    3650.5174          510 
   93700  0.069965674   -7.6779528    3649.6864          470 
   93800  0.069548933   -7.6749324    3649.7958          490 
   93900  0.069291373   -7.6782036    3650.3126          448 
   94000  0.069357334   -7.6818301     3652.298          494 
   94100  0.071037748    -7.682605    3654.2025          319 
   94200  0.069903605   -7.6838876    3653.6249          366 
   94300   0.07013654   -7.6822106    3652.1965          476 
   94400  0.070217998   -7.6785985    3650.7886          503 
   94500  0.070748041   -7.6742466    3650.2343          495 
   94600  0.070570897   -7.6773394    3649.5188          493 
   94700  0.069675279   -7.6782828    3651.1391          547 
   94800  0.068700607   -7.6823192      3652.14          381 
   94900  0.069650695   -7.6798584    3653.0765          584 
   95000  0.069984406      -7.6797    3652.7622          511 
   95100  0.069255857   -7.6817536    3651.3704          523 
   95200  0.069872856   -7.6793647     3651.309          489 
   95300  0.069907293   -7.6773583    3651.6607          403 
   95400   0.06951934   -7.6793275    3651.0621          352 
   95500  0.070409024   -7.6812217      3650.88          331 
   95600  0.071275246   -7.6797722    3651.8684          506 
   95700   0.07061418   -7.6800446     3652.601          362 
   95800  0.069705677    -7.682682    3652.3482          341 
   95900  0.070619358   -7.6802558    3652.2699          455 
   96000  0.069848182   -7.6762273    3650.7948          304 
   96100   0.06826727     -7.67714    3648.9316          325 
   96200  0.069295549   -7.6760529     3649.519          460 
   96300  0.069181529   -7.6771189    3651.4979          471 
   96400  0.069607614   -7.6814888    3652.6709          471 
   96500   0.06984884   -7.6835575     3653.549          505 
   96600  0.070918476   -7.6803136    3653.5556          325 
   96700  0.069847939   -7.6796698    3651.9799          325 
   96800  0.071213121   -7.6790022    3651.0261          362 
   96900  0.069746766   -7.6785372    3650.7797          354 
   97000  0.068835647   -7.6798461     3650.817          377 
   97100  0.070215068   -7.6780764    3651.9932          495 
   97200  0.070262155   -7.6789694    3652.1317          482 
   97300  0.069484284    -7.681194    3651.5234          467 
   97400  0.069857346   -7.6790362    3652.4512          340 
   97500  0.070038719   -7.6792367    3651.9061          519 
   97600  0.069829002   -7.6789807    3650.9028          339 
   97700  0.068141807   -7.6786949     3649.529          349 
   97800  0.068893532   -7.6755906    3650.2041          370 
   97900   0.06979375    -7.678038    3651.2003          478 
   98000  0.067438062   -7.6799662    3653.1359          479 
   98100  0.070882527   -7.6830258     3654.075          503 
   98200  0.070449552    -7.681258    3653.9126          514 
   98300  0.069443517   -7.6796335    3651.9574          506 
   98400  0.068560345     -7.67816     3649.928          349 
   98500  0.071381182   -7.6771292    3649.4953          446 
   98600  0.069907722   -7.6772672    3650.3625          493 
   98700   0.06811769   -7.6815489    3650.9118          348 
   98800  0.070014384   -7.6810252    3652.0181          367 
   98900  0.070615423   -7.6799086    3652.4483          333 
   99000  0.069304596   -7.6804841    3652.0609          480 
   99100  0.069322948   -7.6797849    3651.6716          577 
   99200  0.070727889   -7.6780671    3651.6774          476 
   99300  0.069195675    -7.678419    3651.0256          363 
   99400   0.06945122     -7.67913     3650.804          533 
   99500  0.070036241   -7.6779747    3651.9392          408 
   99600  0.070161128     -7.68182    3652.6278          365 
   99700  0.070031935   -7.6847315    3653.3528          465 
   99800  0.069418946   -7.6803173    3654.1184          352 
   99900  0.070035807   -7.6790989    3652.0038          355 
  100000  0.069483653   -7.6780264    3649.9246          465 
  100100  0.070686039   -7.6754265    3649.3996          466 
  100200  0.070115316   -7.6738113    3650.6508          489 
  100300  0.070912681    -7.680098    3651.4107          457 
  100400  0.070936098   -7.6834491      3652.16          336 
  100500  0.070690272    -7.682581    3652.7274          358 
  100600  0.070996752   -7.6805882    3652.0573          383 
  100700  0.069971602   -7.6827774    3650.8659          460 
  100800  0.069533565   -7.6798131    3651.0493          457 
  100900  0.069976766   -7.6785274    3651.3061          371 
  101000  0.070861738   -7.6810863    3650.6972          562 
  101100  0.069265175   -7.6812688     3651.265          369 
  101200  0.069459986    -7.678736    3652.4591          506 
  101300  0.071209995   -7.6811913    3652.1649          516 
  101400  0.070196446   -7.6805554    3652.2623          555 
  101500  0.070147915   -7.6818881    3650.6348          524 
  101600  0.070095756   -7.6776192    3649.9375          378 
  101700  0.070148057   -7.6772089    3649.3208          569 
  101800  0.069983962   -7.6780728    3650.1148          373 
  101900  0.069456322   -7.6800476    3651.8502          564 
  102000  0.069868564   -7.6808164    3653.9809          503 
  102100   0.07003726   -7.6825278    3654.2748          513 
  102200  0.067970668   -7.6829148    3652.8615          579 
  102300  0.070810535   -7.6817752    3650.6217          402 
  102400  0.069630953   -7.6766289    3650.2209          425 
  102500  0.069764716   -7.6771779    3649.9647          345 
  102600  0.068957643   -7.6804972    3650.1073          406 
  102700  0.069986602   -7.6799197    3651.9773          330 
  102800  0.071035585   -7.6815768    3652.5321          329 
  102900  0.068914454   -7.6827661    3652.2351          512 
  103000  0.069833731   -7.6805629    3652.1138          553 
  103100   0.06964704   -7.6787933    3651.7375          548 
  103200  0.068249896   -7.6767274    3650.8446          630 
  103300   0.06931059   -7.6764368    3650.3156          531 
  103400  0.070215026   -7.6776188    3650.5863          418 
  103500   0.06873953   -7.6814585    3652.0454          391 
  103600  0.071207535   -7.6842492    3654.6442          570 
  103700  0.070319862   -7.6859192    3655.0476          514 
  103800  0.070358842   -7.6837785     3652.939          378 
  103900  0.071228736   -7.6794711    3650.6698          406 
  104000   0.06993552   -7.6765292    3649.9571          370 
Loop time of 286.654 on 18 procs for 100000 steps with 4000 atoms

Performance: 60281.747 tau/day, 348.853 timesteps/s
99.6% CPU use with 18 MPI tasks x no OpenMP threads

MPI task timing breakdown:
Section |  min time  |  avg time  |  max time  |%varavg| %total
---------------------------------------------------------------
Pair    | 41.564     | 43.794     | 46.693     |  20.2 | 15.28
Neigh   | 0.76953    | 0.7942     | 0.81645    |   1.6 |  0.28
Comm    | 9.6399     | 11.988     | 14.035     |  34.6 |  4.18
Output  | 8.8775     | 8.8791     | 8.8957     |   0.1 |  3.10
Modify  | 210.81     | 215.12     | 219.92     |  19.6 | 75.04
Other   |            | 6.081      |            |       |  2.12

Nlocal:        222.222 ave         228 max         214 min
Histogram: 1 2 1 2 0 2 2 4 0 4
Nghost:        2497.28 ave        2511 max        2485 min
Histogram: 2 2 2 2 1 2 3 1 1 2
Neighs:        28236.5 ave       29930 max       26560 min
Histogram: 1 0 2 5 0 4 2 2 1 1
FullNghs:      56475.2 ave       58009 max       54206 min
Histogram: 1 2 1 0 2 2 2 3 1 4

Total # of neighbors = 1016553
Ave neighs/atom = 254.13825
Neighbor list builds = 981
Dangerous builds = 0

#clear
#
#next RN
#
#jump SELF
Total wall time: 0:04:48
