
units lj                  # Use reduced LJ style units
atom_style atomic         # Uncharged point particles
atom_modify map hash      # Needed for indexing of clusters etc
                          # Used to be able to find where atoms are in relation to each other.

# Define a lattice with which to populate the simulation cell. With units
# set to 'lj' the second argument to the lattice command is the reduced
# density rho* and the spacings are multiples of that required to acheive
# that density. Also define a simulation cell called 'box' in lattice units
# and fill it with atoms. Here we're creating a box which is ten lattice
# constants in each direction.
lattice fcc 1.0 spacing 1 1 1                 # All equal sizes - gives the right reduced density.
Lattice spacing in x,y,z = 1.5874011 1.5874011 1.5874011

region box block 0 10 0 10 0 10 units lattice # Defines a region, "box", in lattice units
create_box 1 box                              # Creates a simulation box as specified above,
Created orthogonal box = (0.0000000 0.0000000 0.0000000) to (15.874011 15.874011 15.874011)
  3 by 4 by 4 MPI processor grid
                                              # with one type of atom
create_atoms 1 box                            # Creates particles on lattice points
Created 4000 atoms
  using lattice units in orthogonal box = (0.0000000 0.0000000 0.0000000) to (15.874011 15.874011 15.874011)
  create_atoms CPU = 0.037 seconds


# Set the mass of the first (and only) atom type.
mass 1 1.0

# Lennard-Jones interactions between particles, 3.5 sigma cut-off. Apply
# long range tail corrections to energy and pressure and set all coefficients
# to unity since we work in reduced units here. Note that this doesn't shift
# the potential such that it goes to zero at the cutoff. That would require
# pair_modify('shift', 'yes').
pair_style lj/cut  3.5      # non-GPU version
pair_modify tail  yes
pair_coeff 1  1  1.0  1.0   # Intearaction between 1 and 1 set with epsilon = 1 and sigma = 1

write_data data.*
System init for write_data ...
Neighbor list info ...
  update every 1 steps, delay 10 steps, check yes
  max neighbors/atom: 2000, page size: 100000
  master list distance cutoff = 3.8
  ghost atom cutoff = 3.8
  binsize = 1.9, bins = 9 9 9
  1 neighbor lists, perpetual/occasional/extra = 1 0 0
  (1) pair lj/cut, perpetual
      attributes: half, newton on
      pair build: half/bin/atomonly/newton
      stencil: half/bin/3d
      bin: standard

#############################
#   M E L T   S Y S T E M   #
#############################

velocity all create 2.4 9622624 mom yes dist gaussian # Assign velocities
                                                    # Temperature 2.4, random number seed, zero linear momentum
						                                                        # Gaussian distribution

timestep 0.002   # simulation timestep
thermo 1000       # output thermodynamic data every 1000 steps

# Define a fix  in this case with index 1 applied to all
# particles in the simulation. This fix is for simulations
# in the anisotropic NPT ensemble. Note that we use the MTK
# correction.
fix 1 all npt temp 2.4 2.4 0.1 iso 5.68 5.68 0.5 mtk yes tchain 5 pchain 5 # Use NPT ensemble
                                                                         # Set temperature and pressure and damping
                                                                         # Numbers of thermostats in chain and in barostat
run 1000         # run for 10000 steps
Per MPI rank memory allocation (min/avg/max) = 3.642 | 3.644 | 3.648 Mbytes
Step Temp E_pair E_mol TotEng Press Volume 
       0          2.4   -8.3859253            0   -4.7868253   -2.2405722         4000 
    1000    2.3675277   -4.4709979            0  -0.92059417    5.6600046    5150.2326 
Loop time of 0.221798 on 48 procs for 1000 steps with 4000 atoms

Performance: 779088.454 tau/day, 4508.614 timesteps/s
99.2% CPU use with 48 MPI tasks x no OpenMP threads

MPI task timing breakdown:
Section |  min time  |  avg time  |  max time  |%varavg| %total
---------------------------------------------------------------
Pair    | 0.094788   | 0.10031    | 0.10873    |   1.0 | 45.23
Neigh   | 0.017853   | 0.018846   | 0.020275   |   0.4 |  8.50
Comm    | 0.067713   | 0.0758     | 0.082475   |   1.3 | 34.18
Output  | 2.5358e-05 | 2.6304e-05 | 3.3608e-05 |   0.0 |  0.01
Modify  | 0.020911   | 0.025245   | 0.028722   |   1.3 | 11.38
Other   |            | 0.001567   |            |       |  0.71

Nlocal:        83.3333 ave          90 max          75 min
Histogram: 3 2 3 4 10 0 12 2 7 5
Nghost:        1388.62 ave        1413 max        1360 min
Histogram: 1 2 4 4 7 12 8 6 2 2
Neighs:        7393.46 ave        8492 max        6395 min
Histogram: 2 3 7 3 11 8 7 4 2 1

Total # of neighbors = 354886
Ave neighs/atom = 88.721500
Neighbor list builds = 87
Dangerous builds = 21

# Equilibrate just above the melting temperature to avoid step fn in T

fix 1 all npt temp 1.25 1.25 0.1 iso 5.68 5.68 0.5 mtk yes tchain 5 pchain 5
run 1000
Per MPI rank memory allocation (min/avg/max) = 3.642 | 3.644 | 3.648 Mbytes
Step Temp E_pair E_mol TotEng Press Volume 
    1000    2.3675277   -4.4709979            0  -0.92059417    5.6600046    5150.2326 
    2000    1.2613379    -5.848842            0   -3.9573082    5.7258602    4335.5859 
Loop time of 0.220223 on 48 procs for 1000 steps with 4000 atoms

Performance: 784658.908 tau/day, 4540.850 timesteps/s
99.6% CPU use with 48 MPI tasks x no OpenMP threads

MPI task timing breakdown:
Section |  min time  |  avg time  |  max time  |%varavg| %total
---------------------------------------------------------------
Pair    | 0.092715   | 0.10038    | 0.11592    |   1.2 | 45.58
Neigh   | 0.015637   | 0.016602   | 0.019167   |   0.5 |  7.54
Comm    | 0.064672   | 0.076566   | 0.087881   |   1.8 | 34.77
Output  | 2.4129e-05 | 2.4786e-05 | 3.1637e-05 |   0.0 |  0.01
Modify  | 0.017925   | 0.024721   | 0.033129   |   2.7 | 11.23
Other   |            | 0.001926   |            |       |  0.87

Nlocal:        83.3333 ave          91 max          78 min
Histogram: 6 4 3 15 4 4 7 1 2 2
Nghost:        1554.67 ave        1575 max        1533 min
Histogram: 2 4 1 5 7 14 6 4 2 3
Neighs:        8779.02 ave        9592 max        8178 min
Histogram: 5 6 7 5 5 7 7 1 3 2

Total # of neighbors = 421393
Ave neighs/atom = 105.34825
Neighbor list builds = 76
Dangerous builds = 9


# Small amount of linear quench

fix 1 all npt temp 1.25 ${temp} 0.1 iso 5.68 5.68 0.5 mtk yes tchain 5 pchain 5
fix 1 all npt temp 1.25 1.8 0.1 iso 5.68 5.68 0.5 mtk yes tchain 5 pchain 5
run 2000
Per MPI rank memory allocation (min/avg/max) = 3.643 | 3.645 | 3.648 Mbytes
Step Temp E_pair E_mol TotEng Press Volume 
    2000    1.2613379    -5.848842            0   -3.9573082    5.7258602    4335.5859 
    3000    1.5101616   -5.5066613            0   -3.2419852    5.3638247    4540.1479 
    4000    1.7666067   -5.0762317            0   -2.4269842     5.727583    4738.8561 
Loop time of 0.429737 on 48 procs for 2000 steps with 4000 atoms

Performance: 804212.958 tau/day, 4654.010 timesteps/s
99.7% CPU use with 48 MPI tasks x no OpenMP threads

MPI task timing breakdown:
Section |  min time  |  avg time  |  max time  |%varavg| %total
---------------------------------------------------------------
Pair    | 0.18947    | 0.20115    | 0.22053    |   1.2 | 46.81
Neigh   | 0.031442   | 0.032525   | 0.036688   |   0.4 |  7.57
Comm    | 0.12242    | 0.14638    | 0.15844    |   1.6 | 34.06
Output  | 4.8919e-05 | 4.9928e-05 | 6.2937e-05 |   0.0 |  0.01
Modify  | 0.040092   | 0.045577   | 0.053485   |   1.6 | 10.61
Other   |            | 0.004049   |            |       |  0.94

Nlocal:        83.3333 ave          92 max          76 min
Histogram: 4 2 7 8 2 11 8 3 2 1
Nghost:        1467.42 ave        1487 max        1445 min
Histogram: 1 3 4 6 4 12 7 4 4 3
Neighs:        8027.33 ave        9021 max        7315 min
Histogram: 3 7 7 7 4 10 5 3 1 1

Total # of neighbors = 385312
Ave neighs/atom = 96.328000
Neighbor list builds = 147
Dangerous builds = 0

#############################
# F R E E Z E  S Y S T E M  #
#############################

# Define solid atoms. This closely follows ten Wolde  Ruiz-Montero and Frenkel  Faraday Discuss  1996  104  93-110
# Compute components of the per-atom q6 vector
compute q6 all orientorder/atom degrees 1 6 components 6 nnn NULL cutoff 1.3 # compute the Q6 parameter.
                                                                             # Use all neighbours within 1.3 unit cell.

# get number of connections
compute coord_number all coord/atom orientorder q6 0.5

# An atom is solid if it has 8 or more connections (of a possible 14)
variable is_solid atom c_coord_number>=8
group solid dynamic all var is_solid    # Must be dynamic to update
dynamic group solid defined

# do clustering
compute cluster solid cluster/atom 1.3 # Create a cluster where all atoms within are solid and max 1.3 units from another member

# define chunks one chunk per cluster
compute clus_chunks solid chunk/atom c_cluster nchunk every compress yes  # Says which atoms are in which chunk

# count the size of each chunk
compute size_chunks solid property/chunk clus_chunks count


# Find the maximum entry in the vector of chunk sizes
variable max_n equal max(c_size_chunks)


# Thermo style which includes this variable
thermo_style custom step temp pe vol v_max_n

thermo ${N}  # Print the thermo information every 100 steps
thermo 1000  

# Reset the npt fix at a lower temperature (below freezing)
fix 1  all npt temp  ${temp} ${temp}  0.1  iso  5.68  5.68  0.5  mtk yes tchain  5  pchain  5
fix 1  all npt temp  1.8 ${temp}  0.1  iso  5.68  5.68  0.5  mtk yes tchain  5  pchain  5
fix 1  all npt temp  1.8 1.8  0.1  iso  5.68  5.68  0.5  mtk yes tchain  5  pchain  5

dump dmp2 all dcd ${N} traj_${rand}.dcd
dump dmp2 all dcd 1000 traj_${rand}.dcd
dump dmp2 all dcd 1000 traj_462431.dcd


# fix rnuntil all halt ${N} v_max_n >= 3980 error soft message no   # Stop when solidified


run 1000000 # 5000000  # Run for this many steps
Neighbor list info ...
  update every 1 steps, delay 10 steps, check yes
  max neighbors/atom: 2000, page size: 100000
  master list distance cutoff = 3.8
  ghost atom cutoff = 3.8
  binsize = 1.9, bins = 9 9 9
  4 neighbor lists, perpetual/occasional/extra = 1 3 0
  (1) pair lj/cut, perpetual
      attributes: half, newton on
      pair build: half/bin/atomonly/newton
      stencil: half/bin/3d
      bin: standard
  (2) compute orientorder/atom, occasional
      attributes: full, newton on
      pair build: full/bin/atomonly
      stencil: full/bin/3d
      bin: standard
  (3) compute coord/atom, occasional
      attributes: full, newton on
      pair build: full/bin/atomonly
      stencil: full/bin/3d
      bin: standard
  (4) compute cluster/atom, occasional
      attributes: full, newton on
      pair build: full/bin/atomonly
      stencil: full/bin/3d
      bin: standard
Per MPI rank memory allocation (min/avg/max) = 9.332 | 9.337 | 9.342 Mbytes
Step Temp PotEng Volume v_max_n 
    4000    1.7666067   -5.0762317    4738.8561            1 
    5000    1.8478166    -5.032391    4778.6922            1 
    6000    1.7567111   -5.0290552    4774.4317            1 
    7000    1.8246022   -4.9992838    4773.2054            1 
    8000    1.8160651   -5.0368768    4768.0564            1 
    9000    1.8091658   -5.0251837    4768.5069            1 
   10000    1.7972912   -4.9988109    4777.9659            1 
   11000    1.7962354   -5.0434962    4761.6935       -1e+20 
   12000     1.804505   -5.0488478    4763.9402            1 
   13000    1.7996165   -5.0593373    4750.3068            1 
   14000     1.793366   -5.0704209    4756.1878            1 
   15000    1.8137011   -5.0125094    4776.8124            2 
   16000    1.7641057   -5.0694154    4727.9864            1 
   17000    1.7580761    -5.025006    4783.6657            1 
   18000    1.8410185   -5.0289121    4764.9916            1 
   19000    1.8083513   -5.0275856    4746.0536            1 
   20000    1.7739909   -5.0341348    4753.2313            4 
   21000    1.8155034   -5.0463367    4738.2354            2 
   22000    1.7793799   -5.0117939    4761.1099            2 
   23000    1.7791249   -5.0172847    4764.3995            1 
   24000    1.8220981   -5.0288512    4793.6411            1 
   25000    1.7767005   -5.0417374    4749.4852            2 
   26000    1.7983421   -5.0532067    4780.2524            1 
   27000    1.7532826   -5.1010475    4755.6523            2 
   28000     1.815489     -5.03972     4762.222            1 
   29000    1.8042063   -5.0714422    4760.2904            1 
   30000    1.7588364   -5.0590308    4748.2929            3 
   31000    1.7561569   -5.0378775    4766.7174            1 
   32000    1.8019982   -5.0455019    4764.9651            1 
   33000    1.7892876   -5.0386737    4751.5323            1 
   34000    1.7970169   -4.9991879    4767.5297            1 
   35000    1.8208279   -5.0368751    4760.8894            2 
   36000    1.7695141   -5.0572914    4719.5945            2 
   37000    1.8132551   -5.0762721    4746.3751            2 
   38000    1.8051398    -5.056802    4738.7708            1 
   39000    1.7860152   -5.0393069    4747.9019            1 
   40000     1.776558    -5.036187     4776.277            1 
   41000    1.7943524   -5.0592154    4764.6966            1 
   42000     1.779278   -5.1104082    4755.3009            1 
   43000    1.7950836   -5.0158184    4762.0243            2 
   44000    1.8012229   -5.0798375     4723.175            1 
   45000    1.8042211   -5.0770894    4756.0503            1 
   46000    1.8068821   -5.0294075    4785.4766            1 
   47000     1.822667   -5.0779414    4746.2106            1 
   48000    1.8524995   -5.0227888    4757.3265            3 
   49000    1.8234021   -5.0250501    4770.7612            1 
   50000    1.8360223   -5.0417298    4752.2082            1 
   51000     1.822193   -5.0919207    4750.5931            1 
   52000    1.7833393    -5.089748    4732.6292            2 
   53000     1.809699   -5.0087081    4782.2092            1 
   54000    1.8525937   -5.0897802    4750.5225            1 
   55000    1.7781549   -5.0319477    4758.1742            1 
   56000    1.7732761   -5.0800869    4776.7891            2 
   57000    1.7718798   -5.0764023    4739.8909            2 
   58000    1.8046375   -5.0713976    4752.3396            1 
   59000    1.7938898   -5.0193462    4743.5709            1 
   60000     1.781727   -5.0732219    4747.8313       -1e+20 
   61000    1.7514237   -5.0273599    4759.9901            1 
   62000    1.8184006   -4.9983151    4738.5839            2 
   63000    1.8115707   -5.0266329    4763.6812            1 
   64000    1.8083039   -5.0816186    4755.8735            1 
   65000    1.7457922   -5.0364087     4780.522            1 
   66000    1.7990199   -4.9752489    4805.9051            1 
   67000    1.8277636   -4.9971283    4780.0146            2 
   68000    1.7640205   -5.0728917    4748.6447            1 
   69000     1.839376   -5.0811275    4732.0012            1 
   70000    1.8216227   -5.0611828    4759.4428            2 
   71000    1.7885447   -4.9678285    4780.5196            1 
   72000    1.8501459   -5.0388425    4762.5497            1 
   73000    1.7853942   -5.0596512    4754.2429            1 
   74000     1.806736   -5.0618621    4800.7861            2 
   75000    1.8286121   -5.0427096    4753.2244            1 
   76000    1.7987913   -5.0267727     4761.025            1 
   77000    1.8080994    -5.038656    4778.5022            1 
   78000    1.7878088   -5.0428739    4768.3003            3 
   79000    1.7423293    -5.092074    4785.2132            1 
   80000    1.8068568   -5.0433369    4778.4188            2 
   81000    1.8127431   -5.0073268    4765.7053            2 
   82000    1.7838013   -5.0578935    4758.9275            2 
   83000    1.7737465   -5.0800683    4763.4388            1 
   84000    1.7878894   -5.0332249    4762.4172            3 
   85000    1.7744176   -5.0369158    4776.2602            1 
   86000    1.8135598   -5.0358572     4789.628            1 
   87000    1.7789605   -5.0357669    4739.5037            1 
   88000    1.8285058   -5.1074876    4765.0902            1 
   89000    1.7910498   -5.0768429    4749.9481            3 
   90000     1.761626   -5.0230018    4772.1482            1 
   91000    1.7470815   -5.0641858    4747.5602            1 
   92000     1.783013   -5.0550748    4759.5348            1 
   93000    1.8111976   -5.0824501    4751.7254            1 
   94000    1.7717816   -5.0489381    4757.8685            1 
   95000    1.7746933   -5.0513248    4778.6004            2 
   96000    1.8089007   -5.0676795    4757.4235            1 
   97000    1.8068041   -5.0679453    4744.1065       -1e+20 
   98000    1.8140906   -5.0328864     4785.805            1 
   99000    1.7663026   -5.0748248    4779.5633            1 
  100000    1.8562072   -5.0215733     4798.327            1 
  101000    1.7822459   -5.0762558    4774.8371            1 
  102000    1.7992002   -5.0010313    4774.2383            1 
  103000    1.7778179    -5.074684    4753.6671            1 
  104000     1.781081   -5.0586083    4760.9555            1 
  105000    1.8332498   -5.0758959    4730.3506            1 
  106000    1.7617469   -5.0549486    4764.2877            1 
  107000    1.8307213   -5.0298493    4752.2888            2 
  108000    1.8238107   -5.0765509    4750.6396            1 
  109000    1.8054019   -5.0689501    4762.5575            1 
  110000    1.8042969   -5.0318899    4786.7969            1 
  111000    1.7571433   -5.0542469    4779.3353            1 
  112000    1.8402874   -5.0480948    4780.0693            1 
  113000    1.8047416   -5.0526619    4742.4021            1 
  114000     1.835661   -5.0051087    4767.3378            2 
  115000    1.8175365   -5.0450852    4766.4015            1 
  116000    1.7696401   -5.0115695    4745.8569            1 
  117000    1.8294418   -5.0438755    4763.1203            2 
  118000    1.7576097   -5.0337977    4781.4236            1 
  119000    1.8256066   -5.0512622    4750.8356            1 
  120000    1.7811373   -5.0563578    4746.5313            1 
  121000    1.7598393    -5.018511    4783.6035            1 
  122000    1.7826016   -5.0092433     4756.984            1 
  123000    1.8008114   -5.0154439     4797.717       -1e+20 
  124000    1.7951687   -5.0158478    4782.2457            1 
  125000    1.8032498   -5.0532424    4776.6071            1 
  126000    1.8181296   -5.0518424    4781.6854            1 
  127000    1.8187002   -5.0523728    4783.7792            1 
  128000    1.8193521   -5.0377911    4763.4712            2 
  129000    1.8350275   -5.0554498    4786.8382            1 
  130000    1.8085799   -4.9880874    4787.8607            2 
  131000    1.8734028   -5.0785039    4756.9412            2 
  132000    1.7767245   -5.0448864    4787.0316            1 
  133000    1.8097412   -5.0432808      4798.73            2 
  134000    1.7907524    -5.029734    4796.7727            1 
  135000    1.7919862   -5.0997217    4755.2902            1 
  136000    1.8387582   -5.0993945    4751.0971            1 
  137000    1.8230649   -5.0068314    4791.2546            3 
  138000     1.801271   -5.0279635    4801.1878            1 
  139000    1.7926287   -5.0235964    4760.1248            1 
  140000    1.7674109   -5.0441499    4765.8424            1 
  141000    1.8159329   -5.0817754    4757.9723            1 
  142000     1.766716   -5.0044726    4774.3862            1 
  143000    1.7751146   -5.0708986    4765.1081            1 
  144000    1.8039634   -5.0017268     4750.912            1 
  145000    1.8181518   -5.0805983     4764.374            1 
  146000     1.782866   -5.0189879    4746.4324            2 
  147000    1.7918345   -5.0374759    4759.6277            1 
  148000    1.7986216   -5.0720316     4755.245            1 
  149000    1.7981087   -5.0343066    4780.7811            2 
  150000    1.7864172   -5.0321109    4790.0808            1 
  151000    1.8171892   -5.0589817    4760.2081            1 
  152000    1.7615974   -5.0366859    4754.1047            1 
  153000    1.7861319   -5.0315935    4778.9936            1 
  154000    1.7891623   -5.0473222     4741.575            1 
  155000     1.790655   -5.0452107    4756.7964            2 
  156000    1.7761915   -4.9941166    4807.1912            1 
  157000    1.7995085   -5.0662908     4783.353            1 
  158000    1.8161549   -5.0677286    4762.3093            1 
  159000    1.7975053   -5.0762215    4761.9209            1 
  160000    1.7946204   -5.0823551    4758.6352       -1e+20 
  161000    1.7809985    -5.058584    4774.7787            1 
  162000    1.7618864   -5.0346127    4792.6263            1 
  163000    1.8156756   -5.0386351     4761.934            1 
  164000    1.7989466   -5.0743543    4757.2472            1 
  165000    1.7820735   -5.0062233    4800.5321            1 
  166000    1.8013686   -5.0254507    4747.6876            1 
  167000    1.8315909   -5.0143811    4772.8268            1 
  168000    1.8200298   -5.0536395    4770.6361            1 
  169000    1.8348768   -5.0466717     4778.443            1 
  170000    1.7867483   -5.0704508    4770.2435            1 
  171000    1.7950502   -5.0013182    4778.5045            1 
  172000    1.7702389    -5.063422    4755.7554            1 
  173000    1.7731497    -4.993611    4776.9144            1 
  174000    1.8153641   -5.0313063     4779.208            1 
  175000    1.7388439   -5.0346468    4767.0811            2 
  176000    1.7904503   -5.0169012    4772.3141            1 
  177000    1.8406424   -5.0420141     4766.124            2 
  178000    1.8172237   -5.0624716    4779.3651            1 
  179000    1.7933838   -5.0467402    4764.5746            1 
  180000    1.8293725   -5.0368894    4742.3028            1 
  181000    1.7819288   -5.0397489    4776.9179            2 
  182000    1.8096651   -5.0766117    4763.2742            2 
  183000    1.8141952    -5.090493     4761.658            1 
  184000    1.7968252   -5.0587752    4813.0964            1 
  185000      1.75385   -5.0602321    4789.8265            1 
  186000    1.8080556   -5.0375804    4763.2018            1 
  187000    1.8274974   -5.0907996    4744.0569            3 
  188000    1.7994539   -5.0065571    4770.4344            1 
  189000    1.8234134     -5.01519    4789.2953            1 
  190000    1.7768435   -5.0442413    4753.4443            2 
  191000    1.8015845   -5.0365804    4779.8078            2 
  192000    1.8021676   -5.0788426    4767.2242            1 
  193000    1.8397031   -5.0509111    4743.5911            1 
  194000    1.7817001   -5.0421231    4738.3286            1 
  195000    1.8504307   -5.0398154    4743.9946            1 
  196000    1.8011435   -5.0372512    4771.0278            1 
  197000    1.7693185   -5.0230026    4760.5751            1 
  198000    1.8094945   -5.0198741    4789.7486            2 
  199000    1.7985866    -5.054635    4759.6111            3 
  200000    1.8050952   -5.0341932    4765.1514            3 
  201000    1.8099023    -5.027473    4758.7203            1 
  202000    1.7954572   -5.0272922     4769.585            1 
  203000    1.8021083    -5.035625    4753.6869            2 
  204000    1.8352935   -5.0172066    4800.2802            1 
  205000    1.8316874   -4.9984651    4765.0604            1 
  206000    1.8272635   -5.0661969      4744.78            1 
  207000    1.7732684   -5.0106932    4766.9416            1 
  208000    1.7737686   -5.0548097    4743.6544            1 
  209000    1.8099445   -5.0740849    4772.3157            2 
  210000     1.811185   -5.0361093    4776.8682            1 
  211000    1.7747423    -5.058068    4762.1816            2 
  212000    1.8015112   -4.9771543    4783.8625            1 
  213000    1.7694771   -5.0679523    4759.0465            2 
  214000    1.8054202   -5.0438029    4769.6499            1 
  215000    1.8013634   -5.0308391    4777.8976            1 
  216000    1.8006708    -5.068428    4741.1434            2 
  217000    1.7919182   -5.0505347    4758.1195            1 
  218000    1.8256117    -5.040615    4788.1709            1 
  219000    1.7740559   -5.0324962     4732.305            2 
  220000    1.8120731    -5.096515    4753.1056            1 
  221000     1.796384   -5.0846305    4747.8651            1 
  222000    1.7579456   -5.0850996    4758.7166            1 
  223000    1.8135211   -5.0344924    4763.9869            2 
  224000    1.8339656   -5.0138022    4766.1969            1 
  225000    1.7950055   -5.0730042    4778.2733            1 
  226000    1.7775364    -5.030734    4773.4448            3 
  227000    1.8136569   -5.0303919     4771.783            1 
  228000    1.7885525    -5.037889    4758.7732            1 
  229000     1.826998   -5.0467396    4780.1855            2 
  230000    1.8460435   -5.0519175    4775.8121            1 
  231000    1.7925278   -5.0034782    4751.1567            1 
  232000    1.7962594   -5.0588523    4753.3013            2 
  233000     1.806001   -5.0499699     4774.196            1 
  234000    1.8015226   -5.0535201     4727.205            1 
  235000    1.8103218   -5.0137834    4769.8461            1 
  236000    1.7972562    -5.059882    4740.9298            2 
  237000    1.7962707   -5.0020305    4779.6129            1 
  238000    1.8387038   -5.0886112     4756.782            1 
  239000    1.7889747   -5.0357042    4749.8321            1 
  240000    1.8244401   -5.0732399    4781.3647            1 
  241000    1.8254676    -5.061816    4785.5813            1 
  242000    1.7821572   -5.0288419    4768.3516            1 
  243000    1.7628668   -5.0201227     4756.904            1 
  244000    1.8099777   -5.0416228    4771.8302            1 
  245000    1.7808287   -5.0667682    4799.5193            1 
  246000     1.820792   -5.0553303    4772.9589            1 
  247000    1.7604337   -5.0636572    4752.6812            2 
  248000    1.7830255   -5.0639426    4778.0331            2 
  249000    1.8338907   -5.0462977    4772.9923            3 
  250000    1.7998991     -5.10383     4771.171            1 
  251000    1.7627731   -5.0532458    4740.0799            2 
  252000    1.8042174   -5.0582443    4793.9858            1 
  253000    1.8140929   -5.0024841    4775.2391            2 
  254000    1.8021699   -4.9956491    4760.9449            1 
  255000    1.7782285   -5.0114163    4782.6751            1 
  256000    1.8055962   -5.0709688    4772.1071            2 
  257000    1.7745387   -4.9891583    4777.3056            2 
  258000    1.8250931   -5.0853862     4756.913            1 
  259000    1.8086978   -5.0380375    4773.6503            2 
  260000    1.7768586   -5.0348273    4768.8642            1 
  261000    1.7866496   -5.0214083    4769.5662            1 
  262000    1.8502004   -4.9853989    4787.2892            1 
  263000    1.8111287   -5.0561153    4755.7267            1 
  264000    1.8084226   -5.0364741    4792.4441            1 
  265000    1.8375263   -5.0231939      4789.79            1 
  266000    1.8000078   -5.0619173    4731.2511            4 
  267000    1.8133998   -5.0466933    4779.9477            1 
  268000    1.8062186   -5.0442765     4792.005            2 
  269000    1.8173445   -5.0341704    4789.2726            1 
  270000    1.7855983   -5.0942693    4785.1435            1 
  271000    1.8156996   -4.9801376    4792.1282            1 
  272000    1.7778455   -4.9771816    4809.2838            1 
  273000    1.8030886   -5.0225657    4783.9206            1 
  274000    1.7517172   -4.9844022    4781.1587            1 
  275000    1.8032729   -5.0281955    4771.8741            6 
  276000    1.7811759   -5.0214922    4775.6193            1 
  277000     1.817944   -5.0928031    4752.3272            1 
  278000    1.8187046   -5.0518606    4741.8353            3 
  279000    1.7871097   -5.0351413    4773.6494            1 
  280000    1.7982855   -5.0887263     4753.638            1 
  281000    1.7962542   -5.0390564    4771.3312            1 
  282000    1.8193831   -5.0375532    4764.5163            1 
  283000    1.8088182   -5.0894593     4739.338            1 
  284000    1.8125595    -5.090007    4803.3891            2 
  285000    1.8012127    -5.021514     4762.845            2 
  286000    1.8082451   -5.0356329    4765.4885            3 
  287000    1.7888871   -5.0939269    4733.9344       -1e+20 
  288000    1.8183483   -5.0435008    4779.3507            1 
  289000     1.774463   -5.0584336    4735.3319            1 
  290000     1.767421   -5.0914421    4776.1451            1 
  291000     1.806575   -5.0638288    4767.7788            1 
  292000    1.7813105   -5.0918982    4751.8171            2 
  293000    1.8395252   -5.0476157    4754.8674       -1e+20 
  294000    1.8185576   -5.0408552     4752.351            2 
  295000     1.821655   -5.0480201     4792.599            1 
  296000    1.7986298   -5.0162596    4785.5556            1 
  297000     1.807821   -5.0301024    4790.1795            1 
  298000    1.7680542   -5.0589531    4786.4848            1 
  299000    1.7931945   -5.0156537    4767.6637            1 
  300000    1.7842667   -5.0305411    4769.7482            1 
  301000    1.7963212   -5.0591553    4763.2017            2 
  302000    1.7707168   -5.0076297     4777.039            1 
  303000    1.8311224   -5.0453852    4734.5267            1 
  304000    1.8113512   -5.0720402    4779.7236            2 
  305000    1.7948129   -5.0412361    4807.3533            1 
  306000    1.7839285   -5.0388262    4762.6439            1 
  307000    1.8258383   -4.9968998    4777.0645            1 
  308000    1.7843044   -5.0412275    4788.3917            6 
  309000    1.8142234   -5.0374834    4766.1744            1 
  310000    1.8432627    -5.025655    4771.3234            2 
  311000    1.8099737   -5.0299351    4746.4289       -1e+20 
  312000    1.7906554    -5.004328     4783.205            1 
  313000    1.7972701   -5.0262589     4758.609            2 
  314000    1.7817974   -5.0639936    4771.6464            1 
  315000    1.8267916   -5.0603357    4750.1344            1 
  316000    1.7997919   -5.0202947     4764.313            1 
  317000    1.7947148   -5.0664582    4788.4577            2 
  318000    1.8551152   -5.0723799    4728.3416            1 
  319000    1.7736653   -5.0574272    4759.1961            2 
  320000    1.8264442   -5.0661296    4755.8611            2 
  321000     1.792082   -5.0257226    4743.5941            1 
  322000    1.7748883   -5.0313098    4767.2486            1 
  323000     1.849021   -5.0326707    4764.5082            1 
  324000    1.7347795   -5.0382025    4787.2292            1 
  325000    1.8004691   -5.0261409    4757.9583            2 
  326000    1.7909542   -5.0775459    4737.8638            2 
  327000    1.8304016   -5.0662821    4757.7339            1 
  328000    1.7528857   -5.0742259    4771.7951       -1e+20 
  329000    1.7436635   -5.0203192     4786.995            1 
  330000    1.8064009   -5.0200598    4787.1493            1 
  331000    1.8011487   -5.0435227     4762.433            2 
  332000    1.8430511    -5.051368     4783.799            2 
  333000     1.832347   -5.0572786    4763.1005            2 
  334000    1.7644359   -5.0261097    4774.1025            1 
  335000    1.7970002   -5.0186786    4774.7789            3 
  336000    1.8146474   -5.0360984    4784.0724            1 
  337000    1.7619802   -4.9817209    4800.6701       -1e+20 
  338000    1.8045543   -5.0542267    4754.6541       -1e+20 
  339000    1.8191883   -5.0628791    4765.7106            1 
  340000    1.7616003   -5.0176846    4780.3062            2 
  341000     1.798792   -5.0319578    4792.2499            2 
  342000    1.7573555   -5.0202306    4768.2668            1 
  343000    1.8258186   -5.1167043    4738.9586            3 
  344000    1.8431493   -5.0353695    4757.4033            2 
  345000    1.7866262    -5.000061    4797.7948            1 
  346000    1.8408198   -5.0394592      4762.05            1 
  347000    1.8173236   -5.0366418    4771.0337            1 
  348000    1.7915151   -5.0419233    4788.2794            1 
  349000    1.7738698   -4.9980991    4768.5136       -1e+20 
  350000    1.7966436   -5.0197725    4778.8801            1 
  351000    1.8135234   -5.0541568    4776.1582            1 
  352000    1.7922216   -5.0084687    4776.9036            1 
  353000    1.8282892   -5.0160249    4813.2793            2 
  354000    1.8140482   -5.0653681    4768.5438            1 
  355000    1.7555834   -5.0352933    4791.4475       -1e+20 
  356000     1.786875   -4.9889841    4783.2846            2 
  357000    1.8039492   -5.0122995    4764.9166            2 
  358000    1.7990621   -5.0354606    4783.1623            1 
  359000    1.8150103    -5.042037    4792.3513            1 
  360000    1.8256627   -5.0492687    4770.5392            1 
  361000    1.7989435   -5.0459091     4716.164            5 
  362000    1.8195714   -5.0432373    4764.8633            2 
  363000    1.7830337    -5.090947    4751.0499            1 
  364000     1.734808   -5.0705693    4748.3933            1 
  365000    1.8072498   -5.0487523    4763.2924            1 
  366000    1.8020689   -5.0158862    4781.2103            2 
  367000    1.8132419   -5.0319862    4766.9439            1 
  368000     1.809644   -4.9995416     4756.115            1 
  369000    1.7980586   -5.0387468    4745.3879            1 
  370000    1.7858857   -5.0319423     4746.942            1 
  371000    1.7913337   -4.9898631    4783.4474            2 
  372000    1.7957624   -5.0059028    4791.1219            1 
  373000    1.8502047   -5.0282721    4748.9292            1 
  374000    1.7914778   -5.0160569    4743.0006            1 
  375000    1.7919801   -5.0554478    4762.9276            2 
  376000    1.7680302   -5.0655593    4765.3719            1 
  377000    1.8102048   -5.0416731    4737.7523       -1e+20 
  378000    1.7937991   -5.0152295    4737.9451            2 
  379000     1.791257   -5.0429786    4766.7921            1 
  380000     1.844721   -5.0131371    4740.8785            1 
  381000    1.7844222   -5.0288153    4776.5986            1 
  382000    1.7666411   -5.0420491     4761.583            2 
  383000    1.8189662   -5.0267354    4762.1596            1 
  384000    1.7909672   -4.9969884     4783.105            1 
  385000    1.8206005   -5.0014294    4775.9114            2 
  386000    1.7965549   -5.0233836    4749.3957            2 
  387000    1.7683443   -5.0437608    4761.6657            1 
  388000    1.7846036   -4.9983032    4821.1909            1 
  389000    1.7948374   -5.0487998    4789.2486            1 
  390000    1.7838107   -5.0839194    4752.9158            2 
  391000    1.8024827   -5.0406864    4755.9669            1 
  392000    1.7946653   -5.0446877     4771.432            1 
  393000    1.7718021   -5.0501236    4755.7468            3 
  394000    1.8122338   -5.0433924     4754.774            2 
  395000     1.816374   -5.0088355    4793.4999            2 
  396000    1.8289062   -5.0240179     4775.102            3 
  397000    1.8180835   -5.0359509    4765.7284            1 
  398000     1.794652   -5.0660997     4750.651            1 
  399000    1.7972982   -5.1189614    4730.4575            1 
  400000    1.8128841   -5.0645516    4770.6182            1 
  401000    1.7894455   -5.0388626    4769.8685            1 
  402000    1.8179879    -5.037168    4768.5212            2 
  403000    1.8040049   -5.0745686    4737.9167            2 
  404000    1.8011953   -5.0685217    4752.1288            1 
  405000    1.8021076   -5.0134941    4766.7904            2 
  406000    1.8169389   -5.0171546    4772.5196       -1e+20 
  407000    1.8144778    -5.106092    4743.5103            1 
  408000    1.8069429   -5.0590453    4777.4952            1 
  409000    1.8087482   -5.0121331     4780.559       -1e+20 
  410000    1.7621365   -5.0333868    4760.6395            2 
  411000    1.8533831   -5.0231605    4790.4674            1 
  412000    1.7932436   -5.0487885    4762.2696            2 
  413000    1.7298972   -5.0160712    4752.9021            4 
  414000    1.7697767   -5.0568885    4774.6085            1 
  415000    1.7869696   -5.0251926    4799.3372            1 
  416000    1.8465096   -5.0194781    4773.4697            1 
  417000    1.7839397   -5.0613024    4747.3085            1 
  418000     1.815988    -5.072582    4771.2668            2 
  419000    1.8265797   -5.0380629    4764.2559            1 
  420000    1.8305013   -5.1231647    4726.7771            1 
  421000    1.7969915   -5.0480569    4761.0881            1 
  422000    1.8178253   -5.0670768    4763.6094            1 
  423000    1.7935119   -5.0737628     4771.487            1 
  424000    1.7957582   -5.0674105    4761.7399            1 
  425000    1.8399334   -5.0620899     4797.302            1 
  426000    1.8127539   -5.0194959    4731.8165            1 
  427000    1.8382105   -5.0513932    4780.1426            1 
  428000     1.792906   -5.0609781    4755.4441            3 
  429000    1.7501692   -5.0478444    4752.4968            2 
  430000    1.7712309   -5.0512389    4775.7803            2 
  431000    1.7987928   -5.0540067    4764.3491            2 
  432000    1.7821385   -4.9904544    4805.6765            1 
  433000    1.7990712     -5.02946     4754.878            1 
  434000    1.7863857   -5.0150872    4773.0181            1 
  435000     1.822668   -5.0776215    4757.7136            2 
  436000    1.8211332   -4.9934599    4759.9556            1 
  437000      1.78286   -5.0585924    4766.8637            1 
  438000    1.8143233   -5.0441776    4760.2348            1 
  439000    1.7917373   -5.0560902    4722.8179            1 
  440000    1.8003898   -5.1082667    4747.6627            4 
  441000    1.8071523   -5.0743385    4746.1629            1 
  442000    1.8012952   -5.0622076    4786.3965            1 
  443000     1.783433   -5.0589326    4743.6977            1 
  444000    1.7935149   -5.1000335    4756.8607            1 
  445000    1.7742652   -5.0546195    4781.6456            1 
  446000    1.7744594   -5.0255662    4758.2979            2 
  447000    1.8078082   -5.0413706    4748.7908            2 
  448000    1.8109022   -5.0921291    4748.7017            1 
  449000    1.7932688    -5.033108    4794.4885            2 
  450000    1.8425709   -5.0202546    4766.4141            1 
  451000    1.8010264   -5.0480765    4766.1367            2 
  452000     1.776686   -5.0212723    4763.5638            3 
  453000    1.8094206   -5.0696138    4750.9497            1 
  454000    1.8116413   -5.1033616    4770.4443            1 
  455000    1.7976851    -5.027633    4759.9718            1 
  456000    1.8132939   -5.0645753    4777.1078            1 
  457000    1.8520764   -5.0239971    4783.0331            1 
  458000    1.8041894   -5.0077471    4792.1831            1 
  459000     1.810796   -5.0174237     4779.002            2 
  460000    1.7960751   -5.0272503    4780.5698            1 
  461000    1.8219305   -5.0982621    4755.9669            2 
  462000    1.8013469   -5.0212983    4781.3207       -1e+20 
  463000    1.8030716   -5.0287138    4777.9879            1 
  464000    1.8014163   -5.0688316    4757.6442            1 
  465000    1.8060611   -5.0467279    4754.8516            1 
  466000    1.7562014   -5.0204512    4780.5071            1 
  467000      1.81187   -5.0891929    4760.6034            2 
  468000    1.7862102   -5.0023167    4757.0125            1 
  469000    1.7876402    -5.052785     4744.908            1 
  470000    1.7921199   -5.0274081    4760.3572            3 
  471000     1.797872    -5.038071    4748.8281            2 
  472000    1.8204076   -5.0655647    4760.3517            2 
  473000    1.7699214   -5.0550816    4754.8309            3 
  474000    1.8645263    -5.015985    4768.9955            1 
  475000     1.813716   -5.0439717    4734.7419            2 
  476000    1.8116381   -5.0603274    4777.4669            1 
  477000    1.7428209   -5.0265776    4746.8871            1 
  478000    1.7739445    -5.019762    4754.2385            1 
  479000    1.7864284   -5.0424133     4798.392            1 
  480000    1.7897054    -5.041097    4765.8326            1 
  481000    1.8489048   -5.0311536    4772.9366            1 
  482000    1.8011031   -5.0325493    4785.0319            4 
  483000    1.7951672   -5.0346977    4784.5667            1 
  484000    1.8244075   -5.0132899    4762.8028            5 
  485000    1.7912096   -5.0565731    4782.6425            1 
  486000    1.7955833   -5.0488307    4769.8497            1 
  487000    1.7944648   -5.0486862     4763.722            1 
  488000    1.8080483   -5.0189151    4785.7528            1 
  489000    1.7975656   -5.0129831    4778.7928            1 
  490000     1.833966   -5.0740461    4756.3951            1 
  491000    1.8035252    -5.032783    4789.1364            1 
  492000     1.747868   -5.0842325     4728.639       -1e+20 
  493000    1.7558855   -5.0326833    4796.0793            1 
  494000    1.8049599   -5.0633049    4748.9677            1 
  495000    1.8022377   -5.0495552     4766.817            2 
  496000    1.8111142    -5.057988    4771.8694            2 
  497000     1.799586   -5.0951229    4738.7462            1 
  498000    1.7531155   -5.0805547    4776.4486            1 
  499000     1.820403   -5.0003083    4794.7068            1 
  500000    1.7647518   -5.0841434    4729.4448            1 
  501000    1.8066339   -5.0644862     4766.329            1 
  502000      1.81021   -5.0335878    4755.8805            1 
  503000    1.7986878   -5.0371823     4788.527            1 
  504000    1.8263246   -4.9981045    4784.1904            1 
  505000    1.7941014   -5.0464823     4747.212            1 
  506000    1.8485505    -5.103664    4755.2142            2 
  507000    1.8205709   -5.0320052    4783.6414            1 
  508000    1.7867848   -5.0819282    4762.0702            1 
  509000     1.795371   -5.1029537    4747.9342            2 
  510000    1.7948168    -5.043762     4779.239            1 
  511000    1.8059367   -5.0146646    4774.9831            1 
  512000     1.834918   -5.0608283    4766.7659            1 
  513000    1.8595035   -5.0483658    4769.7921            2 
  514000    1.8085633   -5.0290884    4761.0504            1 
  515000    1.8017133   -5.0117709    4776.8295            1 
  516000    1.8080352   -5.0687197    4756.1658            2 
  517000    1.7594811   -4.9811475    4776.5262            1 
  518000    1.8293638   -5.0031357    4788.3845            2 
  519000    1.7886161   -5.0505062    4767.8715            1 
  520000    1.8091591   -4.9927042    4760.7138            2 
  521000    1.7832998   -5.0428516    4753.9618            1 
  522000    1.7664508   -5.0277956     4763.525            1 
  523000    1.8161473   -5.0589466    4766.0658            1 
  524000    1.8259762   -5.0792958     4770.323            2 
  525000     1.793808   -5.0498929    4773.7391            2 
  526000    1.8156443   -5.0222114    4771.2158            1 
  527000    1.8308283   -5.0179474    4788.3156            1 
  528000    1.7665225   -5.0777355    4783.1643            1 
  529000    1.8275017   -5.0255142    4769.0756            2 
  530000    1.8176273   -5.0773541      4768.65            1 
  531000    1.7579287   -5.0444649    4754.9256            1 
  532000    1.8505546   -5.1033269    4744.7872            1 
  533000    1.8162107    -5.051843    4774.6272            2 
  534000    1.8557303   -5.0543793    4761.4233            1 
  535000    1.8169351   -5.0343644    4807.1802            2 
  536000    1.8431292   -5.0107434    4755.8943            2 
  537000     1.795774   -5.0808795      4748.65            2 
  538000    1.8044982   -5.0134214     4776.133            1 
  539000    1.8198039   -5.0327411    4761.5025            2 
  540000    1.7880419   -5.0400392    4771.6726            1 
  541000    1.8182077   -5.0775631     4770.096            1 
  542000    1.8337493   -5.0674626    4744.9292            1 
  543000     1.809935   -5.0687508    4752.2786            2 
  544000    1.7993141   -5.0419843    4774.6606            2 
  545000    1.8206884   -5.0518545    4762.8394            1 
  546000    1.7897027   -5.0601971     4782.871            1 
  547000    1.8127607   -5.0120052    4746.0712            1 
  548000    1.7685419   -5.0695145    4768.1026       -1e+20 
  549000     1.800132   -5.0813019    4733.0198            1 
  550000    1.7673812   -5.0378842     4735.654            1 
  551000    1.8268155   -5.0564819    4790.0889            2 
  552000    1.8097546   -5.0359042    4757.9785            1 
  553000     1.797603   -5.0252563    4753.0464            3 
  554000    1.7616029   -5.1098199    4771.5069            1 
  555000    1.8060907   -5.0075873     4749.974            2 
  556000    1.7954709   -5.0813411    4741.3196            1 
  557000    1.7843773   -5.0523446    4774.4092            1 
  558000    1.7823608   -5.0347436    4778.7123            2 
  559000    1.8032376   -5.0444584    4767.0655            1 
  560000    1.7993992   -5.0476717    4754.9322            1 
  561000      1.83933   -5.0187008    4765.0564            1 
  562000      1.81991   -5.0903223    4750.1716            2 
  563000    1.7672609   -5.0534092    4762.0572            1 
  564000    1.8049805   -5.0278357    4781.7954            1 
  565000     1.828415    -5.071732    4731.6756            1 
  566000    1.8061839   -4.9956235    4749.1393            1 
  567000    1.8072397   -5.0421216    4770.3242       -1e+20 
  568000    1.7755386    -5.037257    4748.3205            1 
  569000    1.7697077   -5.0213906    4775.5305            3 
  570000    1.8207982   -5.0367787     4783.522            1 
  571000    1.8163077   -5.0628309     4774.697            1 
  572000    1.8322449   -5.0440072    4751.4374            1 
  573000    1.7768555   -4.9991369     4777.676            1 
  574000    1.8364026   -5.0507369    4773.7492            1 
  575000    1.7875153    -5.065357    4751.5779            2 
  576000    1.7973446   -5.0439551     4790.556       -1e+20 
  577000    1.8188476   -5.0852547    4750.6113            2 
  578000    1.7788961   -5.0443722    4764.5222            1 
  579000    1.8090176   -4.9686353     4766.723            2 
  580000    1.7664261   -5.0031704    4767.3106            2 
  581000    1.8168983   -5.0035978    4755.6427            1 
  582000    1.8048391   -5.0395346    4775.3848            1 
  583000    1.8333623   -5.0738051    4763.3583            2 
  584000    1.7968781   -5.0449662    4766.0986       -1e+20 
  585000    1.7712309   -5.0369762    4758.9761            1 
  586000    1.7853306   -5.0174565     4758.097            1 
  587000    1.8391598   -5.0335499    4754.0324            1 
  588000    1.8233597   -5.0568534    4765.3731            1 
  589000    1.7803033   -5.0290116    4775.9105            1 
  590000    1.8399571   -5.0221883    4775.1464            1 
  591000    1.8077208   -5.0912985    4735.9793            1 
  592000    1.7896046   -5.0738207    4746.8887            1 
  593000    1.8274844   -5.0846099    4756.9891            1 
  594000    1.7958499   -5.0383094    4766.7957            3 
  595000    1.7494212   -5.1204228     4753.287            1 
  596000    1.7806041   -5.0163007    4767.7848            1 
  597000    1.7521241   -5.0195337    4760.3633            1 
  598000    1.7988398   -5.0208698    4769.8946            1 
  599000    1.8175334   -5.0562338    4780.9849            2 
  600000    1.7982674    -5.069525    4748.8621            1 
  601000     1.779824   -5.0831965    4746.5348            2 
  602000    1.8408745   -5.0595204    4729.7011       -1e+20 
  603000    1.8208262   -5.0592548     4743.102            2 
  604000    1.7972413   -5.0506856    4753.6817            1 
  605000    1.7932558   -5.0195345    4741.7412            3 
  606000    1.7618172    -5.044418    4772.2286            2 
  607000    1.8092588   -5.0302796    4779.4114            3 
  608000    1.8032174   -5.0354209    4755.1089            1 
  609000    1.8286502   -5.0336684    4801.2675            2 
  610000    1.8362422   -5.0602834    4767.8185            1 
  611000    1.7815918   -5.0625887    4773.8634            1 
  612000    1.7983757   -5.0776973    4746.3051            1 
  613000    1.8070913   -5.0532822    4760.1897            3 
  614000    1.8496695   -5.0575171    4774.4421            1 
  615000    1.7717042   -5.0194758    4765.7898            1 
  616000    1.8316677   -5.0606156    4760.4899            1 
  617000    1.8173259   -5.0511687    4805.9716            1 
  618000    1.8122559    -5.040504    4773.6991            1 
  619000    1.8388665   -5.0287273    4774.0965            1 
  620000    1.7797426    -5.047557    4769.4162            3 
  621000    1.8392607   -5.0338869    4784.9922            1 
  622000    1.7670577   -5.0672075     4733.286            2 
  623000    1.7965497   -5.0174183    4788.0749            1 
  624000    1.7996449   -5.0605706    4782.6953            1 
  625000    1.8180243   -5.0008254    4736.4074            2 
  626000    1.8253227   -5.0359254    4806.1475            1 
  627000    1.7682114   -5.0219699    4782.3137            1 
  628000    1.7842696   -5.0520216    4762.2922            1 
  629000    1.7833971   -5.0491027    4794.8436            1 
  630000    1.7541737   -5.0968416     4748.645            2 
  631000    1.7929467    -5.072279    4764.4097            1 
  632000    1.8176827   -5.0478785    4754.4503            1 
  633000    1.7993747   -5.0963272    4748.7693            3 
  634000    1.8122264    -5.073879    4754.0369            1 
  635000    1.7985509   -5.0445659    4758.6748            1 
  636000    1.7482605   -5.0570754    4760.5271            1 
  637000    1.7676169   -4.9887675    4763.5234       -1e+20 
  638000    1.8219385   -4.9965098    4786.6536            1 
  639000    1.8099067   -5.0655122    4742.1835            2 
  640000    1.7902168    -5.009025    4777.9208            1 
  641000    1.8415698   -5.0589368    4750.7333            1 
  642000    1.7921313   -4.9817708    4754.9638            1 
  643000    1.8055007   -5.0773368    4751.4186            2 
  644000    1.8172778   -5.0429588    4788.4641            2 
  645000    1.8120019   -5.0920806    4750.6919            1 
  646000    1.7913309   -5.0483254    4748.2007            2 
  647000    1.8022422   -5.0242135    4760.3137            1 
  648000    1.7992511   -5.0467426    4770.4934            1 
  649000    1.7933594   -4.9997162    4770.6187            1 
  650000    1.7988837   -5.0399976    4773.1471       -1e+20 
  651000    1.8039009   -5.0688794     4767.252       -1e+20 
  652000    1.7990461   -5.0183241    4719.9681            1 
  653000    1.8317659   -5.0518285    4745.4414            1 
  654000    1.8317368   -5.0568857    4725.7882            2 
  655000    1.7975057   -5.0254413    4766.0857            1 
  656000    1.7874277   -5.0128822     4766.856            1 
  657000    1.8059526   -5.0121258    4749.8316            1 
  658000    1.7891455   -5.0188327    4790.5663            1 
  659000    1.7915339   -5.0435927    4777.5806            1 
  660000    1.7908374   -5.0408706    4793.8478            1 
  661000    1.8091525   -5.0281859    4747.2882            1 
  662000    1.8084632   -5.0687218    4741.7123            1 
  663000    1.7964886   -5.0368584    4758.3352            1 
  664000    1.8222425   -5.0351624    4785.6224            1 
  665000    1.7917244   -5.0978037    4748.7603            1 
  666000    1.7952217   -5.0838895    4758.4231            1 
  667000    1.7474387   -5.0793352    4757.8816            1 
  668000    1.7971469   -5.0378668    4757.4769            2 
  669000    1.7628153   -5.0596397     4731.627            1 
  670000    1.7922505   -5.0488799     4739.963            1 
  671000    1.8432234   -5.0526779    4734.7968            1 
  672000    1.8510892   -5.0866168    4745.6415            2 
  673000    1.8034499   -5.0285995    4755.6587            2 
  674000    1.7704293   -5.0745638    4767.9306            2 
  675000    1.7893533   -5.0524856    4771.5503            4 
  676000    1.8184167   -4.9953839    4779.9505            1 
  677000    1.7768109    -5.065231    4790.8693            2 
  678000    1.7886793   -5.0801317    4748.8233            1 
  679000    1.8391202   -5.0465581    4752.8612            1 
  680000    1.7703488   -5.0054651    4749.1002            1 
  681000    1.7854738   -5.0330215    4750.6077            1 
  682000    1.7825059   -5.0498881    4760.1127            1 
  683000    1.7604526    -5.057872    4759.5427            2 
  684000    1.7781849   -5.0913788    4749.7275            1 
  685000    1.8279433   -5.0824998    4764.4064            2 
  686000    1.8629674   -5.0341497    4773.9087            1 
  687000    1.7685782   -5.0238816    4778.1244            2 
  688000    1.8029385   -4.9971516    4785.5668            1 
  689000    1.8106786   -5.0641755    4746.7619            2 
  690000    1.8438082   -5.0279426    4784.7268            3 
  691000    1.7976253   -5.0401441    4784.1917            1 
  692000    1.8044532   -5.0370734    4783.7962       -1e+20 
  693000    1.7503784   -5.0010052     4798.151            1 
  694000    1.7873814   -5.0787862    4783.3085            1 
  695000      1.82199    -5.040031    4765.1873            1 
  696000     1.825822   -5.0657534    4787.0912            1 
  697000    1.7825551    -5.085549    4759.4949            3 
  698000    1.8195723   -5.0336326    4755.8367            1 
  699000    1.7806374   -5.0951455     4756.006       -1e+20 
  700000    1.7982488   -5.0287221    4792.6368            2 
  701000    1.8403357     -5.01978    4794.8639            1 
  702000    1.8259747   -5.0636968    4759.3186            1 
  703000    1.8335252   -5.1045584    4757.8812            3 
  704000    1.8129281   -5.0618239    4753.5692            1 
  705000     1.831689   -5.0399459     4775.371            1 
  706000     1.786385   -5.0553181    4754.4193            1 
  707000    1.8106586   -5.0044088    4780.4575            1 
  708000    1.7974062   -5.0704932    4761.4606            1 
  709000     1.775389   -5.0660555    4753.6662            1 
  710000    1.7883317   -5.0290765    4788.4347            1 
  711000    1.7820874    -4.950364    4791.5555            1 
  712000    1.7818401   -5.0540903    4780.0869            1 
  713000    1.7867308   -5.0077575    4775.5673            1 
  714000    1.7617023   -5.0354068    4795.8954            1 
  715000    1.8055452   -5.0816703    4750.7122            1 
  716000    1.8150949   -5.0793312    4758.0187            1 
  717000    1.7578236   -5.0569891    4774.8603            1 
  718000    1.7900266   -5.0219927    4780.4721            2 
  719000    1.8052709   -5.0339813    4781.8834       -1e+20 
  720000     1.781177   -5.0586313    4763.9851            1 
  721000      1.80522   -5.0351601    4783.3879       -1e+20 
  722000    1.8577361   -5.0754366    4743.9731            1 
  723000    1.7871438   -4.9910142    4805.4577            1 
  724000     1.815987   -5.0710756    4730.2848            1 
  725000    1.8163873    -5.069533    4757.4679            2 
  726000    1.8204727   -5.0092934    4779.0065            1 
  727000     1.796482   -5.0171796    4795.4873            2 
  728000    1.8137022   -5.0672583    4758.9967            2 
  729000    1.7905133   -5.0581319    4786.4567            2 
  730000    1.8274215   -5.0251958    4774.9458            1 
  731000    1.7677958   -5.0624967    4756.7779            2 
  732000    1.8152516   -5.1008958    4727.6874            2 
  733000    1.8246721   -5.0701938    4760.4592            1 
  734000    1.7804027   -5.0101243    4733.3743            2 
  735000    1.7990498   -5.0930442    4756.1459            1 
  736000    1.7579064    -5.036678    4755.6233            1 
  737000    1.8183505    -5.039418    4749.1846            3 
  738000    1.7815883   -5.0872473    4758.5983            2 
  739000    1.7827464   -5.0879309    4750.2201            2 
  740000    1.7894599    -5.053166    4771.0114            2 
  741000    1.8216025   -5.0676119    4756.5399            1 
  742000    1.8126961   -5.0256676    4795.5415            1 
  743000    1.7532817   -5.0331389    4760.9997            1 
  744000    1.7799827   -5.0472589    4777.9197            1 
  745000    1.7918022   -5.0205958    4805.8845            1 
  746000    1.7696586    -5.076737    4762.8418       -1e+20 
  747000    1.8343727   -5.0345014    4761.6742            2 
  748000     1.799188    -4.998891    4764.7154            1 
  749000    1.7776359   -5.0115228    4743.7208            1 
  750000    1.7706378   -5.0304268    4759.2134            3 
  751000    1.7910217   -5.0252051    4775.8965            3 
  752000    1.8366801   -5.0437862    4761.6094            2 
  753000    1.7936036   -5.0325364    4783.5872            1 
  754000    1.8197256    -5.001471    4787.0834            2 
  755000    1.8110987   -5.0500784    4741.6454            1 
  756000    1.8079396   -5.0807963    4786.3667            1 
  757000    1.8343413   -5.0066665    4744.7442            1 
  758000    1.8188327   -5.0327608    4776.6554            2 
  759000    1.8039114   -5.0704891    4743.6125            3 
  760000    1.7975358   -5.0719426    4734.4287            1 
  761000    1.7840328   -5.0833655    4745.9021            1 
  762000     1.795845   -5.0515971    4785.4482            1 
  763000    1.8302211   -5.0025554    4781.7294            1 
  764000    1.8030901   -5.0683957    4762.8122            1 
  765000    1.8019087   -5.0295518    4787.3314            1 
  766000    1.7859761   -5.0535325    4750.6742            1 
  767000    1.8270716    -5.061133    4767.6046            1 
  768000    1.7939814   -5.0442708      4752.61            1 
  769000     1.761944   -5.0306181    4788.0089            2 
  770000    1.8066609    -4.959458    4798.1349            1 
  771000    1.8161006   -5.0717115    4717.8797            4 
  772000    1.8152764   -5.0650659    4769.0193            2 
  773000    1.8012685   -5.0324851    4760.7438            2 
  774000    1.8385824   -5.0280412    4791.9401            1 
  775000    1.8157752   -5.0874249    4754.6924            1 
  776000    1.7905048   -5.0824639     4758.449            2 
  777000    1.8436336   -5.0394962    4792.2073            2 
  778000    1.7916551   -5.0653031     4784.502            1 
  779000    1.8134772   -5.0120004    4794.1327            1 
  780000    1.7627038   -4.9909946    4789.8959            2 
  781000    1.7985352   -5.0562167    4767.7192            1 
  782000    1.7951491   -5.0614142    4798.6698            1 
  783000    1.8482682   -5.0833672    4773.7642            1 
  784000    1.7415758   -5.0438088    4779.2578            1 
  785000    1.7913891   -5.0655267    4777.1959            1 
  786000    1.8012643   -5.0534633    4765.1732            2 
  787000    1.7996243   -5.0435703    4744.7401            1 
  788000    1.8148949   -5.0309773    4760.2116            2 
  789000    1.8259469   -5.0541859     4740.169            1 
  790000    1.8158376   -5.0017627    4766.8491            2 
  791000    1.7821331   -5.0627558    4763.8746            2 
  792000    1.7987124   -5.0674038    4746.1022            1 
  793000    1.8188366   -5.1129333    4766.2709            1 
  794000    1.7668527   -5.0292043     4791.542            1 
  795000    1.7951857   -5.0621468     4774.952            1 
  796000    1.7978939   -5.0881985    4771.0439            1 
  797000    1.7509174   -5.0205506    4756.4059            3 
  798000    1.8406061    -4.981905    4775.1784            1 
  799000     1.819281   -5.0679343    4745.4282            1 
  800000    1.8044471   -5.0690159    4753.9891            3 
  801000    1.7814169   -5.0586429    4769.6134            2 
  802000    1.8413653   -5.0198067    4759.1502            1 
  803000    1.8190655   -5.0129102    4780.5741            1 
  804000    1.7810069   -5.0164725    4762.6754            2 
  805000    1.7763344   -5.0037307    4774.7785            2 
  806000    1.8010725    -5.068479    4740.7669            3 
  807000    1.7705345   -5.0359594    4740.2796            2 
  808000     1.789125   -5.0593696    4788.7735            1 
  809000    1.8072083   -5.0182451    4762.3752            1 
  810000    1.8022392   -5.0516066    4799.7293            1 
  811000    1.7953772   -4.9944637    4773.7397            1 
  812000    1.7820521   -5.0726271    4776.9489            2 
  813000    1.8058793   -5.0041354     4788.733            1 
  814000    1.8054512   -5.0326299    4782.6829            1 
  815000    1.7833299   -5.0235459    4782.0997            2 
  816000    1.8299108   -5.0305829    4772.9058            1 
  817000     1.814515   -5.0324868    4776.5129            2 
  818000    1.7761958   -4.9957989    4781.3346       -1e+20 
  819000    1.7957356   -5.0770511    4738.9577            1 
  820000    1.8194264   -5.0605482    4755.1378            2 
  821000    1.8019607     -5.05966      4798.37            1 
  822000    1.7828845    -5.089388    4769.4525            1 
  823000     1.812447   -5.0021562    4781.7993            3 
  824000     1.761001   -5.0750692    4752.1605            1 
  825000    1.8250182    -5.068367    4741.7193            1 
  826000    1.7916572   -5.0462649    4773.4887            1 
  827000    1.8082441   -5.0680514    4756.8906            2 
  828000    1.8180972   -5.0797635    4770.8261            1 
  829000    1.8160677   -5.0601699    4764.8279            1 
  830000    1.8100306   -5.0334552    4764.1407            1 
  831000    1.8227215   -5.0500186    4769.9262            1 
  832000    1.7730319   -5.0115902    4755.7214            1 
  833000    1.8398908   -5.0483156    4751.5202            1 
  834000    1.8031286   -5.0727491    4747.0544            2 
  835000    1.7691549    -5.015311    4790.5288            2 
  836000    1.8020068   -5.0119743    4779.9466            1 
  837000     1.803659   -5.0490215    4760.5737            1 
  838000    1.8282316   -5.0462325    4776.4778            1 
  839000    1.8175671   -5.0647999    4771.9612            1 
  840000    1.8265756    -5.019204    4770.2556            1 
  841000    1.7788268   -5.0683829    4769.0325            1 
  842000    1.7782823   -5.0314681    4771.0534            1 
  843000    1.8047254   -5.0864241    4767.2815            2 
  844000     1.791757   -5.0274654    4779.1425            1 
  845000    1.7768675   -5.0837372    4757.5649            1 
  846000     1.784703   -5.0344761    4787.2712       -1e+20 
  847000    1.8061067   -5.0054796    4780.8488       -1e+20 
  848000    1.7727827   -5.0985757    4768.5227            1 
  849000    1.7718309    -5.080922    4726.6222            1 
  850000    1.7902814   -5.0105511    4760.8882            1 
  851000    1.7859305   -5.0436098    4776.9648       -1e+20 
  852000    1.8077971   -5.0395615    4753.5397            3 
  853000    1.7981325   -5.0762239    4755.0975            2 
  854000    1.8150033   -5.0932275     4757.024            3 
  855000    1.8198988    -5.029336    4775.6993            1 
  856000     1.820773    -5.054779    4763.1262            1 
  857000    1.8248989   -5.0440596    4787.2432            2 
  858000    1.7691058   -5.0180184    4774.2372            1 
  859000    1.7892003   -5.0572734     4785.391            2 
  860000    1.8031449   -5.0425129    4769.5045            2 
  861000    1.7762041   -5.0314426    4764.1731            3 
  862000    1.8028066   -5.0570548    4770.7326       -1e+20 
  863000    1.8302548   -5.0881523    4775.5552            3 
  864000    1.8065395   -5.1109499    4769.4593            1 
  865000    1.7989796   -5.1028768    4751.2327            2 
  866000    1.8276839   -5.0723364    4752.9447            1 
  867000    1.7749349   -5.0459114    4778.3701            1 
  868000     1.844964   -5.0818482    4763.6391            1 
  869000    1.7710205   -5.0271251    4769.5021            1 
  870000    1.7535783    -5.033921     4778.871            1 
  871000    1.7787928   -5.0870588    4744.8247            1 
  872000    1.8064465   -5.0090982    4764.3375            1 
  873000    1.8422072   -5.0379352    4763.8378            1 
  874000    1.7645803   -5.0870244    4768.9181            2 
  875000    1.7906407   -5.0357457    4758.5098            1 
  876000    1.8113226   -5.0432827    4778.7144       -1e+20 
  877000     1.796192   -5.0178807     4782.966            1 
  878000    1.8301777   -5.0672613     4786.626            1 
  879000    1.7966933    -5.067287    4758.0082            2 
  880000     1.788889   -5.0539812    4772.8749            1 
  881000    1.8213351   -5.0117426      4793.29            1 
  882000    1.7986544   -5.1057946    4758.7887            1 
  883000    1.7772972   -5.0297481    4783.4684            1 
  884000    1.7897428   -5.1080031    4754.6499            1 
  885000    1.7768955    -5.060291    4789.4701            1 
  886000    1.8280403   -5.0774827    4740.8536            1 
  887000    1.7823353   -4.9907352    4818.8893            1 
  888000    1.7873614   -5.0306726     4785.702            1 
  889000    1.8003659   -5.0077444     4786.161            1 
  890000    1.7756666   -5.0594163    4752.8402            1 
  891000    1.7993322   -5.0329266    4753.8192            1 
  892000      1.80668   -5.0460788    4744.2671            1 
  893000    1.7770198   -5.0646183     4755.577            2 
  894000    1.7740846   -5.0773147     4779.746            1 
  895000    1.8027856   -5.0530795    4765.9772            1 
  896000    1.7905121   -5.0087078    4779.6245            1 
  897000    1.8037153   -5.0281717    4767.5116            1 
  898000    1.8142251   -5.0737629    4763.6671            2 
  899000    1.8537325   -5.0302343    4774.7445            1 
  900000    1.7927398   -5.0520754    4742.8172            1 
  901000    1.7844969   -5.0105397    4763.2503            1 
  902000    1.7624288   -5.0665228    4734.3515            1 
  903000    1.7858697   -5.0529878    4778.5506            1 
  904000    1.8373325   -5.0626935    4741.0436            2 
  905000    1.8318367   -5.0626915    4786.5356            2 
  906000     1.804403   -5.0442918    4739.8563            2 
  907000    1.7798982   -5.0230321    4772.7196            1 
  908000    1.7937352   -5.0591912    4759.4757            1 
  909000    1.8371349    -5.100506    4774.9367            2 
  910000    1.8035328   -5.0353338    4788.8988            1 
  911000    1.7731482   -5.0869786    4740.3092            1 
  912000    1.8374203   -5.0328699    4759.4186            1 
  913000    1.8062725   -5.0559463    4770.1589            3 
  914000    1.8104095   -5.0401173    4780.5369            2 
  915000    1.8383915    -5.056884    4780.3353            1 
  916000    1.7825807   -5.0461066    4782.4927            1 
  917000    1.8241606   -5.0696431    4786.2024            1 
  918000    1.8307687   -5.0849676    4774.5349            1 
  919000    1.8086822   -5.0289764    4770.9318            2 
  920000    1.8414326   -5.0177225    4780.9156            1 
  921000     1.816744   -5.0555632     4747.102            1 
  922000    1.7765819   -4.9741785    4779.0081            1 
  923000     1.810474   -5.0136491    4783.0894            1 
  924000    1.7919095   -5.0267132    4798.8721            1 
  925000    1.7610122   -5.0595251    4756.6499            1 
  926000    1.8016591   -5.0403693    4790.4519            1 
  927000    1.7305011   -5.0326101    4788.6141            2 
  928000    1.7770476   -5.0657144    4754.7957       -1e+20 
  929000    1.7861012   -5.0378315    4756.9572            1 
  930000    1.7822915   -5.0187531    4773.6319            1 
  931000    1.7295688    -5.050265    4741.4192            1 
  932000    1.8010451   -5.0225645    4770.7926            2 
  933000    1.8014687   -5.0934925    4749.2595            2 
  934000    1.8308212   -5.0777961    4781.3233            1 
  935000    1.8485027   -5.0306099    4799.1078            1 
  936000     1.783482   -5.0924102     4765.088            2 
  937000     1.804394    -5.018064    4797.8413            1 
  938000    1.8044502   -5.0361475     4751.205            1 
  939000    1.7846873   -5.1032381    4773.9798            1 
  940000    1.7960477    -5.043211    4772.6999            1 
  941000    1.7889119   -5.0398506    4753.3974            1 
  942000    1.8244937   -5.0466644    4784.4402            1 
  943000    1.8034682   -5.0107765     4783.812       -1e+20 
  944000    1.7786735   -5.0343801    4750.3005            1 
  945000    1.8362468   -5.0598033    4755.3018            2 
  946000    1.7572122   -5.0427695    4770.1574            2 
  947000    1.8286129   -5.0673004    4750.6126            2 
  948000    1.7712087    -5.017332    4765.8205            2 
  949000     1.789509   -5.0373615    4750.6786            1 
  950000    1.7730057   -5.0274519    4807.8491            1 
  951000    1.8223818   -5.0406897    4763.4581            1 
  952000    1.7968081    -5.038973    4745.9233            1 
  953000    1.8504819   -5.0852634    4780.0405            1 
  954000     1.761135   -5.0372094    4765.8487            1 
  955000    1.8263618   -5.0269185    4770.0086            1 
  956000    1.7828519   -5.0332809    4780.8232            1 
  957000    1.7800364   -5.0793405     4771.324            2 
  958000    1.8083486   -5.0541435    4775.8878       -1e+20 
  959000    1.7912868    -5.038444    4797.6539            2 
  960000    1.8015366    -5.065098    4762.5983            1 
  961000    1.8119904   -5.0060298    4754.2011            2 
  962000    1.8059116   -5.0200475    4800.1847            1 
  963000    1.8019347   -5.0622144    4778.3924            1 
  964000    1.8276573   -5.0501443    4750.9901            1 
  965000    1.8337929   -5.0526935    4789.9088            1 
  966000    1.8195119   -5.0335049    4799.6264            2 
  967000    1.8221093   -5.0511985    4778.8533            1 
  968000    1.8150667   -5.0601719    4728.7579            2 
  969000    1.8236916   -5.0232529    4770.9459            1 
  970000    1.7731591   -5.0055726    4783.8181            2 
  971000    1.7736654   -5.0872751    4774.8125            1 
  972000    1.7998212   -5.0766722    4762.8281            2 
  973000    1.8009621   -5.0319866    4783.2366            1 
  974000    1.7767364   -5.0563564    4785.0096            1 
  975000    1.7689446   -5.0512625    4770.1382            1 
  976000    1.8357846   -4.9702032    4794.3518            1 
  977000    1.8076981    -5.048841    4757.0292            2 
  978000    1.7790559   -5.0325082    4786.2733            1 
  979000    1.7614656   -5.0784282    4758.0946            3 
  980000    1.7870791   -5.0190823    4787.6773            1 
  981000    1.8018803   -5.0283064    4780.9986            2 
  982000    1.8008571    -5.048202    4746.8006            1 
  983000     1.809209    -5.015027    4751.4214            1 
  984000    1.7903122   -5.0540777    4779.5598            3 
  985000    1.8262956   -5.0775197    4765.7716            2 
  986000    1.7860655   -5.0428952    4767.1291            2 
  987000    1.7704702   -5.0457797    4751.6649            2 
  988000    1.8211946   -5.0723671    4777.2982            1 
  989000    1.8109495   -5.0845983    4758.6714            1 
  990000     1.825075    -5.053456    4739.0491            3 
  991000    1.7588717   -5.0486698    4767.2671            1 
  992000    1.8129056   -5.1090006    4746.2917            1 
  993000    1.8332495   -5.0178213    4768.8316            1 
  994000     1.791797   -5.0569273    4754.7166            3 
  995000    1.7741022   -5.0618311    4761.7512            1 
  996000     1.743362   -5.0509655      4786.34            3 
  997000    1.7882638    -4.978021    4775.8092            2 
  998000    1.7967917   -5.0350187    4772.7269       -1e+20 
  999000    1.7924563   -5.0462867    4740.4898            1 
 1000000      1.79515    -5.071931     4763.297            1 
 1001000    1.8185034   -5.0686747    4762.8552            1 
 1002000    1.7915406   -5.0198994    4781.0586            1 
 1003000    1.7580879   -5.0575434    4761.0418            2 
 1004000    1.8136121   -5.0152954    4792.0979            1 
Loop time of 2027.98 on 48 procs for 1000000 steps with 4000 atoms

Performance: 85207.787 tau/day, 493.101 timesteps/s
99.4% CPU use with 48 MPI tasks x no OpenMP threads

MPI task timing breakdown:
Section |  min time  |  avg time  |  max time  |%varavg| %total
---------------------------------------------------------------
Pair    | 110.14     | 114.34     | 121.25     |  30.9 |  5.64
Neigh   | 19.149     | 19.518     | 19.859     |   4.9 |  0.96
Comm    | 114.56     | 122.07     | 129.79     |  30.5 |  6.02
Output  | 1.2468     | 1.2477     | 1.2637     |   0.2 |  0.06
Modify  | 1746.6     | 1757.3     | 1764.7     |  10.9 | 86.65
Other   |            | 13.48      |            |       |  0.66

Nlocal:        83.3333 ave          95 max          76 min
Histogram: 2 3 14 7 9 8 3 1 0 1
Nghost:        1457.38 ave        1475 max        1428 min
Histogram: 1 0 1 1 9 12 6 9 7 2
Neighs:        7938.58 ave        9276 max        7179 min
Histogram: 3 7 9 9 7 10 2 0 0 1
FullNghs:      15876.3 ave       18292 max       14320 min
Histogram: 3 3 11 9 9 6 6 0 0 1

Total # of neighbors = 762062
Ave neighs/atom = 190.51550
Neighbor list builds = 79426
Dangerous builds = 840

#clear
#
#next RN
#
#jump SELF
Total wall time: 0:33:49
