
units lj                  # Use reduced LJ style units
atom_style atomic         # Uncharged point particles
atom_modify map hash      # Needed for indexing of clusters etc
                          # Used to be able to find where atoms are in relation to each other.

lattice fcc 1.0 spacing 1 1 1
Lattice spacing in x,y,z = 1.5874011 1.5874011 1.5874011
region box block 0 10 0 10 0 10 units lattice
create_box 2 box
Created orthogonal box = (0.0000000 0.0000000 0.0000000) to (15.874011 15.874011 15.874011)
  3 by 4 by 4 MPI processor grid
create_atoms 1 box
Created 4000 atoms
  using lattice units in orthogonal box = (0.0000000 0.0000000 0.0000000) to (15.874011 15.874011 15.874011)
  create_atoms CPU = 0.003 seconds
set type 1 type/fraction 2 0.81 78393
Setting atom values ...
  3229 settings made for type/fraction
mass 1 1.0
mass 2 1.0
pair_style lj/cut  3.5
pair_modify tail  yes
pair_coeff 1  1  1.0  1.0   # Intearaction between 1 and 1 set with epsilon = 1 and sigma = 1
pair_coeff 1  2  1.5  0.8
pair_coeff 2  2  0.5  0.88

write_data data.0
System init for write_data ...
Neighbor list info ...
  update every 1 steps, delay 10 steps, check yes
  max neighbors/atom: 2000, page size: 100000
  master list distance cutoff = 3.8
  ghost atom cutoff = 3.8
  binsize = 1.9, bins = 9 9 9
  1 neighbor lists, perpetual/occasional/extra = 1 0 0
  (1) pair lj/cut, perpetual
      attributes: half, newton on
      pair build: half/bin/atomonly/newton
      stencil: half/bin/3d
      bin: standard
WARNING: Not all mixed pair coeffs generated from mixing. Use write_data with 'pair ij' option to store all pair coeffs. (../write_data.cpp:312)


#############################
#   M E L T   S Y S T E M   #
#############################

velocity all create 2.4 3143649 mom yes dist gaussian # Assign velocities
                                                    # Temperature 2.4, random number seed, zero linear momentum
                                                                                # Gaussian distribution

timestep 0.002   # simulation timestep
thermo 1000       # output thermodynamic data every 1000 steps bf 100

# Define a fix  in this case with index 1 applied to all
# particles in the simulation. This fix is for simulations
# in the anisotropic NPT ensemble. Note that we use the MTK
# correction.
fix 1 all npt temp 2.4 2.4 0.1 iso 5.68 5.68 0.5 mtk yes tchain 5 pchain 5 # Use NPT ensemble
                                                                         # Set temperature and pressure and damping
                                                                         # Numbers of thermostats in chain and in barostat
run 10000          # run for 10000 steps
Per MPI rank memory allocation (min/avg/max) = 3.642 | 3.644 | 3.648 Mbytes
Step Temp E_pair E_mol TotEng Press Volume 
       0          2.4   -3.6458899            0 -0.046789881   -3.2123361         4000 
    1000    2.4243593   -2.9921369            0   0.64349287    5.8356511    3776.9215 
    2000    2.4230265   -2.9802082            0   0.65342298    5.9417135    3780.1588 
    3000    2.3752415   -2.9686581            0   0.59331351    5.6755256    3806.9694 
    4000    2.4443857   -2.9964618            0   0.66920008    5.5659235    3812.4939 
    5000    2.3919803   -2.9975239            0   0.58954948    5.5375305    3811.2483 
    6000    2.3907141   -3.0124674            0   0.57270721    5.6266273    3810.5477 
    7000    2.3533051   -2.9409506            0   0.58812459     5.711304    3805.8982 
    8000    2.4158527   -2.9795045            0   0.64336866    5.9260739    3778.8505 
    9000    2.4084125   -2.9974524            0   0.61426321    5.4445172    3816.7793 
   10000    2.3615679   -2.9955969            0   0.54586936    5.7121027    3792.3046 
Loop time of 2.75807 on 48 procs for 10000 steps with 4000 atoms

Performance: 626524.514 tau/day, 3625.721 timesteps/s
99.5% CPU use with 48 MPI tasks x no OpenMP threads

MPI task timing breakdown:
Section |  min time  |  avg time  |  max time  |%varavg| %total
---------------------------------------------------------------
Pair    | 1.1302     | 1.2012     | 1.3876     |   4.1 | 43.55
Neigh   | 0.2106     | 0.21796    | 0.24124    |   1.2 |  7.90
Comm    | 0.74153    | 0.91427    | 1.032      |   6.5 | 33.15
Output  | 0.00024574 | 0.00025143 | 0.00032181 |   0.0 |  0.01
Modify  | 0.32143    | 0.40888    | 0.48531    |   6.2 | 14.82
Other   |            | 0.01547    |            |       |  0.56

Nlocal:        83.3333 ave          91 max          71 min
Histogram: 1 2 0 3 4 10 7 8 10 3
Nghost:        1698.58 ave        1735 max        1654 min
Histogram: 1 0 3 6 6 13 9 6 3 1
Neighs:        10063.7 ave       11348 max        8556 min
Histogram: 1 4 1 2 12 10 9 3 5 1

Total # of neighbors = 483059
Ave neighs/atom = 120.76475
Neighbor list builds = 902
Dangerous builds = 175

# Equilibrate just above the melting temperature to avoid step fn in T

fix 1 all npt temp 1.25 1.25 0.1 iso 5.68 5.68 0.5 mtk yes tchain 5 pchain 5
run 2000
Per MPI rank memory allocation (min/avg/max) = 3.644 | 3.645 | 3.649 Mbytes
Step Temp E_pair E_mol TotEng Press Volume 
   10000    2.3615679   -2.9955969            0   0.54586936    5.7121027    3792.3046 
   11000    1.2510055   -4.4173358            0   -2.5412968    5.6532287    2923.1314 
   12000    1.2399016   -4.3807196            0   -2.5213322    5.7799572     2927.877 
Loop time of 0.641313 on 48 procs for 2000 steps with 4000 atoms

Performance: 538894.321 tau/day, 3118.601 timesteps/s
99.6% CPU use with 48 MPI tasks x no OpenMP threads

MPI task timing breakdown:
Section |  min time  |  avg time  |  max time  |%varavg| %total
---------------------------------------------------------------
Pair    | 0.27529    | 0.30548    | 0.36028    |   2.8 | 47.63
Neigh   | 0.038501   | 0.042046   | 0.049247   |   0.8 |  6.56
Comm    | 0.18388    | 0.2448     | 0.28059    |   3.7 | 38.17
Output  | 5.0193e-05 | 5.3094e-05 | 7.2773e-05 |   0.0 |  0.01
Modify  | 0.040297   | 0.044072   | 0.04815    |   1.1 |  6.87
Other   |            | 0.004862   |            |       |  0.76

Nlocal:        83.3333 ave          92 max          76 min
Histogram: 3 3 3 10 7 9 9 1 2 1
Nghost:        2021.81 ave        2055 max        1999 min
Histogram: 5 4 7 6 9 9 4 2 1 1
Neighs:        13021.0 ave       14647 max       11775 min
Histogram: 6 3 7 7 7 6 4 3 3 2

Total # of neighbors = 625009
Ave neighs/atom = 156.25225
Neighbor list builds = 141
Dangerous builds = 7

#############################
# L I N E A R  Q U E N C H  #
#############################

# Define solid atoms. This closely follows ten Wolde  Ruiz-Montero and Frenkel  Faraday Discuss  1996  104  93-110
# Compute components of the per-atom q6 vector
compute q6 all orientorder/atom degrees 1 6 components 6 nnn NULL cutoff 1.3 # compute the Q6 parameter.
                                                                             # Use all neighbours within 1.3 unit cell.

# get number of connections
compute coord_number all coord/atom orientorder q6 0.5

# An atom is solid if it has 8 or more connections (of a possible 14)
variable is_solid atom c_coord_number>=8
group solid dynamic all var is_solid    # Must be dynamic to update
dynamic group solid defined

# do clustering
compute cluster solid cluster/atom 1.3 # Create a cluster where all atoms within are solid and max 1.3 units from another member

# define chunks one chunk per cluster
compute clus_chunks solid chunk/atom c_cluster nchunk every compress yes  # Says which atoms are in which chunk

# count the size of each chunk
compute size_chunks solid property/chunk clus_chunks count


# Find the maximum entry in the vector of chunk sizes
variable max_n equal max(c_size_chunks)


# Thermo style which includes this variable
# thermo_style custom step temp pe vol v_max_n

thermo ${N}  # Print the thermo information every 100 steps
thermo 1000  

# Reset the npt fix at a lower temperature (below freezing)
fix 1  all npt temp  ${temp} ${temp}  0.1  iso  5.68  5.68  0.5  mtk yes tchain  5  pchain  5
fix 1  all npt temp  0.45 ${temp}  0.1  iso  5.68  5.68  0.5  mtk yes tchain  5  pchain  5
fix 1  all npt temp  0.45 0.45  0.1  iso  5.68  5.68  0.5  mtk yes tchain  5  pchain  5

dump dmp2 all dcd ${N} traj.dcd
dump dmp2 all dcd 1000 traj.dcd


compute msd all msd com yes
variable twopoint equal c_msd[4]/6/(step*dt+1.0e-6)
fix 9 all vector 10 c_msd[4]
variable fit equal slope(f_9)/6/(10*dt)
thermo_style custom step temp pe c_msd[4] v_twopoint v_fit v_max_n

fix 1 all npt temp 1.25 ${temp} 0.1 iso 5.68 5.68 0.5 mtk yes tchain 5 pchain 5
fix 1 all npt temp 1.25 0.45 0.1 iso 5.68 5.68 0.5 mtk yes tchain 5 pchain 5
run 5000000 # 5000000  # Run for this many steps
Neighbor list info ...
  update every 1 steps, delay 10 steps, check yes
  max neighbors/atom: 2000, page size: 100000
  master list distance cutoff = 3.8
  ghost atom cutoff = 3.8
  binsize = 1.9, bins = 8 8 8
  4 neighbor lists, perpetual/occasional/extra = 1 3 0
  (1) pair lj/cut, perpetual
      attributes: half, newton on
      pair build: half/bin/atomonly/newton
      stencil: half/bin/3d
      bin: standard
  (2) compute orientorder/atom, occasional
      attributes: full, newton on
      pair build: full/bin/atomonly
      stencil: full/bin/3d
      bin: standard
  (3) compute coord/atom, occasional
      attributes: full, newton on
      pair build: full/bin/atomonly
      stencil: full/bin/3d
      bin: standard
  (4) compute cluster/atom, occasional
      attributes: full, newton on
      pair build: full/bin/atomonly
      stencil: full/bin/3d
      bin: standard
Per MPI rank memory allocation (min/avg/max) = 9.835 | 9.839 | 9.845 Mbytes
Step Temp PotEng c_msd[4] v_twopoint v_fit v_max_n 
   12000    1.2399016   -4.3807196 4.281937e-30 2.9735672e-32 8.3333333e+20            2 
   13000    1.2433896   -4.3790496    0.8259782 0.0052947319  0.068749384            2 
   14000    1.2478872   -4.3949596    1.6669792 0.0099224948  0.070835131            3 
   15000    1.2508123   -4.4027629    2.5195276  0.013997375  0.070386345            1 
   16000    1.2564121   -4.3956249    3.3479913  0.017437454  0.070331576            2 
   17000     1.265722   -4.4206272    4.1974784  0.020575874  0.070083782            2 
   18000    1.2517081   -4.4595181    4.9817247   0.02306354  0.069982031            2 
   19000    1.2225762   -4.4111377    5.9752279  0.026207139  0.070331013            3 
   20000    1.2378362   -4.3480089    6.8703614  0.028626505  0.071027719            1 
   21000    1.2649091   -4.4226608    7.7114951   0.03060117  0.071438496            3 
   22000    1.2495312   -4.4511744    8.5296346  0.032309221  0.071516027            5 
   23000    1.2592872   -4.4254398    9.3926798  0.034031448  0.071531593            2 
   24000    1.2726657   -4.4043893    10.243394  0.035567339  0.071520178            5 
   25000    1.2290836   -4.3661019    10.982255  0.036607516  0.071287432            3 
   26000    1.2400902    -4.380757    11.876392  0.038065359  0.071046839            3 
   27000     1.261846   -4.4153504     12.72072  0.039261481  0.070893621            3 
   28000    1.2590682   -4.4333383    13.456578  0.040049338  0.070858767            3 
   29000    1.2229392   -4.4053636    14.499303  0.041664663  0.070765644            1 
   30000    1.2227144   -4.3892487    15.513674  0.043093538  0.070978856            1 
   31000    1.2682193   -4.4036337    16.393199  0.044067738  0.071197724            1 
   32000    1.2315823   -4.4495177    17.198342  0.044787347  0.071405261            4 
   33000    1.2307831   -4.4034644    18.208284  0.045980514  0.071626801            2 
   34000    1.2516348   -4.4668288    19.025023  0.046629957  0.071814914            2 
   35000    1.2461284   -4.4071521    20.062759  0.047768474  0.072050752            2 
   36000     1.244517   -4.4323801     20.69768  0.047911297  0.072171703            1 
   37000    1.2485636   -4.3699367    21.512568  0.048451728  0.072202144            2 
   38000    1.2146924    -4.429419    22.307565  0.048920099  0.072167559            3 
   39000    1.2435224   -4.4129954    23.273383   0.04972945  0.072158943            1 
   40000     1.252223   -4.4378386    24.113781  0.050237042  0.072130778            2 
   41000     1.261924   -4.4015315     25.16131  0.051140874  0.072213634            2 
   42000    1.2340031   -4.4548682    25.983155  0.051553879  0.072282357            3 
   43000    1.2292529   -4.4541356    26.770758  0.051881313  0.072355331            2 
   44000    1.2074296   -4.4694884    27.494863  0.052073603  0.072344733            2 
   45000    1.2229888   -4.3848524    28.290482  0.052389781  0.072278194            3 
   46000    1.2454412   -4.4054747    28.840246  0.052246821  0.072102477            3 
   47000    1.2472979   -4.4617176    29.627238  0.052530563  0.071918196            2 
   48000    1.2484044   -4.4027569    30.569535  0.053072109  0.071788906            2 
   49000    1.2758863   -4.4358445    31.459886  0.053503207  0.071685706            4 
   50000     1.246632   -4.3888182    32.625605  0.054376007  0.071655644            2 
   51000    1.2492721   -4.4124014    33.235859  0.054306959  0.071626716            2 
   52000    1.2356624   -4.4077336    33.907706  0.054339272  0.071523315            1 
   53000    1.2512199   -4.4411461    34.723868  0.054597276  0.071399572            2 
   54000    1.2334764   -4.4266204    35.633726  0.054990317  0.071318563            3 
   55000    1.2622657   -4.4163935    36.400231  0.055151864  0.071226399            2 
   56000    1.2336014   -4.4434333    37.056404  0.055143458  0.071139736            3 
   57000    1.2256197   -4.3970125    37.954367   0.05548884  0.071012964            1 
   58000    1.2239263   -4.4019132    38.697361  0.055599657  0.070895602            3 
   59000    1.2478177   -4.4263289    39.697272  0.056069593   0.07081785            2 
   60000    1.2675149   -4.4322871    40.827726  0.056705174  0.070763623            2 
   61000    1.2451671   -4.4477391    41.560472    0.0567766  0.070750693            3 
   62000    1.2561554   -4.3904087    42.564133  0.057209856  0.070742939            2 
   63000    1.2392986   -4.4158661    43.179083  0.057115188  0.070716191            4 
   64000    1.2272198   -4.4108545    43.830425  0.057070866  0.070637868            2 
   65000    1.2755869   -4.4203676    44.237811  0.056715142  0.070509969            2 
   66000    1.2295537   -4.4330374    44.977769  0.056790112  0.070366569            1 
   67000    1.2424359   -4.3983882    45.758029   0.05691297  0.070218032            2 
   68000    1.2270041   -4.4083293    46.513485   0.05700182  0.070094446            3 
   69000    1.2605972   -4.4341877    47.449217  0.057305817  0.069973301            3 
   70000    1.2340707   -4.4632676    48.349438  0.057558854  0.069881809            3 
   71000    1.2342062   -4.4528055    49.350621  0.057923264  0.069798948            1 
   72000    1.2305129   -4.4393224     49.97726   0.05784405  0.069729887            6 
   73000    1.2325788   -4.4226422    51.091206  0.058323294  0.069672029            3 
   74000    1.2391147   -4.4105405    51.885042  0.058429101  0.069611231            3 
   75000    1.2652919   -4.4500579    52.516095  0.058351216  0.069556904            3 
   76000    1.2270603   -4.4608141    53.184586  0.058316431  0.069512773            2 
   77000    1.2620938    -4.422489    53.949014  0.058386378  0.069439017            2 
   78000    1.2416864   -4.4457734     54.47795  0.058202938   0.06935072            2 
   79000    1.2405693   -4.3933726    55.196356  0.058224004  0.069276432            1 
   80000    1.2160975   -4.4520039    56.465679  0.058818415   0.06920668            2 
   81000    1.2515982   -4.4253822    57.346228  0.058998177  0.069164285            3 
   82000     1.243551   -4.4503222    58.052062  0.058995998  0.069117721            3 
   83000    1.2462794   -4.4213578    59.091234  0.059328547  0.069082998            4 
   84000     1.187699   -4.4313313    60.276495  0.059798109  0.069067464            1 
   85000    1.2126014   -4.4303806    60.922093  0.059727542  0.069051344            2 
   86000    1.2295889    -4.432711    61.425027  0.059520375  0.069032907            1 
   87000     1.236023    -4.396546    62.358235   0.05973011  0.069005576            2 
   88000    1.2110507   -4.4492828    63.054471  0.059710673  0.068975436            2 
   89000    1.2459918   -4.4470198    64.355119  0.060257601  0.068964863            2 
   90000    1.2142097   -4.4416674     65.17709  0.060349157  0.068986082            2 
   91000    1.2381684    -4.408795    66.076334  0.060509463  0.069000421            1 
   92000    1.2576153   -4.4256943    66.958482  0.060650798  0.069014694            2 
   93000    1.2121557   -4.4545821    67.646317  0.060614979  0.069025928            2 
   94000    1.2375551   -4.4701178    68.083366  0.060357593   0.06902126            3 
   95000    1.2606227   -4.4507389    68.796123  0.060347476  0.069005236            2 
   96000    1.2405378    -4.394623    70.314099  0.061036544  0.068992464            1 
   97000    1.2235865   -4.4300855    70.947032  0.060951058  0.068990497            4 
   98000    1.2568362   -4.4307883    72.175662  0.061373862  0.069012328            2 
   99000    1.2349027   -4.4549564    72.834183  0.061308234  0.069056254            1 
  100000    1.2152555   -4.4458003    73.604379  0.061336982  0.069086358            2 
  101000    1.2341947   -4.3961839    74.810842  0.061725117  0.069117797            1 
  102000    1.2455368   -4.4377341    75.805965  0.061932978  0.069152558            2 
  103000    1.2381043   -4.4097427    76.666201  0.062027671   0.06919031            4 
  104000    1.2526811   -4.3916801    78.158999  0.062627403  0.069238087            3 
  105000    1.2430003   -4.4657388    78.831297  0.062564521  0.069299351            2 
  106000    1.2170146    -4.465288     79.66741  0.062631611  0.069357029            4 
  107000    1.2228593   -4.4307763    80.202367  0.062462902  0.069398616            1 
  108000    1.2519095   -4.4244808    81.172443  0.062633058  0.069450039            2 
  109000    1.2349029   -4.4150045    82.315333  0.062932211   0.06950665            2 
  110000    1.2011387   -4.4288975    83.140943  0.062985562  0.069560794            1 
  111000      1.22563   -4.4279784    83.960521  0.063033424  0.069606933            3 
  112000    1.2127175   -4.4286871     84.78672  0.063085357   0.06966005            2 
  113000    1.2136469    -4.428269    85.650442  0.063164043  0.069712209            3 
  114000    1.2630683   -4.4549561    86.388901  0.063149781  0.069749312            2 
  115000    1.2188505   -4.4730587    87.064926  0.063090526  0.069786106            2 
  116000    1.2246763   -4.4268462     87.77388  0.063055948  0.069811928            1 
  117000    1.2470389   -4.4748836    88.804663  0.063251184  0.069841572            2 
  118000    1.2275363   -4.4688933    89.681751   0.06333457  0.069872157            4 
  119000    1.2073757   -4.4231923     90.92705  0.063674404  0.069898256            2 
  120000    1.2718914   -4.4684833    91.343039  0.063432665  0.069929283            3 
  121000     1.242617   -4.4335933    92.733292  0.063865903  0.069966924            2 
  122000     1.244039   -4.4143337    93.342338  0.063758428  0.070011882            3 
  123000    1.2125785   -4.4351126    94.634318  0.064115391  0.070058291            2 
  124000    1.2375434   -4.4369095    95.177241  0.063963199  0.070093896            2 
  125000     1.236368   -4.4618276    95.431144  0.063620762  0.070111004            4 
  126000     1.221294   -4.4273604    96.581871  0.063876899  0.070131047            2 
  127000    1.2274407   -4.4748095    97.582937  0.064030799  0.070163265            3 
  128000    1.2415221   -4.4124116    98.494886  0.064124274  0.070186043            4 
  129000    1.2391203   -4.4284108    99.344131  0.064175795  0.070206254            2 
  130000    1.2239502   -4.4658094    99.472003  0.063764104  0.070220399            3 
  131000    1.2420107   -4.4747445    100.37027  0.063848771  0.070233078            3 
  132000    1.2540097   -4.4504421    101.76345  0.064244601  0.070249103            2 
  133000    1.2504369   -4.4171023    102.76541  0.064389356  0.070266343            2 
  134000    1.2243511   -4.4552174    103.22055  0.064191887  0.070286749            2 
  135000    1.2362228   -4.4417788    104.25915  0.064357502  0.070299871            3 
  136000    1.1932325   -4.4484937     104.5238  0.064046449  0.070301716            4 
  137000    1.2339377   -4.4530903    104.68773  0.063678669  0.070291645            4 
  138000    1.2151475   -4.3774116    106.27255  0.064174244  0.070280472            1 
  139000    1.2349454   -4.4423383    107.24009  0.064292621  0.070277413            2 
  140000    1.2767882   -4.4504508    107.72209  0.064120292  0.070276453            2 
  141000    1.2470021   -4.4696654    108.60917  0.064189817  0.070272316            3 
  142000    1.2201889   -4.4688526    109.05669  0.064000403  0.070260595            4 
  143000    1.2261704   -4.4422875    110.42102  0.064347914  0.070249325            2 
  144000    1.2270784   -4.4316424    111.12079  0.064306011  0.070234919            1 
  145000    1.2334834   -4.4498339     111.6865  0.064187644  0.070219774            3 
  146000    1.2251638   -4.4597398    112.27041  0.064081281  0.070215033            2 
  147000    1.2259642   -4.4852116    113.50178  0.064343413  0.070203636            3 
  148000    1.2338378   -4.4228801    114.65421  0.064557552  0.070204604            4 
  149000    1.2428849   -4.4685403    115.23509  0.064449157  0.070203787            4 
  150000    1.2404776   -4.3971033    116.95708  0.064976154  0.070211609            2 
  151000    1.2120808   -4.4644408    117.69762  0.064954535  0.070220155            1 
  152000    1.2069803   -4.4717746    118.79304   0.06512776  0.070232459            1 
  153000    1.2210914   -4.4322663    119.63509  0.065160722   0.07025076            2 
  154000    1.2476506   -4.4814583     120.2144   0.06505108   0.07027292            2 
  155000     1.214702   -4.4555931    121.63768  0.065396604  0.070295469            3 
  156000    1.2277689   -4.4525856    122.52555  0.065451682  0.070324227            3 
  157000    1.2091465   -4.4626691     123.6968  0.065656477  0.070357819            1 
  158000    1.2344626   -4.4445922    125.06337  0.065961691  0.070402324            1 
  159000    1.2105896   -4.4603818    125.91429  0.065992815  0.070442404            3 
  160000    1.2138059    -4.424434    127.07467  0.066184722  0.070489101            2 
  161000    1.2333728   -4.4486319    127.86022   0.06618024  0.070539156            5 
  162000    1.2196367   -4.4522196    128.74594  0.066227336   0.07058568            2 
  163000    1.2574217   -4.4465435    129.32129  0.066115177  0.070628766            1 
  164000    1.2200462   -4.4862357    129.26283  0.065682331  0.070657906            3 
  165000    1.2161303   -4.4477797    130.94322  0.066132938  0.070681406            3 
  166000    1.2253558   -4.4557102    131.52925  0.066028742  0.070697852            4 
  167000    1.2656601   -4.4213584    131.79658  0.065766755  0.070713872            2 
  168000    1.2148496   -4.4553589    132.28688  0.065618491   0.07072805            2 
  169000    1.2228419   -4.4172645    134.19432  0.066170771   0.07074631            3 
  170000    1.2302207   -4.4536289    134.26082  0.065814126  0.070762709            2 
  171000     1.216977   -4.4852453      135.433  0.066000488  0.070778806            2 
  172000    1.2156914   -4.4516032    136.03396  0.065907927  0.070790622            1 
  173000    1.2173951   -4.4593216    137.28564  0.066129886  0.070806361            2 
  174000    1.2301877   -4.4494294    138.17357  0.066175082  0.070821494            1 
  175000    1.1931938   -4.4534831    138.87675  0.066131783  0.070838582            2 
  176000    1.2079736   -4.4399736    140.37625   0.06646603  0.070852865            5 
  177000    1.2053124   -4.4845768    140.36073  0.066083205  0.070869978            1 
  178000    1.1993751   -4.4085048    141.65788  0.066319234   0.07088717            2 
  179000    1.2232623   -4.4438006    143.01389  0.066580023  0.070909714            2 
  180000    1.2442123    -4.492374    143.69219  0.066524163  0.070931133            2 
  181000    1.2122004   -4.4657132    144.31038  0.066441242  0.070949655            4 
  182000    1.1959986   -4.4634431      145.378  0.066565017  0.070970595            3 
  183000     1.202577   -4.4760391    146.22054  0.066584945  0.070983728            1 
  184000    1.2027841   -4.4208237    147.25971   0.06669371  0.071005176            2 
  185000    1.2118068   -4.4935554    147.89157  0.066617824  0.071020246            3 
  186000    1.2005783   -4.4438815    148.98045  0.066747514  0.071037537            2 
  187000     1.240027   -4.4353929    149.58668  0.066660732  0.071053709            3 
  188000    1.2275157   -4.4834408    149.84663  0.066421378  0.071060492            2 
  189000    1.2231858   -4.4429063    150.51695  0.066365497  0.071068562            3 
  190000    1.2119501   -4.4608304     151.6981  0.066534254  0.071073476            3 
  191000    1.2162146   -4.4757353    151.43579  0.066071463  0.071073595            3 
  192000    1.2186027   -4.4532694     152.4916  0.066185592  0.071070176            5 
  193000    1.2257113   -4.4751803    153.73454  0.066379336   0.07106578            1 
  194000    1.2335585   -4.4474842    153.89288   0.06610519   0.07105694            6 
  195000    1.2569184   -4.4667043    154.56502  0.066053427   0.07104476            3 
  196000    1.2224363   -4.4519162     154.8325  0.065830145  0.071032362            3 
  197000    1.2516816   -4.4422704    157.05047  0.066434209  0.071021083            4 
  198000    1.2340339   -4.4668127    156.75913  0.065976066  0.071011776            1 
  199000    1.2175886   -4.4398589    158.06064  0.066189546  0.070995803            2 
  200000    1.2134707   -4.5043632    158.32194  0.065967476  0.070981639            2 
  201000    1.2329688   -4.4318822    159.64315  0.066187043  0.070970752            1 
  202000    1.2125935    -4.476361    161.47797  0.066616324  0.070961094            1 
  203000    1.2193005   -4.4674179     161.6322  0.066351478  0.070948361            3 
  204000    1.2168038   -4.4908678    161.51768  0.065979446  0.070930024            3 
  205000    1.2189887   -4.4599475    162.94931  0.066239555  0.070916189            2 
  206000    1.2403199   -4.4352384    163.76431  0.066247697  0.070905008            2 
  207000    1.2277787   -4.4552271    164.04298  0.066039848  0.070887641            5 
  208000    1.1889569    -4.507716    164.51631  0.065911983  0.070868612            1 
  209000    1.2373431   -4.5123976    165.55624  0.066011262  0.070848668            1 
  210000     1.219857   -4.4423725    166.29509  0.065990116  0.070823702            3 
  211000    1.2297393   -4.4407554     167.5039   0.06615478  0.070801699            2 
  212000    1.2262941   -4.4674831    167.61898  0.065887962  0.070779097            2 
  213000    1.2099471   -4.4516802    168.69041  0.065997813  0.070754673            1 
  214000    1.2118575   -4.4833268    167.70553  0.065305892  0.070725996            4 
  215000     1.227576    -4.444387    169.39999   0.06565891  0.070694036            3 
  216000    1.2297047   -4.4360042    170.23583  0.065677403  0.070661298            2 
  217000    1.2325898    -4.488078    170.11925  0.065329973  0.070623012            2 
  218000    1.2283887   -4.4908728     172.0944  0.065785321  0.070588211            2 
  219000    1.2422184   -4.4423499    172.45822  0.065623369  0.070553306            2 
  220000    1.2413965   -4.4145505    172.52706  0.065351158  0.070517735            2 
  221000    1.2422955   -4.4753829    173.16876   0.06529742  0.070480196            3 
  222000    1.2375728   -4.4671467    174.08328  0.065346575    0.0704378            3 
  223000    1.2111626   -4.5065853    174.37974  0.065164326  0.070393939            2 
  224000    1.2030296   -4.4499742     175.8022  0.065402606  0.070352514            2 
  225000    1.2101599    -4.454008    176.53549  0.065383514  0.070314005            2 
  226000    1.2361094   -4.4707052    177.14488  0.065318909  0.070275582            2 
  227000    1.2055178   -4.5051767    177.32518  0.065097348  0.070237071            2 
  228000    1.2309409   -4.4189578    179.69346  0.065677435  0.070202063            2 
  229000    1.2076595   -4.4273086    180.60172  0.065721151  0.070172318            2 
  230000    1.2423553   -4.4861237    180.40969  0.065365828  0.070136423            2 
  231000    1.2283129   -4.4863098    181.36892  0.065428904  0.070101331            3 
  232000    1.1979467   -4.4776872    182.73267  0.065636736  0.070067923            5 
  233000    1.2066556   -4.4745811    182.88497  0.065409504  0.070031315            2 
  234000    1.2317599    -4.444805    182.91234   0.06513972  0.069997967            2 
  235000    1.2191735   -4.4546277    184.35794  0.065375157  0.069961889            3 
  236000    1.2276318   -4.5018704    184.12141  0.065014621  0.069926276            1 
  237000    1.2297815   -4.4976225    185.55018  0.065242681  0.069887592            3 
  238000    1.2180257   -4.4805875    186.57943  0.065328931  0.069849499            2 
  239000    1.1979703   -4.4717957    187.71432  0.065451296  0.069817227            3 
  240000     1.227537    -4.454346    188.55918  0.065471937  0.069787372            1 
  241000     1.233001   -4.4470319    190.23228  0.065778797  0.069759852            2 
  242000    1.1999645   -4.5110338    189.77324  0.065348912  0.069731766            3 
  243000    1.1811518   -4.4733932    190.95696  0.065485925  0.069704787            2 
  244000    1.2082975   -4.4237369    193.23333  0.065994988  0.069683424            1 
  245000    1.1964264   -4.4810951    192.24758  0.065390334  0.069659941            1 
  246000    1.2074159   -4.4586042    194.21556  0.065791177  0.069638004            2 
  247000    1.2276832   -4.4955083    194.71099  0.065691966  0.069618051            1 
  248000    1.2117475   -4.4998503    195.15963  0.065577832  0.069592881            2 
  249000    1.2176852   -4.4958534    195.83405  0.065540177  0.069567365            1 
  250000    1.2075658   -4.5096546    196.74947  0.065583158   0.06954461            2 
  251000    1.2194613   -4.4443692    197.57511  0.065595986  0.069521019            1 
  252000    1.2138582   -4.4652829    198.41718  0.065614147  0.069496547            1 
  253000    1.2130865    -4.435243     198.4001  0.065349175  0.069473779            4 
  254000    1.2076237   -4.4990847    198.50001  0.065124675  0.069450552            2 
  255000    1.1992148   -4.4803066    199.70312  0.065262458  0.069425093            2 
  256000    1.2129013    -4.558088    200.26077  0.065189051  0.069399649            3 
  257000    1.2195721   -4.4705964    203.24713  0.065903739  0.069375115            2 
  258000    1.2080349   -4.4812881    203.07959  0.065594183  0.069351593            1 
  259000    1.2139294   -4.4574847    203.94383  0.065618992  0.069328816            2 
  260000    1.2078981   -4.4885662    204.05509  0.065402272  0.069306664            3 
  261000    1.1988977   -4.4528403    204.65762  0.065344067  0.069280333            2 
  262000    1.2076235   -4.4528379    205.07254  0.065226635  0.069250932            1 
  263000     1.177708   -4.4348172    206.82695  0.065534523  0.069223419            3 
  264000    1.2074317    -4.479958     206.4391  0.065163856  0.069198263            4 
  265000    1.2130753   -4.4163014    208.05847  0.065427191   0.06917091            3 
  266000    1.2127594   -4.4853688    207.86846  0.065121699  0.069143651            1 
  267000     1.184563   -4.4593853    210.14136  0.065587192  0.069116542            3 
  268000    1.2050081   -4.4700056    208.80525  0.064927005  0.069086907            2 
  269000    1.2374846   -4.4641248      210.531  0.065220261  0.069056365            3 
  270000    1.1789959   -4.4934342    211.42679  0.065255181  0.069028224            3 
  271000    1.2149172   -4.4860477    212.24753  0.065266767   0.06900283            1 
  272000    1.1970834   -4.4927985    212.98824  0.065253749   0.06897938            2 
  273000     1.210492   -4.4583415    213.91489  0.065297585  0.068956335            2 
  274000    1.2184961    -4.459054    215.38206  0.065505493  0.068933475            2 
  275000    1.2238151    -4.475804    215.73908  0.065375479  0.068913206            5 
  276000    1.1918321   -4.4564974    216.74403  0.065442038  0.068892714            2 
  277000    1.1904081   -4.4436839    217.41442  0.065407467  0.068870295            2 
  278000    1.2089947   -4.4675535    218.37163  0.065459122  0.068850433            3 
  279000    1.2151783   -4.4822288      218.244  0.065186381  0.068825771            2 
  280000    1.2047437    -4.468859    219.50803   0.06532977  0.068802385            3 
  281000    1.1980329   -4.4838313    220.41501  0.065366255  0.068780278            3 
  282000    1.2144454   -4.4790483    221.47359  0.065447279   0.06875761            3 
  283000     1.198856   -4.4835995    222.22318  0.065436743  0.068738535            3 
  284000    1.2236727   -4.4581141    223.95398  0.065714196  0.068718988            2 
  285000    1.1907768   -4.5128905      223.383  0.065316668  0.068701337            2 
  286000    1.2027363   -4.4800097    225.92945  0.065830258   0.06868585            2 
  287000    1.1924677   -4.4824956    225.85725   0.06557992  0.068671182            4 
  288000    1.2085747   -4.4844117    226.25038  0.065465965  0.068651868            3 
  289000    1.2123524   -4.4321755    227.28493  0.065537753  0.068631609            1 
  290000    1.2142139   -4.4879244    227.27253  0.065308197  0.068612686            1 
  291000    1.2140102   -4.4983888    227.45977  0.065137391  0.068590671            3 
  292000    1.2100147   -4.4853132    228.21358  0.065129445  0.068568157            2 
  293000    1.1968651   -4.4877453    228.30258  0.064932473  0.068542521            3 
  294000    1.2006935   -4.4914089    230.75371   0.06540638  0.068521337            3 
  295000    1.1868102   -4.4989248    230.05312  0.064986757  0.068500412            3 
  296000    1.2179576   -4.4894798    231.15726  0.065078057  0.068477756            1 
  297000    1.2124184   -4.4986621    232.55684  0.065251637  0.068454258            2 
  298000    1.1892385   -4.4797671    233.04657  0.065169623  0.068431853            2 
  299000     1.219385   -4.5049178    233.14242  0.064978377  0.068410387            5 
  300000    1.2261176   -4.4794667    235.52589  0.065423859   0.06838894            2 
  301000    1.1998982   -4.5075616    235.21259  0.065119764  0.068367104            4 
  302000    1.1961035   -4.5064185    235.33852  0.064938886  0.068343887            3 
  303000      1.22886   -4.4688359    236.72214  0.065105098  0.068322532            8 
  304000    1.2032088   -4.5309537    237.23853  0.065032493  0.068300716            6 
  305000    1.2056131   -4.4803925    238.57714   0.06518501  0.068274949            2 
  306000    1.1982341   -4.4884637    238.27357  0.064889317  0.068248041            1 
  307000    1.1900334   -4.4882604    239.81515  0.065096403  0.068224347            1 
  308000    1.2441403   -4.5080901    239.98689  0.064931517  0.068200668            6 
  309000     1.195903    -4.505494    241.54471  0.065141508  0.068177613            1 
  310000    1.2202987   -4.4601557    242.19002  0.065104843  0.068156899            2 
  311000    1.1920748   -4.4957229    242.41468  0.064955701  0.068133533            2 
  312000    1.2221108   -4.4384202    243.38551  0.065006814  0.068110865            2 
  313000    1.1817553   -4.4939872    244.40572  0.065070745  0.068089773            2 
  314000    1.1765363   -4.5213371    244.24253  0.064820205  0.068067561            5 
  315000    1.1934762   -4.5030942    245.96708  0.065070656  0.068045077            2 
  316000     1.214726   -4.4954322    246.55837  0.065020668  0.068024674            2 
  317000    1.1911554   -4.5182178    246.47458  0.064793528  0.068002367            1 
  318000    1.1839169   -4.5040161    249.80376  0.065462201   0.06798165            2 
  319000    1.1793765   -4.4730887    249.86318  0.065272513  0.067962327            2 
  320000    1.1963484    -4.482109    250.01657   0.06510848  0.067944673            5 
  321000    1.2101457   -4.5278335    250.71334  0.065086538  0.067926163            2 
  322000    1.1911126   -4.4771971    253.07311  0.065495112  0.067906631            2 
  323000    1.1845567   -4.4934594    252.60676  0.065172022  0.067887862            1 
  324000     1.185175   -4.5085302    253.14852  0.065110216  0.067867331            2 
  325000    1.2277881   -4.4635955    254.96886   0.06537663  0.067848841            2 
  326000    1.1772692   -4.4685521    254.34545   0.06501673  0.067831668            4 
  327000    1.2025885   -4.5125596     254.7192   0.06491315  0.067812728            3 
  328000    1.1993939   -4.5004549    256.23019  0.065099133  0.067794393            4 
  329000    1.2143305   -4.5179936    257.34122  0.065182681  0.067775528            3 
  330000    1.2041819   -4.4901348    258.72753  0.065335235  0.067757292            4 
  331000    1.2132771   -4.5038404     258.3656  0.065046728   0.06774026            4 
  332000    1.1891671   -4.4925828    260.17603  0.065305229   0.06772644            3 
  333000    1.1926382   -4.4818774    260.82011  0.065270297   0.06771099            2 
  334000    1.2038177   -4.4927123    262.24967  0.065431555  0.067694834            2 
  335000    1.1919889     -4.50293    262.38517  0.065269942  0.067682043            2 
  336000    1.2124914     -4.47485    263.26804  0.065294653  0.067668584            3 
  337000    1.1970413   -4.5042216    264.12587  0.065313024  0.067655614            3 
  338000    1.2083031   -4.5511958    264.02681  0.065095368  0.067642565            2 
  339000    1.1837363   -4.4954175    265.83471  0.065347766  0.067630441            3 
  340000    1.2043639   -4.5008337    266.32028  0.065274579  0.067618668            1 
  341000    1.1936663   -4.5122703    267.26731  0.065314591  0.067608449            2 
  342000    1.1925024   -4.5037643    266.86994  0.065026789  0.067598175            3 
  343000    1.2039771   -4.5062778     267.8912  0.065085326  0.067586008            3 
  344000    1.1897454    -4.503427     269.4607  0.065276333  0.067574843            2 
  345000    1.1950947   -4.4917025    271.24299   0.06551763  0.067565101            2 
  346000    1.2103405   -4.5101351    271.34715   0.06535336  0.067553739            1 
  347000    1.1899078   -4.5160354    273.85348  0.065766925   0.06754575            1 
  348000    1.1846259   -4.5016512    273.32257  0.065450808  0.067538543            1 
  349000    1.2141598   -4.5135313     274.4029  0.065521227  0.067530069            1 
  350000    1.1749903   -4.4808375    275.13006  0.065507157  0.067521238            4 
  351000    1.1990278   -4.5429606    274.67252    0.0652119  0.067514689            3 
  352000     1.208752   -4.4807716    277.03005  0.065584765  0.067506582            2 
  353000     1.204571   -4.5318405    277.85648  0.065594069  0.067501312            2 
  354000    1.2014846   -4.4993661    278.39624  0.065535838  0.067494183            2 
  355000    1.2134475   -4.5054552    280.01353  0.065730876  0.067488694            1 
  356000     1.192072   -4.5060991    279.59014  0.065447129  0.067481851            2 
  357000    1.1732308    -4.502918    282.03097   0.06583356  0.067476697            6 
  358000    1.2203285   -4.4895823     282.7596  0.065819275  0.067473566            2 
  359000    1.1990788   -4.4850624    282.54605  0.065586362  0.067468808            3 
  360000    1.2067469   -4.5055029    284.15382  0.065776347  0.067461637            2 
  361000    1.1945575   -4.5121453    282.93872  0.065313646  0.067454481            3 
  362000     1.181417   -4.4630174      285.107  0.065632366  0.067446339            3 
  363000     1.167626   -4.5056729    284.68233   0.06535407  0.067437088            2 
  364000    1.1879223   -4.5295683    285.92671  0.065459411  0.067427602            4 
  365000    1.1783404   -4.5088475    285.42038  0.065164471  0.067417564            4 
  366000    1.1940615   -4.5112929    287.52156  0.065464835  0.067407181            2 
  367000    1.2133009   -4.4791252     289.5977  0.065757879  0.067398189            5 
  368000    1.2125065   -4.5030826    289.39032  0.065532228  0.067387234            2 
  369000    1.2001157   -4.4956038    287.84673  0.065006037  0.067372935            1 
  370000     1.206299   -4.5431977    288.55706  0.064990328  0.067356013            2 
  371000    1.1868284   -4.5160227     289.1737   0.06495366  0.067337671            2 
  372000    1.1944789   -4.5017511    290.49127  0.065074209  0.067321201            2 
  373000    1.1880268   -4.5265376    289.82648  0.064751225  0.067305253            3 
  374000    1.2077343   -4.4810773      292.101  0.065084892  0.067291136            2 
  375000    1.1950333   -4.5140364    292.04061  0.064897914  0.067277181            2 
  376000    1.2017301   -4.4784422    293.76241  0.065106917  0.067264624            3 
  377000    1.2087482   -4.5286237    293.74485  0.064930337  0.067249794            2 
  378000    1.1885204   -4.4920924    295.28032  0.065097071  0.067235208            2 
  379000    1.2047622    -4.486986    295.99348  0.065082119  0.067219669            2 
  380000    1.1978795   -4.5103201    296.37976  0.064995562  0.067203844            2 
  381000     1.202131   -4.5606661    296.15763  0.064776385  0.067188851            2 
  382000    1.1872472   -4.5238517    298.49945  0.065117682  0.067174382            5 
  383000    1.2149868   -4.5033633    298.15326  0.064872338  0.067161175            3 
  384000    1.1525704   -4.4989371    299.14029  0.064917598  0.067147472            1 
  385000    1.1734162   -4.4984589    299.73933  0.064878642  0.067135296            1 
  386000    1.1953175   -4.4961992    301.15268   0.06501569  0.067123433            3 
  387000    1.2127753   -4.4700915    302.53944  0.065146304  0.067111568            2 
  388000    1.2206995   -4.4910739    303.53619  0.065192481  0.067101443            2 
  389000    1.2084952     -4.48322    303.60098   0.06503877  0.067089476            3 
  390000    1.2024947   -4.5188127    305.98939  0.065382348  0.067077551            1 
  391000    1.2097138   -4.4729483    306.28196  0.065277484  0.067067392            1 
  392000    1.1861543     -4.52084    306.34773  0.065124942  0.067056732            2 
  393000    1.1860632   -4.4980681     307.9055  0.065289546     0.067047            2 
  394000    1.1808516   -4.5262757    308.27741  0.065202499  0.067035306            1 
  395000    1.2053821   -4.5029518    307.00712  0.064769434  0.067023347            4 
  396000    1.1895147   -4.5117198    308.63259  0.064947936  0.067010781            2 
  397000    1.2069472    -4.488609    309.82847  0.065035364  0.066999705            2 
  398000    1.2177697   -4.5103339    311.10808  0.065139883  0.066988066            2 
  399000    1.1916797   -4.5002447    311.46929  0.065052065  0.066978637            1 
  400000    1.1747517   -4.4808354     313.1394  0.065237375  0.066966204            2 
  401000    1.1485178   -4.5037864    312.26819  0.064893638  0.066955069            3 
  402000    1.2146931   -4.5143602    313.28062  0.064942085  0.066942613            2 
  403000    1.1994999   -4.5418609    312.63341  0.064647107  0.066929835            2 
  404000    1.2059167   -4.5456369    314.33571  0.064838223  0.066915611            4 
  405000    1.2066785   -4.5052417    316.17992  0.065057597  0.066903962            2 
  406000    1.1939448   -4.5056155    317.34034  0.065135537  0.066893833            1 
  407000    1.1713028   -4.5383302    317.15708  0.064937977  0.066882053            3 
  408000     1.180698   -4.5425606    317.21189   0.06479001  0.066870388            3 
  409000     1.161837   -4.5084227    319.49223  0.065096215  0.066859517            3 
  410000    1.1871117   -4.5391764     319.1964  0.064877318  0.066846033            3 
  411000    1.1916098   -4.4993392    320.25322  0.064933742  0.066832565            1 
  412000    1.1862039   -4.5323986    320.09656  0.064744449  0.066820996            4 
  413000    1.2000224   -4.5213996    319.59658  0.064486801  0.066808264            1 
  414000    1.1677658   -4.5395235    322.58595   0.06493276  0.066795769            1 
  415000    1.1760084   -4.4646056     323.4102  0.064941808  0.066784513            2 
  416000    1.1850087   -4.5095012    323.45803  0.064795279  0.066771254            3 
  417000     1.165724   -4.5159758    324.85135  0.064918336     0.066759            2 
  418000     1.157351   -4.5033938    325.94342  0.064980745  0.066746621            1 
  419000    1.1962447   -4.5170116    326.19221  0.064875142  0.066736364            2 
  420000    1.1621403   -4.5107621    326.13873  0.064710065  0.066724672            1 
  421000    1.1525588   -4.5023689    328.21972  0.064968274  0.066713341            2 
  422000    1.1656731   -4.5211513    327.63689  0.064699228  0.066701446            3 
  423000    1.2041629   -4.5236001    328.39291  0.064695215   0.06668824            4 
  424000    1.1863094   -4.5014649    329.50371  0.064760949  0.066675254            1 
  425000    1.1691166   -4.5057734    330.20951  0.064746963  0.066661597            2 
  426000    1.1770115   -4.5119646    330.44717  0.064641466   0.06664747            1 
  427000    1.1964777   -4.5032611     330.8074  0.064560382  0.066632562            3 
  428000    1.1897267   -4.5005472    333.58281  0.064949925  0.066618498            4 
  429000    1.1719228   -4.5016377    332.04344  0.064499503  0.066606592            9 
  430000    1.1731606   -4.5314504    334.68082  0.064860623  0.066593396            4 
  431000     1.184943   -4.5223867    334.14315  0.064606178   0.06657812            4 
  432000    1.1692536   -4.4976493    334.83427  0.064589943  0.066564415            3 
  433000    1.1993586   -4.5162058    335.50308  0.064569492  0.066551178            2 
  434000    1.1797527   -4.4722667    337.66422   0.06483568  0.066536789            1 
  435000    1.1575061    -4.535258     337.3764  0.064631495  0.066524412            2 
  436000    1.1318402   -4.5292145    339.74323  0.064935633  0.066512214            5 
  437000    1.1715409    -4.521167    339.98896  0.064833898  0.066499712            3 
  438000    1.1833742   -4.5207561    342.09178  0.065085954  0.066489392            5 
  439000    1.1926825   -4.5383772    341.66677  0.064857018  0.066477777            3 
  440000    1.1641332   -4.5312157    341.32668  0.064645205  0.066467869            2 
  441000    1.1761378    -4.543254    343.11143  0.064835872  0.066457803            2 
  442000    1.1771955     -4.51245    344.10124  0.064875799  0.066448874            2 
  443000      1.17102   -4.5175611    345.21781  0.064939392  0.066441356            2 
  444000    1.1889966   -4.5126669    346.74498  0.065079763  0.066433511            2 
  445000    1.1522004   -4.5002479    348.68018  0.065295914  0.066427227            5 
  446000    1.1701042   -4.5707193    346.34763  0.064713683  0.066419244            1 
  447000    1.1652953   -4.5387772    349.05633  0.065073887  0.066412015            2 
  448000    1.1564706   -4.5201743    349.35284  0.064983786  0.066405277            3 
  449000    1.1544638   -4.5195689    349.31404  0.064831856  0.066396354            3 
  450000    1.1651191   -4.5022355    350.31538  0.064873218  0.066386881            1 
  451000    1.1808317   -4.5026623    351.32467  0.064915866  0.066377283            1 
  452000    1.1721717   -4.5575029    350.50722  0.064621537  0.066367416            1 
  453000    1.1805648   -4.5456382    352.01315  0.064755914  0.066356709            3 
  454000    1.1741561   -4.5137031    352.46347  0.064695937  0.066347117            2 
  455000    1.1340906   -4.4881388    353.74426  0.064788327  0.066338011            2 
  456000    1.1876464   -4.5352375    355.52642  0.064971934  0.066329509            2 
  457000    1.1588251   -4.5589569    356.14765  0.064943043  0.066321015            2 
  458000    1.1788938   -4.5479056    354.15964  0.064439526  0.066312411            4 
  459000     1.177564   -4.5180913    357.89364  0.064977059  0.066302926            2 
  460000     1.187333   -4.4951967    357.23497   0.06471648   0.06629374            2 
  461000    1.1753242   -4.5715592    357.49149  0.064622468  0.066283476            3 
  462000    1.1914419   -4.5305946    359.01934  0.064758179  0.066272429            4 
  463000    1.1856765   -4.5477563    359.15308  0.064642383  0.066261528            1 
  464000    1.1644845   -4.5476375    359.01479   0.06447823  0.066249004            2 
  465000    1.1494627   -4.5182319    359.64142  0.064451867  0.066237704            2 
  466000    1.1894996   -4.5021646    362.56711  0.064836752  0.066225807            4 
  467000    1.1745212   -4.5305232    362.43302  0.064673987  0.066217207            2 
  468000    1.1637142   -4.5614951    364.00511  0.064815724  0.066206989            2 
  469000    1.1665501   -4.5251676     364.5812  0.064779887  0.066198526            1 
  470000     1.183917   -4.5282653    366.02244  0.064897596  0.066189647            1 
  471000    1.1701805   -4.5221911    367.28281  0.064982805  0.066181265            2 
  472000    1.2073148   -4.5177418    366.19497  0.064653068  0.066172375            2 
  473000    1.1766389   -4.5267422    366.00344  0.064482635    0.0661629            1 
  474000    1.1743375    -4.514307    367.34467  0.064582396  0.066152456            2 
  475000    1.1968293   -4.5151484    369.95849  0.064904999  0.066141541            2 
  476000    1.1653341   -4.5385261    368.80596  0.064566869  0.066131034            3 
  477000    1.1824754   -4.5591384    369.90608  0.064623704  0.066120276            2 
  478000    1.1836624   -4.5232232    371.14664  0.064704784  0.066109953            2 
  479000    1.1762521   -4.5059523     370.2551  0.064414596  0.066098615            1 
  480000    1.1645961   -4.5421199    370.48425  0.064320183  0.066086498            2 
  481000    1.1717892   -4.5259344    372.46198  0.064529103  0.066074318            1 
  482000    1.1504853   -4.5646862    371.42543  0.064216015  0.066062311            3 
  483000     1.177854   -4.5542094    374.59205  0.064629407  0.066050456            4 
  484000    1.1980653   -4.5185678    374.46847  0.064474599  0.066040729            2 
  485000    1.1795974    -4.520738     375.7085  0.064554725   0.06602989            3 
  486000    1.1449916   -4.5607677       375.07  0.064312414  0.066017698            2 
  487000    1.1807975   -4.5148153     377.1932  0.064543668  0.066006677            3 
  488000    1.1670672    -4.525539    376.21341  0.064244093  0.065996326            1 
  489000    1.1367795   -4.5171147    379.11516  0.064607219   0.06598649            2 
  490000    1.1723177   -4.5335889    378.28891  0.064334849  0.065974944            4 
  491000    1.1667303   -4.5087204    380.48257  0.064576132  0.065963571            4 
  492000    1.1793882   -4.5078169    380.01673  0.064365977  0.065951431            1 
  493000    1.1859057    -4.535233     380.8558  0.064377247  0.065939557            2 
  494000    1.1660612   -4.5058986    381.84798  0.064414302  0.065926621            3 
  495000    1.1722213   -4.5589303    382.55548  0.064403279  0.065914323            1 
  496000    1.1712133   -4.5433903    382.89849  0.064331064   0.06590216            4 
  497000    1.1901638   -4.5338274    383.05674  0.064228158  0.065889427            2 
  498000    1.1687172   -4.5416517        383.5   0.06417336  0.065875692            1 
  499000    1.1894124   -4.5678199    384.26765  0.064172955  0.065862392            2 
  500000    1.1825101   -4.5131098    386.01754  0.064336257  0.065849482            1 
  501000    1.1449318   -4.5538727    385.04813  0.064046595  0.065835269            3 
  502000    1.1917372   -4.5402911    387.41921  0.064312619  0.065822627            3 
  503000    1.1486549   -4.5470913    387.07742  0.064128135  0.065809462            2 
  504000    1.1805594   -4.5715975    387.79204  0.064119053  0.065794945            2 
  505000    1.1830233   -4.5274558    389.60697  0.064291579  0.065781439            2 
  506000    1.1782211   -4.5178308    389.10669  0.064082129  0.065767502            2 
  507000    1.1784258   -4.5206357    388.95907  0.063931472  0.065753952            2 
  508000    1.1892912   -4.5175608    392.75481  0.064428282  0.065741448            1 
  509000    1.1595696   -4.5687863    391.04426  0.064021654  0.065728818            3 
  510000    1.1701787   -4.5542224    391.35604  0.063947065  0.065716191            1 
  511000     1.179313    -4.539954    392.18928  0.063957808  0.065701858            4 
  512000    1.1517607   -4.5156842    392.68337  0.063913309  0.065687996            3 
  513000    1.1975991   -4.5866361     392.7887  0.063805832  0.065674126            2 
  514000    1.1457623   -4.5066974    394.43289  0.063948263  0.065658918            7 
  515000    1.1509912    -4.572355    393.83787  0.063727811   0.06564346            1 
  516000    1.1791582    -4.540204    394.99999  0.063791989   0.06562704            4 
  517000    1.1583986   -4.5443346    395.61048  0.063767002  0.065612359            3 
  518000    1.1798773   -4.5386013    396.55338  0.063795588  0.065597023            3 
  519000    1.1460932   -4.5250796    398.26887  0.063948116  0.065581963            2 
  520000    1.1762854   -4.5358674    398.24479   0.06382128  0.065566447            1 
  521000    1.1407968   -4.5343531    397.25933  0.063541159  0.065550521            2 
  522000    1.1716708   -4.5279664     400.4349  0.063926388  0.065535304            2 
  523000    1.1601984   -4.5888854    399.96981  0.063730053   0.06551839            4 
  524000     1.140528   -4.5272896    401.75851  0.063892893  0.065500842            2 
  525000    1.1536877   -4.5680885    400.47841  0.063568001  0.065484568            4 
  526000    1.1581397   -4.5391292    402.79101  0.063813532  0.065467185            3 
  527000     1.168299   -4.5421738    402.54869  0.063654125  0.065450338            2 
  528000    1.1924898   -4.5312674    403.57592  0.063695695  0.065433185            3 
  529000    1.1539483   -4.5436222    404.91398  0.063786071  0.065417815            2 
  530000    1.1649175    -4.545026     403.0401  0.063371086  0.065402305            2 
  531000    1.1917723   -4.5129953    405.19061  0.063589236   0.06538538            2 
  532000    1.1800781   -4.5725877    405.90809  0.063582094   0.06536944            2 
  533000    1.1621396   -4.5448537    407.10973  0.063650676  0.065353183            2 
  534000    1.1848582   -4.5171468    407.56683  0.063602814  0.065335733            1 
  535000    1.1723931   -4.5479525    408.44474  0.063620676  0.065321016            2 
  536000    1.1509319    -4.604004    406.19209  0.063151754  0.065305773            5 
  537000    1.1715672   -4.5300031    410.32188  0.063675028  0.065289374            6 
  538000     1.182693   -4.5860365    408.81301  0.063322956  0.065273868            1 
  539000    1.1484498   -4.5139431    413.06828   0.06386337  0.065258443            2 
  540000    1.1784752   -4.5472236    411.42048  0.063490815  0.065243382            1 
  541000    1.1601201   -4.5413121    414.02323  0.063774373  0.065228611            2 
  542000    1.1711957   -4.5446394    412.47236   0.06341826  0.065214048            2 
  543000    1.1628911   -4.5822545     413.8446  0.063512063  0.065197636            2 
  544000    1.1709484   -4.5507447    415.61624  0.063666704  0.065182341            3 
  545000    1.1684749   -4.6003364    413.31773   0.06319843  0.065166619            3 
  546000    1.1546938   -4.5770387    414.52719  0.063267275  0.065150298            2 
  547000    1.1638367   -4.5866303    416.47885  0.063448941  0.065134686            4 
  548000    1.1613196   -4.5432342    418.04031  0.063570606  0.065119153            3 
  549000    1.1680091   -4.5349957    418.21256   0.06348096   0.06510288            2 
  550000    1.1539064   -4.5814968    417.28547  0.063225071  0.065086533            3 
  551000    1.1672356   -4.5946684    417.36807  0.063122817  0.065069329            3 
  552000    1.1584304   -4.5490823    420.45868  0.063475042  0.065052501            4 
  553000     1.167811    -4.537628    420.04019  0.063297196  0.065036536            2 
  554000    1.1662889   -4.5606048    421.70816  0.063433838   0.06502003            2 
  555000    1.1564613   -4.5432617    424.41705  0.063726284   0.06500518            2 
  556000    1.1690821   -4.5681025     422.9327  0.063389194  0.064990521            1 
  557000     1.161418   -4.5209491    423.62134  0.063378418  0.064976075            2 
  558000    1.1596931   -4.5497661    423.81259  0.063293398  0.064961342            2 
  559000    1.1743457   -4.5606511    426.88078  0.063637563  0.064945645            1 
  560000    1.1507391   -4.5703848    426.32435  0.063441123  0.064931194            2 
  561000    1.1355117   -4.6011666    425.46767  0.063200783   0.06491653            5 
  562000     1.189838   -4.5643748    426.65817  0.063264853  0.064901413            3 
  563000    1.1855845   -4.5363533    427.92132  0.063339449  0.064886348            1 
  564000    1.1607915   -4.5575624     428.3145   0.06328524  0.064871892            2 
  565000    1.1653653   -4.5444922    429.88396  0.063404714  0.064856291            1 
  566000    1.1657067     -4.59514    428.38208  0.063071567  0.064840371            3 
  567000    1.1747857   -4.5656349    427.87346  0.062885577  0.064822767            4 
  568000    1.1659079   -4.5065167    432.59208  0.063467149  0.064805429            2 
  569000    1.1760465   -4.5664663    430.84444  0.063099655  0.064788519            2 
  570000    1.1339984   -4.5505441    429.18108  0.062745771  0.064769822            5 
  571000    1.1525126   -4.5463574    431.22484  0.062934157  0.064751731            4 
  572000    1.1518608   -4.5369167    433.89021  0.063212443  0.064734996            2 
  573000    1.1472593   -4.5832129    433.21519  0.063003954  0.064719303            2 
  574000    1.1645764   -4.5564987    434.20603  0.063038042   0.06470251            3 
  575000    1.1678589   -4.5512125    435.13118   0.06306249  0.064685118            3 
  576000    1.1695992   -4.5504499    435.22806  0.062967023  0.064668808            2 
  577000    1.1618118   -4.5848907    435.02859  0.062829086   0.06465365            1 
  578000    1.1803941   -4.5593077    438.70644  0.063250641  0.064637891            2 
  579000    1.1697212   -4.5727368    438.66036  0.063134767   0.06462214            4 
  580000    1.1650951   -4.5680662    438.21737  0.062962266  0.064607407            2 
  581000    1.1521621   -4.6010972     439.1292  0.062984682  0.064593019            2 
  582000    1.1510629   -4.5651082    440.14584  0.063022027  0.064579301            2 
  583000    1.1510048   -4.5667888    442.93745  0.063312958  0.064565301            2 
  584000    1.1510617   -4.5678589    442.82218  0.063188096  0.064551257            1 
  585000    1.1532438   -4.5819784    443.28109  0.063145455   0.06453651            3 
  586000    1.1435788   -4.5541614     443.6638  0.063092122  0.064521919            2 
  587000    1.1554861    -4.560793    444.02852  0.063036417  0.064506657            1 
  588000    1.1553602   -4.5463227    446.26816  0.063246621  0.064490871            3 
  589000    1.1310072   -4.5759098    446.09499  0.063114741  0.064476056            2 
  590000    1.1436919   -4.5637164    446.13861  0.063013928  0.064461943            6 
  591000     1.180285   -4.5829538    446.60754  0.062973427  0.064446458            5 
  592000    1.1645353   -4.5493476     446.9917  0.062921129  0.064430803            4 
  593000    1.1272342   -4.5559498    447.01003  0.062817599  0.064415095            1 
  594000    1.1429919    -4.583046    446.70948   0.06266968  0.064397399            3 
  595000    1.1652662   -4.5916314    448.81942  0.062859863  0.064379701            3 
  596000    1.1395838   -4.5632691    449.06664   0.06278896   0.06436357            1 
  597000    1.1432135   -4.5829747    448.74607  0.062639039  0.064347289            4 
  598000    1.1511721   -4.5560175    450.91064   0.06283593  0.064330912            3 
  599000    1.1560316   -4.5778439    452.45845  0.062946362   0.06431522            1 
  600000    1.1592371   -4.5549869    452.03439  0.062782554  0.064298906            1 
  601000    1.1502319   -4.5472858    454.21378   0.06298028   0.06428224            4 
  602000    1.1243166   -4.6004883    450.78066  0.062400424  0.064265563            2 
  603000    1.1338536   -4.5779758     453.1264  0.062621116  0.064249005            2 
  604000    1.1678711   -4.5751978    453.80048  0.062610442  0.064232239            2 
  605000    1.1814988   -4.5698603    456.41742  0.062867413  0.064215479            3 
  606000    1.1519058   -4.5995523    454.46409  0.062495062   0.06419828            3 
  607000     1.138357   -4.5372935    454.65671  0.062418549  0.064180555            2 
  608000    1.1601839   -4.5768565    456.18583  0.062525471  0.064163352            1 
  609000    1.1476427   -4.5589883     457.7218  0.062632977  0.064145156            1 
  610000    1.1437052   -4.5712658    457.67539  0.062523961  0.064127439            2 
  611000     1.139506   -4.6030958    456.31335  0.062235863  0.064109772            3 
  612000    1.1382457   -4.5849541    458.33568  0.062409542  0.064091887            2 
  613000    1.1597119   -4.5605053     459.0978  0.062411337  0.064073918            2 
  614000    1.1505183   -4.6213374    458.30661  0.062202308  0.064054487            2 
  615000    1.1391776   -4.5768496    460.97835  0.062463191  0.064034721            2 
  616000    1.1580225   -4.5578855    460.52274  0.062300154  0.064015428            2 
  617000    1.1587691   -4.5641208    458.84447  0.061972511  0.063995849            1 
  618000    1.1357433   -4.5580378    460.48692  0.062093705  0.063976422            2 
  619000    1.1745187   -4.5965462    459.94792  0.061920829  0.063955901            3 
  620000    1.1793514   -4.5824845    461.46822  0.062025298  0.063935798            2 
  621000    1.1434699   -4.5522431    463.96006  0.062259803  0.063915426            2 
  622000    1.1283083   -4.5656483     463.2585  0.062065716  0.063895545            2 
  623000    1.1405195   -4.5727184    461.51786  0.061733262   0.06387476            3 
  624000    1.1583401   -4.5860346    465.14923  0.062119288  0.063854693            4 
  625000    1.1631567   -4.5618729    465.81755  0.062109007  0.063834171            2 
  626000    1.1726833   -4.6162705     464.7397  0.061866307  0.063812722            1 
  627000    1.1457724   -4.6190837    464.49213  0.061734733  0.063791307            3 
  628000    1.1503808   -4.5953358    465.07453  0.061713711  0.063769391            1 
  629000    1.1540947   -4.6074729    465.66442  0.061693749  0.063748186            1 
  630000    1.1485515   -4.5639353    468.62555  0.061987506  0.063726871            4 
  631000    1.1590377   -4.5686225    467.85929  0.061788073  0.063706809            2 
  632000    1.1282383   -4.5607432    466.89919  0.061563712  0.063686717            1 
  633000     1.153267   -4.5834161    468.93648   0.06173466  0.063666641            2 
  634000    1.1393319   -4.5581386    469.58279  0.061722238  0.063645825            1 
  635000    1.1495381   -4.5718707    469.22726  0.061578381  0.063625123            3 
  636000    1.1608695   -4.5708837    470.28273  0.061619854  0.063604022            3 
  637000    1.1552177   -4.5542543    471.48357  0.061680216  0.063583828            1 
  638000    1.1256196   -4.5682239     472.0526  0.061657863  0.063563932            2 
  639000    1.1355444   -4.5787983    475.42908  0.062001706  0.063544698            2 
  640000    1.1752865   -4.5856178    474.44883  0.061777191  0.063524601            1 
  641000    1.1778689   -4.5717853    473.42963  0.061548314  0.063504749            3 
  642000    1.1469886   -4.5901892    475.10593  0.061670032  0.063484605            3 
  643000    1.1695008   -4.5856162    476.69377  0.061779908  0.063465214            1 
  644000     1.144154   -4.5848101      475.927  0.061584757  0.063446516            2 
  645000    1.1491184   -4.5525274    479.28589  0.061923241  0.063427202            1 
  646000    1.1537878   -4.5591049    480.38101  0.061968655  0.063409919            2 
  647000     1.143992   -4.5697369    481.27903  0.061988541  0.063392577            2 
  648000    1.1584859   -4.5583349    480.88746  0.061842523  0.063376021            2 
  649000    1.1525354   -4.5828921    480.62765  0.061713874  0.063358656            2 
  650000    1.1521256   -4.5640994    482.51602  0.061861029  0.063340453            4 
  651000    1.1412779   -4.5673651    482.65382  0.061783643  0.063324247            4 
  652000    1.1565749   -4.5668064    485.14524  0.062007316  0.063307337            3 
  653000    1.1295119   -4.5486521    488.13229  0.062293554  0.063291189            3 
  654000    1.1220954   -4.5768559    485.15852  0.061819383  0.063274801            2 
  655000    1.1336855   -4.6064817    484.82949  0.061683141  0.063257513            4 
  656000    1.1582955   -4.5691477    487.12806  0.061881105  0.063240962            3 
  657000    1.1637469   -4.6219382    485.77786  0.061615659  0.063223676            3 
  658000    1.1505801   -4.6061175     487.9992  0.061803343  0.063207314            3 
  659000    1.1483551    -4.590185    488.42085  0.061762879  0.063190751            3 
  660000    1.1794414   -4.6203564     487.8185  0.061593245  0.063173797            5 
  661000     1.114477   -4.5825973     490.5234  0.061841075  0.063156453            4 
  662000    1.1335193    -4.576738    489.65934   0.06163889  0.063139579            5 
  663000    1.1443831   -4.6154177    489.97507  0.061585605  0.063123358            5 
  664000    1.1333513    -4.598357    492.95346  0.061866649  0.063106843            2 
  665000    1.1368413   -4.5897678    492.96384  0.061774917  0.063092003            2 
  666000    1.1287417   -4.5705416    494.31513  0.061851243  0.063077953            2 
  667000    1.1466407   -4.6229427    495.05743  0.061851254  0.063063405            3 
  668000    1.1525066   -4.6015337    495.64606  0.061832094  0.063048419            3 
  669000    1.1657646   -4.5562515    496.91959  0.061898304  0.063033496            5 
  670000    1.1544715   -4.6040473    496.10716   0.06170487  0.063018822            2 
  671000    1.1219806   -4.5933007    497.85034  0.061829401  0.063004393            1 
  672000    1.1757244   -4.5986581    496.60462  0.061582914  0.062990903            3 
  673000    1.1179432   -4.5788649      499.252  0.061819218  0.062976612            2 
  674000    1.1393709   -4.6002892    500.21493  0.061846554  0.062962599            2 
  675000    1.1763135   -4.5838774    502.15592  0.061994558  0.062947693            2 
  676000    1.1700221   -4.5470774    503.87264  0.062114477  0.062934129            2 
  677000    1.1455188   -4.5645841    502.31159  0.061830575  0.062920476            2 
  678000    1.1326319   -4.5925278     501.1689  0.061598931   0.06290628            6 
  679000    1.1412538   -4.6111446    501.15533  0.061506545  0.062892554            2 
  680000    1.1301676   -4.5652794    504.37754  0.061810973  0.062878438            2 
  681000    1.1466958   -4.5880521    504.95138  0.061790429  0.062864511            4 
  682000    1.1275035   -4.5904336    507.56545  0.062019238  0.062851121            4 
  683000    1.1617954   -4.5455704    506.14653  0.061755312  0.062837703            4 
  684000     1.121826   -4.5938427     507.6662   0.06185017  0.062824275            3 
  685000    1.1353325   -4.5969563    507.30199  0.061715571  0.062810771            2 
  686000    1.1643192   -4.5873967    509.28414  0.061866392  0.062797414            1 
  687000    1.1491522   -4.5765373    511.31709  0.062022937   0.06278537            3 
  688000    1.1427538   -4.5922229    510.02489   0.06177627  0.062772693            3 
  689000    1.1355164   -4.5715395    509.97417  0.061680475  0.062759489            3 
  690000    1.1426442   -4.5659985    513.18089  0.061978368  0.062745998            3 
  691000    1.1344556   -4.5606958    514.40883  0.062036762  0.062733578            3 
  692000    1.1542265    -4.602588      511.829  0.061636441  0.062720919            3 
  693000    1.1417367   -4.5844739    514.27673  0.061841839  0.062708416            3 
  694000    1.1405933   -4.5807405    515.94079  0.061952544  0.062694964            3 
  695000    1.1561727   -4.5822345    513.97462  0.061627652   0.06268249            2 
  696000    1.1654428   -4.6005209    514.67967  0.061623523  0.062668842            3 
  697000    1.1457996   -4.5949433    516.17739  0.061714179  0.062655777            3 
  698000    1.1308629   -4.6100816    517.58922  0.061794319  0.062643378            3 
  699000    1.1509695   -4.6065962    516.64971  0.061593909  0.062630054            5 
  700000    1.1061439   -4.5923927    518.76221  0.061757406  0.062617397            2 
  701000    1.1316245   -4.5808756    520.03848  0.061821027  0.062605419            4 
  702000    1.1392775   -4.5963025    521.21841   0.06187303  0.062594317            3 
  703000    1.1064959   -4.5863289    520.61693  0.061713719  0.062582545            3 
  704000     1.150137   -4.6370817    521.38841  0.061717379   0.06257105            2 
  705000    1.1353869   -4.6300559    522.79256  0.061795811  0.062560293            1 
  706000    1.1633752    -4.591182      524.794  0.061944523  0.062549154            4 
  707000    1.1340977    -4.602772    521.75155  0.061498296    0.0625386            2 
  708000    1.1631957   -4.5935606    526.05546  0.061918015  0.062527557            2 
  709000    1.1379612   -4.5774811    525.13113  0.061722041  0.062516776            2 
  710000    1.1146267   -4.5667817    530.04665  0.062212048  0.062506274            3 
  711000    1.1336052   -4.5885228    525.48501  0.061589898  0.062495147            3 
  712000    1.1511463   -4.6185894    526.12566  0.061578378  0.062483649            3 
  713000    1.1300184    -4.628105    525.95121  0.061471624  0.062471292            2 
  714000    1.1468455   -4.6073327    529.24476   0.06176993  0.062459609            2 
  715000    1.1408623   -4.5725413    531.53433  0.061950388  0.062447791            4 
  716000    1.1120876    -4.612668    527.47499  0.061391409  0.062435915            2 
  717000    1.1223886   -4.6448728    526.67186  0.061212443   0.06242231            2 
  718000    1.1439048   -4.6166057    528.23659  0.061308796  0.062409595            2 
  719000    1.1452594   -4.6025843    530.20455  0.061451617  0.062396265            3 
  720000    1.1413658   -4.5767019    531.61768  0.061529824  0.062383338            4 
  721000    1.1272351   -4.6048845    532.81654  0.061583049  0.062370126            4 
  722000    1.1591752   -4.6023753    534.76734  0.061722916  0.062356968            2 
  723000    1.1298749   -4.5780086     534.3405  0.061588347  0.062344461            2 
  724000    1.1519011   -4.5910136    533.66366  0.061425375  0.062330763            3 
  725000    1.1391945   -4.6176528    532.04533  0.061154636  0.062317298            3 
  726000    1.1478852   -4.6003205    533.22499  0.061205807  0.062303783            1 
  727000    1.1400886   -4.6255944    536.46917  0.061493485  0.062291176            8 
  728000    1.1593301   -4.5986885    537.76886  0.061557791  0.062278315            2 
  729000    1.1257718   -4.5666947    540.04695  0.061733762  0.062266093            2 
  730000    1.1134736   -4.5806893    539.37725  0.061572745  0.062254906            2 
  731000    1.1324755   -4.5700828    541.81791  0.061766748   0.06224381            1 
  732000    1.1197262   -4.5824554    541.96526  0.061699141  0.062232805            1 
  733000    1.1124554   -4.6270752    541.30554  0.061539966   0.06222219            2 
  734000    1.1504255   -4.6393168    540.80638  0.061399452  0.062210894            1 
  735000    1.1614723   -4.6129958    544.33643  0.061716148  0.062199813            5 
  736000    1.1482529   -4.5789461     544.1918  0.061615919  0.062189258            1 
  737000    1.1233908   -4.6044854    547.59378  0.061916981  0.062179377            2 
  738000    1.1543487   -4.6357254    545.34791  0.061579483  0.062169212            2 
  739000    1.1365525   -4.6209202    546.32588  0.061606437  0.062159111            4 
  740000    1.1257147    -4.643649    547.62079  0.061669008  0.062148648            2 
  741000    1.1432222   -4.5929897    550.37057  0.061895026   0.06213885            3 
  742000     1.139269   -4.6512317    548.05059  0.061551055  0.062128938            3 
  743000     1.158245   -4.6453193    549.58476  0.061640283  0.062118876            3 
  744000    1.1261367   -4.5634629    550.73702  0.061686494  0.062108988            1 
  745000    1.1373121   -4.6020452    549.42479  0.061456912  0.062098716            5 
  746000    1.1549728   -4.5849937    554.65136  0.061958374  0.062089366            3 
  747000    1.1417956   -4.6182517    551.69888   0.06154606  0.062079598            3 
  748000    1.1236582   -4.5921899    553.61802  0.061677587  0.062069765            3 
  749000    1.1472519   -4.6180063    550.07148  0.061200654  0.062059798            4 
  750000    1.1301755   -4.5916705    553.92454  0.061547171  0.062049208            6 
  751000    1.1471042   -4.6210778    552.19192   0.06127296  0.062037557            2 
  752000    1.1393196   -4.6569199    553.23797  0.061307399   0.06202653            4 
  753000    1.1093697     -4.61037    554.37793  0.061352139  0.062015698            1 
  754000    1.1275852   -4.6381931    555.35158   0.06137838  0.062004331            4 
  755000    1.1259521   -4.5765609    554.92985  0.061250536  0.061992431            2 
  756000     1.139996    -4.609373    554.81739  0.061157119  0.061980444            4 
  757000    1.1273566    -4.623194    555.78862  0.061183248   0.06196765            3 
  758000    1.1253055   -4.6350125    555.95816  0.061121169  0.061955341            2 
  759000    1.1511025   -4.6195482    555.98703   0.06104381  0.061942836            2 
  760000    1.1447302   -4.6351322    556.86454  0.061059708  0.061930487            8 
  761000     1.118242   -4.6474302    558.04939   0.06110922  0.061917395            3 
  762000    1.1380767   -4.6030289    557.31848   0.06094909  0.061903286            4 
  763000    1.1500066   -4.5931951    557.91753  0.060934636  0.061890378            2 
  764000    1.1352255   -4.6588871      556.726  0.060724912  0.061877294            7 
  765000     1.147503   -4.6100707    559.64819  0.060963855  0.061863667            3 
  766000    1.1361029   -4.6087497    559.20168  0.060835692  0.061850486            3 
  767000    1.0916483   -4.6354939    560.23917  0.060869097  0.061836498            2 
  768000    1.1142432   -4.5933987    561.27506  0.060902242   0.06182307            6 
  769000    1.1240667    -4.608809    561.82985  0.060883166  0.061808933            2 
  770000    1.0999808   -4.6080783    560.45571   0.06065538  0.061794645            2 
  771000    1.1268831   -4.6322832    562.89024  0.060839844  0.061780994            5 
  772000    1.1296073   -4.5838511    563.78976  0.060858134  0.061767172            2 
  773000    1.1307066   -4.5995749    562.84207  0.060677239  0.061752822            1 
  774000    1.1156298   -4.5978689    565.00106  0.060831294    0.0617393            3 
  775000    1.1246138   -4.5817484    566.20229  0.060881966  0.061725675            3 
  776000    1.0996354   -4.6378876    564.62455   0.06063408  0.061711628            2 
  777000    1.1047286   -4.6058517    566.77106  0.060786257  0.061697152            1 
  778000    1.1470894   -4.6325208    566.42415  0.060670967  0.061683934            2 
  779000    1.1138616   -4.6180187    568.78417  0.060845547  0.061670002            1 
  780000    1.1237785   -4.5882127    570.67241  0.060969274  0.061656892            4 
  781000    1.1164894   -4.6258143    570.07258  0.060827207  0.061643504            3 
  782000    1.1339939   -4.5983406    568.64952  0.060597775  0.061630567            4 
  783000    1.1279152   -4.6022002     569.2321  0.060582386  0.061617296            3 
  784000    1.1378451   -4.6238104    568.99661  0.060480082  0.061603667            2 
  785000    1.1496634   -4.6131513    572.84827  0.060811919  0.061590209            2 
  786000    1.1267257   -4.6324135    571.73406  0.060616419  0.061576368            2 
  787000    1.1210618   -4.6111226    574.47564  0.060829695  0.061563659            4 
  788000    1.1340265    -4.632728    572.93459  0.060589529  0.061550309            1 
  789000     1.127958     -4.64072    571.78811  0.060391647   0.06153629            2 
  790000    1.1392729   -4.6260136    574.58278  0.060609998  0.061522436            3 
  791000    1.0954669   -4.6317071    575.49132   0.06062909  0.061508859            2 
  792000    1.1438776   -4.6221236    576.53845  0.060662715  0.061495549            2 
  793000    1.1234054   -4.6445844    576.67258  0.060600313  0.061483166            2 
  794000    1.1406566   -4.6435398    576.46789  0.060502507  0.061469946            1 
  795000    1.1171218   -4.6600655    577.83764  0.060569984  0.061456823            1 
  796000    1.1420416   -4.6498588    576.75819  0.060380883   0.06144348            3 
  797000    1.1150258   -4.6361255    578.69738  0.060507882  0.061430165            6 
  798000    1.1262139   -4.6245956    581.52626  0.060727471  0.061416796            3 
  799000    1.1085149   -4.6258852    579.94121   0.06048615  0.061402773            3 
  800000    1.1383504   -4.5873393    582.97537  0.060726601  0.061389216            4 
  801000    1.1353123   -4.6252433    581.01088  0.060446409  0.061375724            3 
  802000    1.1066953   -4.6393721    580.26608  0.060293649  0.061361821            6 
  803000    1.1087288   -4.6488287    582.64397  0.060465336   0.06134775            4 
  804000    1.1373752   -4.6230608    580.67568   0.06018612  0.061333561            4 
  805000    1.1326638   -4.6455535    582.91276  0.060342936  0.061318764            2 
  806000    1.1290874    -4.630933    584.24496  0.060405806  0.061303745            3 
  807000    1.1470066   -4.6282601    585.97357  0.060509456  0.061289391            2 
  808000    1.1177536   -4.6224433     583.8342  0.060213924  0.061275118            2 
[...]
 4800000   0.47248575   -6.1808173    1447.9681  0.025138335  0.023943488         3918 
 4801000   0.48634476   -6.1882827    1449.5091  0.025159847  0.023936215         3898 
 4802000   0.49459778   -6.1848602    1449.0034  0.025145831  0.023928952         3912 
 4803000   0.47566921   -6.1794714    1452.3821  0.025199217  0.023921682         3887 
 4804000     0.494373   -6.1776366    1451.9044  0.025185685  0.023914419         3889 
 4805000   0.47596631   -6.1818323    1450.9903   0.02516459  0.023907157         3910 
 4806000   0.48419349   -6.1874786    1447.9427  0.025106511  0.023899886         3936 
 4807000   0.48185534   -6.1766548    1451.4134  0.025161455  0.023892632         3881 
 4808000   0.50756489    -6.187041    1449.2566  0.025118841  0.023885371         3884 
 4809000   0.46845338   -6.1663788    1448.1645  0.025094692  0.023878115         3903 
 4810000   0.48837846   -6.1812838    1449.3852  0.025110623  0.023870864         3890 
 4811000   0.48182705   -6.1677763    1452.6265  0.025161547  0.023863618         3871 
 4812000   0.48362754   -6.1838835    1451.6021  0.025138578  0.023856369         3903 
 4813000   0.48198424   -6.1860357    1450.2327  0.025109646   0.02384912         3882 
 4814000   0.48341071   -6.1732681    1451.4098  0.025124806  0.023841877         3856 
 4815000   0.47509712   -6.1817569    1450.9476  0.025111589  0.023834641         3878 
 4816000   0.48605267     -6.19368    1449.3103  0.025078043  0.023827403         3907 
 4817000   0.48098297   -6.1680001    1451.8299  0.025116426  0.023820168         3879 
 4818000   0.48182083   -6.1929443     1449.662  0.025073717  0.023812938         3937 
 4819000   0.47654923   -6.1846149    1451.9095  0.025107378  0.023805699         3938 
 4820000   0.49384108    -6.187057    1451.4182  0.025093676  0.023798461         3894 
 4821000   0.47436467   -6.1925736    1448.4279  0.025036782  0.023791234         3915 
 4822000   0.47918087   -6.1796996    1450.1976  0.025062174  0.023783993         3905 
 4823000   0.47524603    -6.189305    1449.3091  0.025041625  0.023776766         3924 
 4824000    0.4750427   -6.1837026    1448.0877  0.025015335  0.023769536         3916 
 4825000   0.48479014   -6.1747526    1450.3112  0.025048552  0.023762315         3885 
 4826000   0.48889741   -6.2077257    1448.2858  0.025008388  0.023755089         3905 
 4827000   0.47552591   -6.1972357    1446.4925  0.024972248  0.023747862         3898 
 4828000   0.47473438   -6.1860987    1451.4316  0.025052326  0.023740636         3899 
 4829000   0.47989054   -6.2062047    1450.3907  0.025029176  0.023733421         3884 
 4830000   0.47425608   -6.1884364    1451.4021  0.025041444  0.023726203         3914 
 4831000    0.4758217   -6.2097736    1448.2995  0.024982742  0.023718983         3917 
 4832000   0.47871357   -6.1935415    1449.4712  0.024997778  0.023711767         3921 
 4833000   0.48308535   -6.1917493    1452.6296  0.025047065  0.023704561         3898 
 4834000   0.48012717   -6.2021335    1450.2854  0.025001472  0.023697354         3873 
 4835000   0.48201566   -6.1775093    1451.0368  0.025009251  0.023690157         3914 
 4836000   0.48095098   -6.2045925    1449.8099  0.024982939   0.02368295         3916 
 4837000    0.4795608   -6.1920286    1451.7804  0.025011722  0.023675744         3895 
 4838000    0.4793291   -6.1977215    1449.6043  0.024969069  0.023668545         3902 
 4839000   0.48598848     -6.18114    1450.4794   0.02497898  0.023661346         3908 
 4840000   0.47598565   -6.1867099    1447.2253  0.024917791  0.023654164         3905 
 4841000   0.47808376    -6.186832    1450.3358  0.024966189  0.023646975         3888 
 4842000    0.4709985   -6.2083004    1450.7359  0.024967919  0.023639791         3912 
 4843000    0.4723208   -6.1993908    1452.2357   0.02498857  0.023632613         3873 
 4844000   0.47025801   -6.1975342    1450.8528   0.02495962  0.023625438         3891 
 4845000   0.47550051   -6.1958113    1446.6876  0.024882827   0.02361826         3895 
 4846000   0.48163729   -6.2017196    1449.6284  0.024928263   0.02361108         3906 
 4847000   0.47739567   -6.2049052    1449.1492  0.024914882  0.023603911         3910 
 4848000   0.48368664   -6.2061496    1446.9081  0.024871221  0.023596733         3929 
 4849000   0.47767335   -6.1935237    1447.9898  0.024884681  0.023589559         3896 
 4850000   0.47888567     -6.18987    1448.5011  0.024888335  0.023582396         3904 
 4851000   0.47921792   -6.1887655    1448.9863   0.02489154   0.02357523         3888 
 4852000   0.47498718   -6.2064993    1449.2517  0.024890968  0.023568057         3893 
 4853000   0.47332645   -6.2028435    1449.3988  0.024888365  0.023560898         3903 
 4854000   0.47587875   -6.1995465    1449.3386  0.024882203  0.023553736         3915 
 4855000   0.47620664   -6.1856838    1446.6359  0.024830688  0.023546571         3900 
 4856000   0.47161443   -6.1991064    1449.0662  0.024867281  0.023539418         3884 
 4857000   0.48454405   -6.2031406    1450.7076  0.024890324   0.02353227         3861 
 4858000    0.4805888   -6.1927341    1448.8413  0.024853185  0.023525119         3918 
 4859000   0.47710909   -6.2071748    1453.1299  0.024921622  0.023517963         3910 
 4860000   0.47205373   -6.1992961     1449.445  0.024853309  0.023510813         3905 
 4861000   0.47560525   -6.1961104    1447.3453  0.024812201  0.023503662         3907 
 4862000   0.48083392   -6.1905779    1448.9111  0.024833935  0.023496516         3915 
 4863000   0.47046413   -6.1797541    1450.5216  0.024856426  0.023489374         3916 
 4864000   0.46653099   -6.2009426    1448.8615  0.024822874  0.023482231         3914 
 4865000    0.4742676   -6.1922322    1447.0246  0.024786306  0.023475092         3896 
 4866000   0.47992692    -6.201755    1448.5093   0.02480664  0.023467951         3914 
 4867000   0.47191109   -6.1977864    1449.6915  0.024821784  0.023460816         3885 
 4868000   0.47704968   -6.1999537    1449.6687  0.024816296  0.023453688         3904 
 4869000   0.47646703   -6.1966026    1448.6631  0.024793988  0.023446559         3908 
 4870000   0.47343089   -6.2097658    1449.5084   0.02480336  0.023439433         3923 
 4871000   0.47218841   -6.1976653    1450.1384  0.024809047  0.023432311         3917 
 4872000   0.47647986   -6.2148329    1448.1519  0.024769976  0.023425182         3866 
 4873000   0.47337748   -6.2058235     1449.269  0.024783996  0.023418062         3894 
 4874000    0.4797683   -6.2163496    1450.3756  0.024797831  0.023410937         3931 
 4875000   0.46450665   -6.1998966    1449.5413  0.024778483  0.023403815         3898 
 4876000    0.4719069   -6.2052281    1447.7474  0.024742743  0.023396701         3915 
 4877000   0.47060558   -6.2010387    1446.3061  0.024713042  0.023389584         3916 
 4878000    0.4690412   -6.1939947    1447.7363  0.024732409  0.023382473         3930 
 4879000   0.46853365   -6.2161741     1447.079  0.024716113   0.02337537         3909 
 4880000   0.48557224    -6.203616    1447.9623  0.024726133  0.023368256         3917 
 4881000   0.47897561   -6.2002684    1446.0325   0.02468812  0.023361152         3908 
 4882000   0.48388008   -6.1900645    1448.8862  0.024731773  0.023354063         3946 
 4883000    0.4834562   -6.2022215    1447.5843   0.02470449  0.023346967         3885 
 4884000    0.4721482   -6.1930433    1447.3964  0.024696226  0.023339876         3922 
 4885000   0.47300718   -6.1975864    1446.2753  0.024672045  0.023332785         3921 
 4886000   0.47125338   -6.2005071    1451.3744  0.024753963  0.023325698         3896 
 4887000   0.47301649   -6.2065637    1449.1083  0.024710257  0.023318614         3906 
 4888000   0.47404467     -6.20836    1449.2826  0.024708172  0.023311523         3913 
 4889000   0.47396852   -6.2007843    1449.9726   0.02471488  0.023304436         3921 
 4890000   0.47546804   -6.2103483    1447.8985  0.024674481  0.023297353         3901 
 4891000   0.46189239   -6.1947774    1448.8133  0.024685021  0.023290281         3904 
 4892000   0.46393232   -6.1926502    1446.9211  0.024647744  0.023283198         3921 
 4893000    0.4685962   -6.2079857    1450.0984  0.024696818  0.023276122         3896 
 4894000   0.46625712   -6.2235333    1447.8812  0.024654018   0.02326904         3917 
 4895000   0.47041509   -6.2156056    1446.1023  0.024618697   0.02326197         3909 
 4896000   0.47069778   -6.2086923    1447.8459  0.024643346  0.023254903         3891 
 4897000   0.47194667   -6.2227388     1447.906  0.024639338  0.023247834         3890 
 4898000   0.47156853   -6.2063281    1448.5258  0.024644852  0.023240774         3906 
 4899000   0.46464353   -6.2085317    1447.4287  0.024621159   0.02323371         3926 
 4900000   0.47353726   -6.2121415    1444.6597  0.024569042  0.023226649         3908 
 4901000   0.47307589   -6.2056188    1448.0629  0.024621895  0.023219584         3940 
 4902000   0.47585945   -6.2126519    1449.7926  0.024646278  0.023212531         3936 
 4903000   0.45738111   -6.2131562    1448.5449  0.024620044  0.023205477         3922 
 4904000   0.46430772   -6.2198788    1445.7393  0.024567348  0.023198418         3915 
 4905000   0.46766544   -6.2207035     1450.326  0.024640264  0.023191364         3909 
 4906000   0.46748755   -6.2230017    1447.7337  0.024591209  0.023184311         3917 
 4907000   0.47223379   -6.2065173    1444.3319  0.024528427  0.023177266         3918 
 4908000   0.45594646   -6.2296437    1445.5624  0.024544322   0.02317021         3926 
 4909000   0.47271736   -6.2212605    1447.8121  0.024577513  0.023163156         3923 
 4910000   0.45565369   -6.2089816    1448.2867  0.024580562  0.023156113         3921 
 4911000   0.45839984   -6.2254171    1446.1879  0.024539942  0.023149066         3919 
 4912000   0.46039807    -6.213812    1450.0124   0.02459983  0.023142022         3922 
 4913000   0.46297179   -6.2104572    1448.8346  0.024574846  0.023134989         3919 
 4914000   0.46488522   -6.2140489    1447.2366  0.024542746  0.023127958         3906 
 4915000   0.46158679   -6.2115095    1447.0777  0.024535057  0.023120927         3901 
 4916000   0.45132553   -6.2258112    1447.7504  0.024541469    0.0231139         3944 
 4917000   0.46562253   -6.2234994    1446.8704  0.024521565  0.023106875         3930 
 4918000   0.46193319   -6.2095291    1446.4857   0.02451006  0.023099849         3910 
 4919000   0.46741826    -6.203895    1447.1943  0.024517082  0.023092828         3951 
 4920000   0.45682587   -6.2080773    1442.6008  0.024434295  0.023085812         3914 
 4921000   0.46140202   -6.2184452     1445.255  0.024474276  0.023078797         3934 
 4922000   0.47080417   -6.2160955    1447.4225  0.024506003  0.023071783         3898 
 4923000   0.47192777   -6.2173316    1449.5032  0.024536246   0.02306477         3912 
 4924000   0.46859839   -6.2177816    1449.2013  0.024526153   0.02305776         3931 
 4925000   0.45825381   -6.2315462    1447.5458   0.02449316   0.02305075         3913 
 4926000   0.46098431   -6.2264444    1447.6633  0.024490176   0.02304375         3897 
 4927000   0.45756985   -6.2094186    1445.4524  0.024447811  0.023036752         3932 
 4928000   0.47119869   -6.2310413    1448.2505  0.024490166  0.023029751         3920 
 4929000   0.46013769    -6.223232    1444.2176  0.024417016  0.023022746         3946 
 4930000   0.46263454   -6.2247871    1445.5517  0.024434613  0.023015753         3935 
 4931000   0.46053128   -6.2232748    1448.5508  0.024480342  0.023008756         3921 
 4932000   0.45149871   -6.2245775    1445.4572  0.024423108  0.023001756         3925 
 4933000   0.46823937   -6.2143388    1447.3387  0.024449941  0.022994759         3933 
 4934000   0.47266836   -6.2479901    1448.3482  0.024462036  0.022987767         3931 
 4935000   0.46659179   -6.2238704    1448.6534  0.024462232  0.022980785         3925 
 4936000   0.46071254   -6.2278847    1446.5208  0.024421273  0.022973804         3922 
 4937000   0.46612582   -6.2221881    1445.3532  0.024396617  0.022966821         3934 
 4938000   0.46028457      -6.2208    1445.5181   0.02439446  0.022959833         3926 
 4939000   0.45165736   -6.2135485    1447.9204  0.024430053  0.022952856         3909 
 4940000   0.45952572   -6.2115321    1448.2467  0.024430612   0.02294588         3925 
 4941000   0.46342992   -6.2353941    1447.8814  0.024419508  0.022938905         3932 
 4942000    0.4637361   -6.2273146     1447.443  0.024407172  0.022931925         3906 
 4943000   0.46078387   -6.2100113    1445.5371  0.024370105  0.022924953         3916 
 4944000   0.45913718   -6.2182487      1444.29  0.024344154  0.022917981         3918 
 4945000   0.46060216   -6.2326393    1447.1679   0.02438773   0.02291102         3939 
 4946000   0.45806567   -6.2073019     1446.877  0.024377897  0.022904054         3929 
 4947000   0.46423535   -6.2296319    1447.4497  0.024382618  0.022897096         3924 
 4948000   0.45986583   -6.2365353    1449.0204  0.024404143  0.022890135         3920 
 4949000   0.45165448   -6.2336334    1447.1543  0.024367789  0.022883181         3891 
 4950000   0.46171339   -6.2162727    1445.6096  0.024336863  0.022876234         3939 
 4951000   0.45441658    -6.234396    1445.5831  0.024331501   0.02286928         3920 
 4952000   0.45104865   -6.2300499    1445.2772  0.024321439  0.022862328         3924 
 4953000   0.45959246   -6.2317542    1445.5911   0.02432181  0.022855374         3945 
 4954000   0.46149045   -6.2304862    1444.9096  0.024305437  0.022848431         3924 
 4955000   0.46189075   -6.2103111    1444.9104  0.024300546  0.022841491         3905 
 4956000    0.4525034   -6.2347752     1444.482  0.024288438  0.022834551         3916 
 4957000     0.461595   -6.2366094    1444.2882  0.024280281  0.022827606         3918 
 4958000   0.45636478    -6.227247    1444.5135   0.02427917  0.022820668         3923 
 4959000   0.45230783   -6.2161656    1446.1393  0.024301594  0.022813733         3918 
 4960000   0.45625219   -6.2253945    1445.6321  0.024288174    0.0228068         3941 
 4961000   0.45667504   -6.2306095    1446.4066  0.024296288   0.02279988         3927 
 4962000   0.45761511    -6.223204    1444.0098  0.024251139  0.022792951         3924 
 4963000   0.45530076   -6.2324765    1444.0035  0.024246147  0.022786025         3934 
 4964000   0.46381579   -6.2379319    1447.4991  0.024299945  0.022779101         3937 
 4965000   0.45877404   -6.2228045    1444.2808  0.024241033  0.022772185         3940 
 4966000   0.45659708    -6.220541    1446.6117  0.024275266  0.022765263         3894 
 4967000   0.46292094   -6.2244264    1445.1109    0.0242452  0.022758342         3934 
 4968000   0.45650795   -6.2217968    1445.6464  0.024249303  0.022751427         3914 
 4969000   0.45590375   -6.2426354    1444.8177  0.024230524  0.022744517         3930 
 4970000   0.44717729    -6.226296    1446.1756  0.024248417  0.022737606         3919 
 4971000   0.46120038   -6.2251649    1447.5164  0.024266015  0.022730687         3926 
 4972000   0.46043863   -6.2448829    1447.3294  0.024258002  0.022723779         3931 
 4973000   0.46313699   -6.2461526    1444.9654   0.02421351   0.02271687         3944 
 4974000   0.44428047   -6.2307091    1444.1363   0.02419475  0.022709964         3943 
 4975000   0.46178168   -6.2288889    1446.3669  0.024227251  0.022703061         3949 
 4976000   0.46190146   -6.2379454    1444.7363  0.024195075  0.022696164         3940 
 4977000    0.4514329   -6.2464184      1444.12  0.024179894  0.022689273         3943 
 4978000   0.45292312   -6.2454933    1444.3053  0.024178139  0.022682377         3944 
 4979000   0.46078886   -6.2251804    1444.2934  0.024173084  0.022675485         3947 
 4980000   0.46621358   -6.2346194     1445.071  0.024181242  0.022668599         3911 
 4981000   0.45130924   -6.2183631    1445.5166  0.024183842  0.022661714         3919 
 4982000   0.44699662   -6.2293412    1442.9095  0.024135379  0.022654835         3925 
 4983000   0.45440003   -6.2431089    1445.5859  0.024175295  0.022647949         3941 
 4984000   0.44905729   -6.2331399    1447.1103  0.024195933  0.022641077         3926 
 4985000   0.45700453   -6.2246546    1447.1246  0.024191318  0.022634205         3918 
 4986000    0.4707329   -6.2414624    1445.3675  0.024157098  0.022627328         3948 
 4987000   0.44118416   -6.2415252    1446.8335  0.024176751  0.022620459         3934 
 4988000   0.45559646   -6.2458998    1443.5542  0.024117118  0.022613591         3946 
 4989000   0.45433928   -6.2438101    1446.3091    0.0241583  0.022606724         3938 
 4990000   0.44408261   -6.2505755    1445.9641  0.024147697  0.022599854         3934 
 4991000    0.4450562   -6.2409685    1447.3458  0.024165929  0.022592993         3933 
 4992000   0.45342506   -6.2521288     1448.339  0.024177667  0.022586136         3925 
 4993000   0.45299877   -6.2292716    1444.2262  0.024104182  0.022579276         3933 
 4994000   0.45247094    -6.235503    1444.7086  0.024107406  0.022572418         3916 
 4995000   0.44921908   -6.2461699    1443.0443  0.024074814  0.022565564         3940 
 4996000   0.44867511   -6.2487551    1443.0015   0.02406928  0.022558718         3935 
 4997000   0.45952534   -6.2310992    1444.7505  0.024093631   0.02255187         3939 
 4998000   0.45767784   -6.2246175    1444.3555  0.024082225  0.022545025         3950 
 4999000   0.44518765   -6.2223843    1445.3625  0.024094193  0.022538178         3898 
 5000000   0.44393034   -6.2220788    1444.6615  0.024077691  0.022531335         3932 
 5001000    0.4575842   -6.2439064    1446.0761  0.024096449  0.022524499         3948 
 5002000   0.44766337   -6.2337479    1446.7874  0.024103483   0.02251766         3938 
 5003000    0.4560032   -6.2335868    1443.5229  0.024044288  0.022510827         3943 
 5004000   0.45249255   -6.2415375    1442.8213    0.0240278  0.022503996         3933 
 5005000   0.45151556   -6.2533074    1444.8312  0.024056464  0.022497169         3918 
 5006000   0.44956736   -6.2460692    1446.7082  0.024082904  0.022490344         3943 
 5007000   0.45098721   -6.2361857     1445.778  0.024062613  0.022483514         3936 
 5008000   0.44964187   -6.2379676    1444.7795  0.024041193  0.022476685         3945 
 5009000   0.45839662   -6.2500166    1444.6972  0.024035024   0.02246986         3948 
 5010000   0.44798986    -6.234937    1442.7588  0.023997984  0.022463039         3955 
 5011000   0.44459398   -6.2336096    1444.5224  0.024022524  0.022456223         3928 
 5012000   0.45522022   -6.2366393    1443.6401  0.024003061   0.02244941         3934 
Loop time of 12707.3 on 48 procs for 5000000 steps with 4000 atoms

Performance: 67992.597 tau/day, 393.476 timesteps/s
99.4% CPU use with 48 MPI tasks x no OpenMP threads

MPI task timing breakdown:
Section |  min time  |  avg time  |  max time  |%varavg| %total
---------------------------------------------------------------
Pair    | 894.81     | 961.91     | 1036.2     | 110.1 |  7.57
Neigh   | 87.135     | 90.354     | 94.624     |  19.9 |  0.71
Comm    | 804.95     | 884.21     | 962.48     | 121.0 |  6.96
Output  | 15.349     | 15.353     | 15.44      |   0.3 |  0.12
Modify  | 10618      | 10641      | 10666      |  11.3 | 83.74
Other   |            | 114.7      |            |       |  0.90

Nlocal:        83.3333 ave          88 max          79 min
Histogram: 3 6 4 7 5 6 4 7 4 2
Nghost:        2390.54 ave        2408 max        2377 min
Histogram: 4 6 8 4 7 5 6 4 3 1
Neighs:        16453.9 ave       18903 max       14719 min
Histogram: 9 4 6 3 5 10 2 5 1 3
FullNghs:      32906.1 ave       35479 max       30893 min
Histogram: 6 4 4 10 4 4 6 7 2 1

Total # of neighbors = 1579495
Ave neighs/atom = 394.87375
Neighbor list builds = 268861
Dangerous builds = 0

#clear
#
#next RN
#
#jump SELF
Total wall time: 3:31:51
