
units lj                  # Use reduced LJ style units
atom_style atomic         # Uncharged point particles
atom_modify map hash      # Needed for indexing of clusters etc
                          # Used to be able to find where atoms are in relation to each other.

lattice fcc 1.0 spacing 1 1 1
Lattice spacing in x,y,z = 1.5874011 1.5874011 1.5874011
region box block 0 10 0 10 0 10 units lattice
create_box 2 box
Created orthogonal box = (0.0000000 0.0000000 0.0000000) to (15.874011 15.874011 15.874011)
  3 by 4 by 4 MPI processor grid
create_atoms 1 box
Created 4000 atoms
  using lattice units in orthogonal box = (0.0000000 0.0000000 0.0000000) to (15.874011 15.874011 15.874011)
  create_atoms CPU = 0.004 seconds
set type 1 type/fraction 2 0.22 78393
Setting atom values ...
  910 settings made for type/fraction
mass 1 1.0
mass 2 1.0
pair_style lj/cut  3.5
pair_modify tail  yes
pair_coeff 1  1  1.0  1.0   # Intearaction between 1 and 1 set with epsilon = 1 and sigma = 1
pair_coeff 1  2  1.5  0.8
pair_coeff 2  2  0.5  0.88

write_data data.0
System init for write_data ...
Neighbor list info ...
  update every 1 steps, delay 10 steps, check yes
  max neighbors/atom: 2000, page size: 100000
  master list distance cutoff = 3.8
  ghost atom cutoff = 3.8
  binsize = 1.9, bins = 9 9 9
  1 neighbor lists, perpetual/occasional/extra = 1 0 0
  (1) pair lj/cut, perpetual
      attributes: half, newton on
      pair build: half/bin/atomonly/newton
      stencil: half/bin/3d
      bin: standard
WARNING: Not all mixed pair coeffs generated from mixing. Use write_data with 'pair ij' option to store all pair coeffs. (../write_data.cpp:312)


#############################
#   M E L T   S Y S T E M   #
#############################

velocity all create 2.4 9622624 mom yes dist gaussian # Assign velocities
                                                    # Temperature 2.4, random number seed, zero linear momentum
                                                                                # Gaussian distribution

timestep 0.002   # simulation timestep
thermo 1000       # output thermodynamic data every 1000 steps bf 100

# Define a fix  in this case with index 1 applied to all
# particles in the simulation. This fix is for simulations
# in the anisotropic NPT ensemble. Note that we use the MTK
# correction.
fix 1 all npt temp 2.4 2.4 0.1 iso 5.68 5.68 0.5 mtk yes tchain 5 pchain 5 # Use NPT ensemble
                                                                         # Set temperature and pressure and damping
                                                                         # Numbers of thermostats in chain and in barostat
run 10000          # run for 10000 steps
Per MPI rank memory allocation (min/avg/max) = 3.642 | 3.644 | 3.648 Mbytes
Step Temp E_pair E_mol TotEng Press Volume 
       0          2.4   -6.9213593            0   -3.3222593   -3.6990896         4000 
    1000    2.4305552   -4.9106424            0    -1.265721    5.5620119    4397.5351 
    2000    2.3521078   -4.8419357            0    -1.314656    6.0594638     4386.725 
    3000    2.3994499   -4.8918351            0   -1.2935601    5.8947234    4376.2993 
    4000    2.3748965   -4.8650088            0   -1.3035547    5.7636907    4397.0556 
    5000     2.359651   -4.8538152            0   -1.3152236    5.3815546    4442.4142 
    6000     2.389346   -4.8185497            0   -1.2354267    5.7492617    4419.6832 
    7000    2.4174109   -4.9163021            0   -1.2910922    5.8266255    4369.5221 
    8000    2.3358887   -4.8830204            0   -1.3800633    5.4264809    4421.9354 
    9000    2.3801759   -4.9398593            0   -1.3704881     5.572777    4382.6811 
   10000    2.4130819   -4.8377685            0   -1.2190505    5.5144207    4441.5844 
Loop time of 2.31656 on 48 procs for 10000 steps with 4000 atoms

Performance: 745932.896 tau/day, 4316.741 timesteps/s
99.6% CPU use with 48 MPI tasks x no OpenMP threads

MPI task timing breakdown:
Section |  min time  |  avg time  |  max time  |%varavg| %total
---------------------------------------------------------------
Pair    | 0.98468    | 1.0617     | 1.141      |   3.3 | 45.83
Neigh   | 0.19808    | 0.206      | 0.22624    |   1.1 |  8.89
Comm    | 0.72171    | 0.79577    | 0.86563    |   4.2 | 34.35
Output  | 0.00024814 | 0.00025256 | 0.00033005 |   0.0 |  0.01
Modify  | 0.19782    | 0.2378     | 0.2636     |   4.1 | 10.27
Other   |            | 0.01503    |            |       |  0.65

Nlocal:        83.3333 ave          91 max          74 min
Histogram: 2 3 2 3 11 10 2 7 4 4
Nghost:        1531.58 ave        1558 max        1497 min
Histogram: 3 0 2 5 11 7 7 3 3 7
Neighs:        8588.75 ave        9729 max        7537 min
Histogram: 4 4 5 5 8 5 9 2 3 3

Total # of neighbors = 412260
Ave neighs/atom = 103.06500
Neighbor list builds = 902
Dangerous builds = 178

# Equilibrate just above the melting temperature to avoid step fn in T

fix 1 all npt temp 1.25 1.25 0.1 iso 5.68 5.68 0.5 mtk yes tchain 5 pchain 5
run 2000
Per MPI rank memory allocation (min/avg/max) = 3.643 | 3.645 | 3.649 Mbytes
Step Temp E_pair E_mol TotEng Press Volume 
   10000    2.4130819   -4.8377685            0   -1.2190505    5.5144207    4441.5844 
   11000    1.2528398   -6.5949335            0   -4.7161436    5.6497771    3592.7223 
   12000    1.2685254   -6.5915021            0   -4.6891897    5.5579663    3602.2731 
Loop time of 0.512114 on 48 procs for 2000 steps with 4000 atoms

Performance: 674849.958 tau/day, 3905.382 timesteps/s
99.6% CPU use with 48 MPI tasks x no OpenMP threads

MPI task timing breakdown:
Section |  min time  |  avg time  |  max time  |%varavg| %total
---------------------------------------------------------------
Pair    | 0.2261     | 0.2527     | 0.27676    |   2.1 | 49.34
Neigh   | 0.032969   | 0.034737   | 0.037766   |   0.6 |  6.78
Comm    | 0.14292    | 0.17107    | 0.197      |   2.6 | 33.40
Output  | 5.2479e-05 | 5.4174e-05 | 6.9284e-05 |   0.0 |  0.01
Modify  | 0.041406   | 0.048894   | 0.055229   |   1.6 |  9.55
Other   |            | 0.004661   |            |       |  0.91

Nlocal:        83.3333 ave          92 max          77 min
Histogram: 5 6 4 6 10 4 5 4 1 3
Nghost:        1768.17 ave        1793 max        1737 min
Histogram: 2 3 3 6 7 3 8 6 8 2
Neighs:        10612.0 ave       11929 max        9682 min
Histogram: 6 8 4 8 5 5 3 2 3 4

Total # of neighbors = 509378
Ave neighs/atom = 127.34450
Neighbor list builds = 141
Dangerous builds = 13

#############################
# L I N E A R  Q U E N C H  #
#############################

# Define solid atoms. This closely follows ten Wolde  Ruiz-Montero and Frenkel  Faraday Discuss  1996  104  93-110
# Compute components of the per-atom q6 vector
compute q6 all orientorder/atom degrees 1 6 components 6 nnn NULL cutoff 1.3 # compute the Q6 parameter.
                                                                             # Use all neighbours within 1.3 unit cell.

# get number of connections
compute coord_number all coord/atom orientorder q6 0.5

# An atom is solid if it has 8 or more connections (of a possible 14)
variable is_solid atom c_coord_number>=8
group solid dynamic all var is_solid    # Must be dynamic to update
dynamic group solid defined

# do clustering
compute cluster solid cluster/atom 1.3 # Create a cluster where all atoms within are solid and max 1.3 units from another member

# define chunks one chunk per cluster
compute clus_chunks solid chunk/atom c_cluster nchunk every compress yes  # Says which atoms are in which chunk

# count the size of each chunk
compute size_chunks solid property/chunk clus_chunks count


# Find the maximum entry in the vector of chunk sizes
variable max_n equal max(c_size_chunks)


# Thermo style which includes this variable
# thermo_style custom step temp pe vol v_max_n

thermo ${N}  # Print the thermo information every 100 steps
thermo 1000  

# Reset the npt fix at a lower temperature (below freezing)
fix 1  all npt temp  ${temp} ${temp}  0.1  iso  5.68  5.68  0.5  mtk yes tchain  5  pchain  5
fix 1  all npt temp  0.45 ${temp}  0.1  iso  5.68  5.68  0.5  mtk yes tchain  5  pchain  5
fix 1  all npt temp  0.45 0.45  0.1  iso  5.68  5.68  0.5  mtk yes tchain  5  pchain  5

dump dmp2 all dcd ${N} traj.dcd
dump dmp2 all dcd 1000 traj.dcd


compute msd all msd com yes
variable twopoint equal c_msd[4]/6/(step*dt+1.0e-6)
fix 9 all vector 10 c_msd[4]
variable fit equal slope(f_9)/6/(10*dt)
thermo_style custom step temp pe c_msd[4] v_twopoint v_fit v_max_n

fix 1 all npt temp 1.25 ${temp} 0.1 iso 5.68 5.68 0.5 mtk yes tchain 5 pchain 5
fix 1 all npt temp 1.25 0.45 0.1 iso 5.68 5.68 0.5 mtk yes tchain 5 pchain 5
run 500000 # 5000000  # Run for this many steps
Neighbor list info ...
  update every 1 steps, delay 10 steps, check yes
  max neighbors/atom: 2000, page size: 100000
  master list distance cutoff = 3.8
  ghost atom cutoff = 3.8
  binsize = 1.9, bins = 9 9 9
  4 neighbor lists, perpetual/occasional/extra = 1 3 0
  (1) pair lj/cut, perpetual
      attributes: half, newton on
      pair build: half/bin/atomonly/newton
      stencil: half/bin/3d
      bin: standard
  (2) compute orientorder/atom, occasional
      attributes: full, newton on
      pair build: full/bin/atomonly
      stencil: full/bin/3d
      bin: standard
  (3) compute coord/atom, occasional
      attributes: full, newton on
      pair build: full/bin/atomonly
      stencil: full/bin/3d
      bin: standard
  (4) compute cluster/atom, occasional
      attributes: full, newton on
      pair build: full/bin/atomonly
      stencil: full/bin/3d
      bin: standard
Per MPI rank memory allocation (min/avg/max) = 9.779 | 9.785 | 9.790 Mbytes
Step Temp PotEng c_msd[4] v_twopoint v_fit v_max_n 
   12000    1.2685254   -6.5915021 2.2131493e-30 1.5369092e-32 8.3333333e+20            1 
   13000    1.2331731   -6.6518142   0.54369631 0.0034852326  0.044747442            2 
   14000    1.2621768   -6.6236021    1.0633844  0.006329669    0.0437446            2 
   15000    1.2509824   -6.6203174    1.5851453 0.0088063626  0.043815536            1 
   16000      1.23935   -6.6161462    2.1012839  0.010944187  0.043539614            2 
   17000    1.2105835   -6.6458164     2.644467  0.012963073  0.043663913            1 
   18000    1.2306619   -6.6062224    3.1514772  0.014590172  0.043450901            2 
   19000    1.2510824   -6.6590699    3.6533126  0.016023301  0.043406729            2 
   20000    1.2397718   -6.6428731    4.2141302  0.017558875  0.043547222            1 
   21000    1.2517512   -6.6179908    4.6657014  0.018514688  0.043377099            2 
   22000    1.2317756   -6.6740673    5.1855021  0.019642053  0.043180978            1 
   23000    1.2334205    -6.654946    5.8214172  0.021092091  0.043305959            2 
   24000    1.2180042    -6.675339    6.2543096  0.021716352   0.04340808            3 
   25000    1.2345167   -6.6482669    6.7052031  0.022350677  0.043266466            1 
   26000    1.2286028   -6.6356557    7.2453564  0.023222296   0.04309413            1 
   27000    1.2398637   -6.6825022    7.7117205  0.023801606  0.042980782            2 
   28000     1.212397   -6.6764313     8.188631  0.024370925  0.042833959            1 
   29000    1.2476067   -6.6866011    8.5957961  0.024700563  0.042585769            5 
   30000    1.2301455   -6.6681576    9.1155236  0.025320898  0.042385237            2 
   31000    1.2030045   -6.6975534    9.5625203  0.025705699  0.042228519            1 
   32000    1.2281758   -6.6957025    10.008254  0.026063162  0.041977363            2 
   33000    1.2315326   -6.6371805    10.500642  0.026516773  0.041749423            2 
   34000    1.2098445   -6.7342815    11.056671  0.027099685  0.041652857            2 
   35000    1.2316802   -6.7053937    11.612835  0.027649608  0.041617698            2 
   36000    1.2015945   -6.6757108    12.012681  0.027807132  0.041533393            1 
   37000    1.1959161     -6.71551    12.458595  0.028059898  0.041444192            2 
   38000    1.2314656   -6.7068789    13.031676  0.028578235  0.041384583            1 
   39000    1.2167511   -6.7273612    13.499055  0.028844134  0.041366571            2 
   40000    1.2323596   -6.7043552    13.970262  0.029104713  0.041336834            1 
   41000    1.2122939   -6.7100841    14.361424  0.029189885  0.041250288            2 
   42000    1.2138707   -6.7105964     14.75634  0.029278452   0.04112327            2 
   43000     1.209871   -6.7279683    15.358041  0.029763644  0.041016199            2 
   44000    1.2181393   -6.7449274    15.872108  0.030060811  0.040971022            1 
   45000      1.19464   -6.7106559    16.383558  0.030339921  0.040938435            3 
   46000     1.186295   -6.7390492    16.774229  0.030388095  0.040893172            2 
   47000    1.1753998   -6.7202836    17.129441  0.030371349  0.040804704            2 
   48000     1.186595   -6.7368324    17.604372  0.030563146  0.040691878            1 
   49000     1.200953   -6.7076969    18.178742  0.030916227  0.040583855            2 
   50000    1.2130117   -6.7556071    18.514271  0.030857119  0.040514014            2 
   51000    1.1968937   -6.7471451    18.857568  0.030813019  0.040422771            1 
   52000    1.1624722   -6.7590556    19.321161  0.030963399  0.040311703            3 
   53000    1.1865466   -6.7303683     19.73968  0.031037232  0.040200538            1 
   54000    1.1821749   -6.7591445     20.17651   0.03113659  0.040100451            1 
   55000    1.1785178   -6.7681442    20.579944  0.031181734  0.040002854            1 
   56000    1.1874528   -6.7806495    21.013161  0.031269585  0.039894269            1 
   57000    1.1899074   -6.7612117    21.662474  0.031670283  0.039816969            2 
   58000    1.1892309    -6.758415    22.015897  0.031632036  0.039754129            3 
   59000     1.195038   -6.7458686    22.393532  0.031629282  0.039677555            2 
   60000    1.1929752   -6.8000961     22.67743   0.03149643  0.039578837            1 
   61000    1.1639035   -6.7395689    23.254256  0.031768109  0.039475282            3 
   62000     1.164907   -6.7817221    23.478992  0.031557785  0.039374753            1 
   63000    1.1692998   -6.8113469      23.9617   0.03169537  0.039250358            2 
   64000    1.1803585   -6.7790893    24.244028  0.031567744  0.039125925            3 
   65000    1.1195402   -6.8191556    24.603027  0.031542342  0.038993902            1 
   66000    1.1679927   -6.7438794    24.966664  0.031523566  0.038863794            2 
   67000    1.1620551   -6.7856461    25.301327  0.031469312  0.038725182            3 
   68000    1.1762371   -6.7814024    25.443924  0.031181279  0.038563597            2 
   69000    1.1345412   -6.8159496    25.699925  0.031038557  0.038376805            1 
   70000    1.1864396   -6.7892991    26.237162  0.031234717  0.038204038            1 
   71000    1.1620239   -6.8261104    26.455992  0.031051633  0.038038839            1 
   72000    1.1673591   -6.7852255    26.905606  0.031140747  0.037866331            2 
   73000    1.1576852   -6.8156921    27.219759  0.031072784  0.037705422            2 
   74000      1.15395   -6.8410508    27.603964  0.031085545  0.037548892            2 
   75000    1.1237419   -6.8216893    27.993131  0.031103479  0.037395231            2 
   76000    1.1596447   -6.8295263    28.443473  0.031188018  0.037252863            2 
   77000    1.1551814   -6.8414986    28.814957  0.031185018  0.037122952            2 
   78000    1.1259011   -6.8589495    29.228637  0.031227176  0.036997265            2 
   79000    1.1514601   -6.8200139    29.626043    0.0312511  0.036873053            2 
   80000    1.1501254   -6.8652362     29.85937   0.03110351  0.036736756            1 
   81000     1.152019   -6.8422025    30.312085  0.031185272  0.036611269            2 
   82000    1.1459618    -6.846902    30.835696  0.031337089  0.036499834            2 
   83000    1.1355831   -6.8836009    31.066938  0.031191705  0.036395154            2 
   84000    1.1487372   -6.8508154    31.560345  0.031309866  0.036293902            2 
   85000    1.1373266   -6.8746524    31.863184  0.031238415  0.036187174            3 
   86000      1.11734   -6.8304774    32.043071  0.031049488  0.036077792            2 
   87000    1.1141937   -6.8598615    32.388094  0.031023078  0.035964832            2 
   88000    1.1287521   -6.8467386     32.73468   0.03099875  0.035843054            3 
   89000    1.1318463   -6.8519856    33.058468  0.030953622  0.035728285            1 
   90000    1.1270603   -6.8259936    33.564591  0.031078325  0.035616894            3 
   91000    1.1227142   -6.8641876    33.860063  0.031007383  0.035515646            2 
   92000    1.1197322   -6.8908066    34.340226  0.031105277  0.035422571            4 
   93000    1.1200676   -6.8885609     34.84952  0.031227168  0.035343563            1 
   94000    1.1283572   -6.9066322    35.166557  0.031176025  0.035261882            1 
   95000    1.0986095   -6.8898567    35.467382  0.031111738  0.035184693            1 
   96000    1.1303781   -6.8871679    35.975495  0.031228728  0.035108795            1 
   97000    1.1213039   -6.8616947    36.253123  0.031145294  0.035027711            1 
   98000     1.125356   -6.8770984    36.616313   0.03113632  0.034951136            2 
   99000    1.1046559    -6.835926      36.9431  0.031096885  0.034876814            1 
  100000     1.092152   -6.8729161    37.437804   0.03119817  0.034802031            1 
  101000    1.1075374   -6.9000269    37.846955  0.031226861  0.034731957            1 
  102000    1.0778808   -6.9105991    37.904835  0.030968002  0.034656504            2 
  103000    1.1066644   -6.9231545    38.362669  0.031037758  0.034581783            2 
  104000    1.1120509   -6.9275882    38.804976  0.031093731  0.034515741            2 
  105000    1.0943474    -6.910378     39.28708  0.031180222  0.034454904            2 
  106000    1.1214329   -6.8826037    39.589342  0.031123696  0.034395119            1 
  107000    1.1289036   -6.9435317    39.857003  0.031041279  0.034335463            3 
  108000    1.1044606   -6.9192609    40.032761  0.030889476  0.034268762            3 
  109000    1.1070515   -6.9204823    40.481128  0.030948874  0.034201032            2 
  110000    1.0921097   -6.9160164    40.837423  0.030937441  0.034134462            5 
  111000    1.0790988   -6.9159932     41.10136  0.030856877  0.034065842            1 
  112000    1.1126747   -6.9323558    41.357543  0.030771981  0.033992589            2 
  113000     1.070638    -6.927442    41.518966  0.030618706  0.033920358            1 
  114000    1.0853353   -6.9392663    41.856299   0.03059671  0.033846401            2 
  115000    1.0751638   -6.9593106    42.405026   0.03072828  0.033770068            1 
  116000    1.0745563    -6.980055    42.621352  0.030618787  0.033700293            4 
  117000    1.0840846   -6.9606785    42.922681   0.03057171  0.033632832            1 
  118000    1.0717918   -6.9983774    43.345352  0.030611124  0.033565469            3 
  119000    1.0728683   -6.9495623    43.740125   0.03063034  0.033499514            5 
  120000    1.1040175   -6.9655329    43.884764  0.030475531  0.033431846            5 
  121000    1.0894974   -6.9654539    44.395478  0.030575398  0.033367777            2 
  122000     1.048048   -7.0108534    44.662216  0.030506978  0.033302565            3 
  123000    1.0896882   -6.9656334    44.959302  0.030460232  0.033235078            4 
  124000    1.0657589   -7.0239909    45.104369  0.030312076  0.033165735            2 
  125000    1.0539847   -6.9766979    45.454773  0.030303182  0.033095304            1 
  126000    1.0603944   -6.9722211    45.778778  0.030276969  0.033024658            3 
  127000    1.0933495   -6.9353061    46.062328  0.030224625  0.032955867            2 
  128000    1.0639401    -7.020267    46.352367  0.030177322  0.032884449            2 
  129000    1.0686903   -7.0204944     46.56444  0.030080388  0.032814575            1 
  130000    1.0773897   -6.9913901    47.121035  0.030205791   0.03274942            2 
  131000    1.0679213   -7.0167429    47.576469  0.030264929  0.032686799            3 
  132000    1.0797319   -6.9701494    47.755572   0.03014872  0.032622739            2 
  133000    1.0699359   -7.0313923    48.038916  0.030099572  0.032559328            1 
  134000    1.0578954   -7.0119071    48.405958  0.030103208  0.032494627            2 
  135000    1.0692941   -7.0457917    48.490196  0.029932219  0.032426124            3 
  136000    1.0482489   -7.0229422    48.858902  0.029938052  0.032358306            3 
  137000     1.065252    -7.037543    49.173068  0.029910625  0.032292373            2 
  138000    1.0532527   -7.0326803    49.444201  0.029857609  0.032225429            3 
  139000    1.0452083    -7.027133    49.655081  0.029769233  0.032159398            3 
  140000    1.0633406   -7.0289572    49.830133  0.029660793   0.03209335            3 
  141000    1.0433917   -7.0240797    50.195057  0.029666109  0.032024959            3 
  142000    1.0537472   -7.0632567    50.480729  0.029624841    0.0319569            2 
  143000    1.0482802   -7.0611284     50.68734  0.029538077  0.031889402            3 
  144000    1.0446205   -7.0630251    51.157607  0.029605096  0.031823282            2 
  145000    1.0435115      -7.0819    51.441805  0.029564256  0.031758509            2 
  146000     1.031913   -7.0663625    51.528541  0.029411268  0.031694504            3 
  147000    1.0478253   -7.0209734    51.902951  0.029423442  0.031626762            3 
  148000    1.0540514   -7.0712411     51.89911  0.029222471  0.031556941            1 
  149000    1.0266928   -7.0501764    52.200746  0.029195048  0.031483343            2 
  150000    1.0231649    -7.081026    52.365088  0.029091715  0.031406346            3 
  151000    1.0301372   -7.0536749    52.651645  0.029057199  0.031330492            2 
  152000     1.034405   -7.0774748    52.918684  0.029012436  0.031254754            2 
  153000    1.0537381   -7.1135137     52.94052  0.028834706  0.031176616            2 
  154000    1.0127951   -7.0804891    53.209329  0.028792927   0.03109967            3 
  155000    1.0133682   -7.0928501    53.539085  0.028784454  0.031021172            1 
  156000    1.0084913   -7.0811439    53.908908  0.028797493  0.030946149            1 
  157000    1.0089393   -7.0771328    54.137237  0.028735263  0.030872472            2 
  158000    1.0055785   -7.0928947    54.294279  0.028636223  0.030795564            5 
  159000    1.0003485   -7.1042004    54.510178  0.028569276   0.03072066            4 
  160000    1.0119729   -7.1012455    54.872236  0.028579289  0.030647193            3 
  161000     1.008745   -7.1174482    55.261823  0.028603428  0.030573973            1 
  162000    1.0187485   -7.1204534    55.384399  0.028489917  0.030502341            3 
  163000    1.0326804   -7.1276434    55.800496  0.028527861   0.03043197            3 
  164000   0.99684298   -7.1116642     55.83245  0.028370147  0.030361745            2 
  165000     1.018594   -7.1277481    56.112672  0.028339733  0.030289617            1 
  166000     1.000568    -7.107441     56.31223  0.028269192  0.030216917            3 
  167000     0.981837   -7.1369482     56.34713   0.02811733  0.030142446            6 
  168000   0.99270537   -7.1787871    56.606757  0.028078748  0.030067952            2 
  169000     0.996843   -7.1528346    57.020653  0.028116693  0.029994208            7 
  170000   0.99350657   -7.1142597    57.214653  0.028046398  0.029919686            1 
  171000    1.0061259    -7.137153    57.345943  0.027946366  0.029846839            3 
  172000    1.0030232   -7.1315461    57.665987  0.027938947   0.02977306            4 
  173000   0.98696387    -7.121662    57.844796  0.027863582  0.029699886            2 
  174000    1.0050792   -7.1437293    58.123369  0.027836862    0.0296272            5 
  175000    1.0022382   -7.1244608    58.440789  0.027828947  0.029557728            4 
  176000   0.98221589   -7.1407512    58.725403  0.027805589   0.02948872            2 
  177000   0.97339616   -7.1749872    58.834929   0.02770006  0.029418818            4 
  178000   0.96980414   -7.1583343    59.052478  0.027646291  0.029350319            3 
  179000   0.99461307   -7.1618656    59.305142   0.02760947  0.029280088            2 
  180000   0.98315158   -7.1281431    59.433908  0.027515698  0.029208212            2 
  181000   0.98861627   -7.1559003    59.705739   0.02748883  0.029135798            2 
  182000   0.96465365   -7.1615387    59.942319  0.027446117  0.029065434            2 
  183000   0.98444847   -7.2209944    60.051466  0.027345841  0.028995441            3 
  184000    1.0109387    -7.234054    60.113044   0.02722511    0.0289245            3 
  185000   0.97719985   -7.2037393    60.454695  0.027231844  0.028851258            1 
  186000   0.96357765   -7.2065041    60.496493  0.027104164  0.028778117            1 
  187000   0.96240367   -7.1946338    60.629093  0.027018312  0.028703412            5 
  188000   0.97385753   -7.1976767    60.740124  0.026923814   0.02862853            2 
  189000    0.9714617   -7.1776563    61.233251  0.026998788  0.028554457            2 
  190000   0.97700498   -7.2128363    61.205089  0.026844337   0.02848142            2 
  191000   0.95182712   -7.2066839    61.293868  0.026742525  0.028407896            3 
  192000   0.99150104   -7.2215418    61.587166  0.026730541  0.028333866            3 
  193000   0.95295669   -7.1895066    61.771013  0.026671422  0.028258986            2 
  194000    0.9608341   -7.2207952    61.615369  0.026467083  0.028182748            3 
  195000   0.95037359   -7.2237636    61.893096  0.026450041  0.028106373            2 
  196000   0.95437921   -7.2074636    62.142478  0.026421122  0.028029944            1 
  197000   0.94239119   -7.2495194    62.286456  0.026347908  0.027954353            4 
  198000   0.94679334   -7.2543793    62.281237  0.026212642  0.027876418            2 
  199000   0.96347862   -7.2666693    62.376121  0.026120653    0.0277982            4 
  200000   0.94750068   -7.2532073    62.643261  0.026101359  0.027721095            3 
  201000   0.93703003   -7.2781674    63.004153  0.026121125  0.027644487            3 
  202000   0.94970849   -7.2265157    62.990894  0.025986342  0.027568705            2 
  203000   0.95734822    -7.249706    63.413607  0.026031858  0.027493796            1 
  204000   0.94757856   -7.2889509    63.459551  0.025923019  0.027418881            1 
  205000   0.95024701   -7.2670693    63.700404  0.025894473  0.027344428            3 
  206000    0.9585033   -7.2684771    63.804774  0.025810993  0.027270712            3 
  207000   0.90671578   -7.2587456    63.893634  0.025722075  0.027197286            3 
  208000   0.94589179   -7.2861514    63.959913  0.025624965  0.027121996            2 
  209000   0.94075719   -7.2576481    64.355748  0.025660187  0.027046758            5 
  210000   0.92804302   -7.2959328    64.509828  0.025599138   0.02697272            2 
  211000   0.91982378   -7.2838673    64.524853  0.025483749  0.026898415            2 
  212000   0.92860598   -7.2542909    64.717824  0.025439396  0.026824133            2 
  213000   0.93553957    -7.304064    65.012236  0.025435147  0.026751766            1 
  214000   0.91481478   -7.2832153    65.330617  0.025440271  0.026679792            2 
  215000   0.93661306   -7.2771925    65.505637  0.025389782  0.026609439            2 
  216000   0.92235229   -7.2660931    65.938883  0.025439384  0.026538954            2 
  217000   0.92343425   -7.2875083    65.771477  0.025257864  0.026469072            4 
  218000   0.94206862   -7.3071434    65.827142   0.02516328  0.026397156            3 
  219000   0.94201126   -7.2646277    66.099848  0.025152149  0.026325336            3 
  220000   0.91765553   -7.2919776    66.116435  0.025044104   0.02625419            2 
  221000   0.92253653   -7.3340949    66.193758  0.024959939  0.026182586            1 
  222000   0.90446749   -7.3076338    66.350483  0.024906337  0.026110241            4 
  223000   0.92722651   -7.3293808    66.475964  0.024841541  0.026036772            3 
  224000   0.92027969   -7.3389032    66.461583  0.024725291  0.025963654            3 
  225000   0.91107579    -7.340497    66.572259  0.024656392  0.025890862            3 
  226000   0.90667477   -7.3230467    66.943647  0.024684235  0.025818723            6 
  227000   0.88640151   -7.3277053    67.016942  0.024602402  0.025747701            4 
  228000   0.91249386   -7.3559184    67.159935   0.02454676   0.02567553            5 
  229000   0.89839723   -7.3728542    67.263936  0.024477415  0.025602756            2 
  230000   0.88737571   -7.3679457    67.287831  0.024379649   0.02553146            3 
  231000   0.92225662   -7.3526025    67.627687  0.024396712   0.02546084            3 
  232000   0.91332741   -7.3449745    67.753045  0.024336582  0.025390121            2 
  233000   0.90780885   -7.3684049    67.819694  0.024255971  0.025319301            2 
  234000   0.88749338   -7.3370253    68.171988  0.024277774  0.025248721            2 
  235000   0.87946482   -7.3850899    68.231784  0.024195668  0.025179394            3 
  236000    0.8882835   -7.3546885     68.36866  0.024141476  0.025110088            2 
  237000   0.89744404   -7.3603406    68.583198  0.024115049   0.02504177            4 
  238000   0.89146155   -7.3842384    68.687156  0.024050124  0.024973128            1 
  239000    0.8810061   -7.4012781    68.768389   0.02397782  0.024903909            2 
  240000    0.9053561   -7.3752146    68.986039  0.023953486  0.024836087            2 
  241000   0.86909769   -7.4182453    68.983645  0.023853266  0.024767972            3 
  242000   0.88059736   -7.3906453    69.252672  0.023847339  0.024700399            2 
  243000   0.86799513   -7.3794948    69.214683  0.023736174  0.024633481            7 
  244000   0.87021727   -7.3607074    69.644461  0.023785677  0.024567212            2 
  245000   0.87374688   -7.4061196    69.606988  0.023675846  0.024501325            2 
  246000   0.88228068   -7.3715364    69.630059  0.023587418  0.024435259            4 
  247000   0.86947309   -7.4089821    69.859996  0.023569499  0.024369808            4 
  248000   0.86697455   -7.3950915    70.200197  0.023588776  0.024305427            3 
  249000   0.87076051   -7.4051904     70.50411  0.023595753  0.024241283            4 
  250000   0.87349757   -7.4144424    70.278635  0.023426212  0.024177348            3 
  251000   0.88083273   -7.4129943    70.590642  0.023436468   0.02411456            1 
  252000   0.86509767   -7.3889358    70.755049  0.023397834  0.024051141            3 
  253000   0.85986512   -7.4238707    71.045491  0.023401018  0.023987699            2 
  254000   0.86317398   -7.4330999    71.020085  0.023300553  0.023924646            2 
  255000   0.86135519   -7.4441123    71.222759  0.023275411  0.023861796            4 
  256000   0.87961204   -7.4498363    71.221258  0.023184003   0.02379882            3 
  257000    0.8583848   -7.4715345    71.064775  0.023043053  0.023735078            3 
  258000   0.84319209   -7.3912126    71.356263  0.023047889  0.023671915            3 
  259000   0.87014573   -7.4602925    71.322892  0.022948163  0.023608727            5 
  260000   0.85509645   -7.4593951    71.363761     0.022873  0.023545094            8 
  261000   0.84838802   -7.4758373    71.553357  0.022845899  0.023481228            6 
  262000   0.84166418     -7.47053    71.519894  0.022748058  0.023417569            3 
  263000     0.847718   -7.4832081    71.501239  0.022655652  0.023353183            5 
  264000   0.84504654   -7.4579212    71.909739  0.022698781  0.023288921            3 
  265000   0.84318293   -7.5120065     71.91382  0.022614409  0.023224431            2 
  266000   0.83271804   -7.4567593     72.14044  0.022600389  0.023161166            3 
  267000   0.85860703   -7.5090463    72.269932  0.022556158  0.023098128            4 
  268000   0.84358471   -7.4813684    72.222376  0.022457207  0.023034787            5 
  269000   0.83743033   -7.4811743     72.56819  0.022480852  0.022972184            3 
  270000   0.83577023   -7.4931029    72.586814  0.022403338  0.022909917            3 
  271000   0.83976238   -7.4901479     72.56045  0.022312562  0.022847313            3 
  272000   0.83226987   -7.4974321    72.777946  0.022297165  0.022784697            3 
  273000   0.82387674   -7.4836276    72.903196  0.022253723  0.022722611            4 
  274000   0.84069012   -7.4835353    72.740214  0.022122936  0.022660617            4 
  275000   0.82265979   -7.5143071    72.987892  0.022117543   0.02259799            3 
  276000   0.84384715   -7.4949769     73.11235  0.022074985  0.022535317            6 
  277000   0.82981689   -7.4982868    73.208245  0.022024141  0.022472982            3 
  278000   0.83797627   -7.5613124    72.987554  0.021878763  0.022410622            2 
  279000    0.8260177     -7.52275    73.094789  0.021832374  0.022347989            5 
  280000   0.81315383   -7.5432043    73.080415  0.021750123  0.022284464            6 
  281000    0.8127652   -7.5369521    73.094139  0.021676791  0.022220468            5 
  282000   0.83689027    -7.557144    73.057047  0.021588962  0.022156516            8 
  283000   0.79727688   -7.5161304    73.264851  0.021573867  0.022093522            6 
  284000   0.82580193   -7.5199177    73.508739  0.021569466  0.022030428            1 
  285000    0.8143972   -7.5128578    73.488578  0.021487888  0.021967356            3 
  286000   0.81132114    -7.549407    73.562493  0.021434293  0.021904417            2 
  287000   0.79763414   -7.5378167    73.486473  0.021337536  0.021840937            2 
  288000   0.82449095    -7.564265    73.460169  0.021255836  0.021777424            2 
  289000   0.79065964   -7.5636441    73.744902  0.021264389  0.021714071            3 
  290000   0.79899864   -7.5878921    73.705564   0.02117976  0.021650976            3 
  291000   0.80102498   -7.6093473    73.855194  0.021149826  0.021588267            3 
  292000     0.802161   -7.5867496    73.879386    0.0210843  0.021525255            4 
  293000   0.78975429   -7.5682444    73.904505  0.021019484  0.021462491            3 
  294000   0.81356935   -7.5825962    73.904828  0.020948081  0.021399464            4 
  295000    0.8009764   -7.6047816    73.848159  0.020861062  0.021336625            6 
  296000   0.80137708   -7.6149677    73.864117  0.020795078  0.021273355            4 
  297000   0.79429751   -7.6152868    74.091292  0.020788802  0.021210146            3 
  298000   0.79837063    -7.594686    74.350851  0.020791625  0.021147423            5 
  299000   0.80189864   -7.5893959    74.171008  0.020671964  0.021084655            2 
  300000   0.76759023   -7.6081281    74.330219  0.020647283  0.021021889            3 
  301000   0.78570968   -7.5974722     74.16931  0.020534139   0.02095927            3 
  302000   0.78598004   -7.6043942    74.399418  0.020529641  0.020896743            7 
  303000   0.78929148   -7.5876379    74.461316   0.02047891  0.020834991            2 
  304000   0.77654399    -7.583813    74.655598  0.020464802  0.020773674            2 
  305000   0.77788729   -7.6032226    74.616755  0.020387091  0.020712601            4 
  306000   0.78666005   -7.5874102    74.825188   0.02037723  0.020651413            5 
  307000   0.77870251   -7.5918262     74.60717  0.020251675  0.020590015            3 
  308000   0.76602475   -7.5905261    74.744657  0.020223122  0.020528911            3 
  309000   0.77699001   -7.6236797    74.615198  0.020122761  0.020467495            5 
  310000   0.76769986   -7.6458781    74.823498  0.020113844  0.020406296            3 
  311000   0.77312611    -7.624482     74.71077  0.020018963  0.020345337            4 
  312000   0.77026737   -7.6388085    75.053672  0.020046387  0.020284644            3 
  313000    0.7734059   -7.6400088     75.00651  0.019969784  0.020223813            6 
  314000   0.76049132   -7.6619719    75.019416  0.019909611   0.02016345            5 
  315000   0.75746223   -7.6544357    75.052146  0.019855065   0.02010303            4 
  316000   0.77101557   -7.6585097    75.272653  0.019850383  0.020043821            3 
  317000   0.76163732   -7.6593164     75.39229  0.019819214  0.019984898            3 
  318000   0.76206199   -7.6400628    75.608559  0.019813564  0.019926124            2 
  319000   0.76113016   -7.6755606    75.468913  0.019714972  0.019867567            3 
  320000   0.74349408    -7.656636    75.563357  0.019677957   0.01980917            2 
  321000   0.74735533   -7.6603427    75.582662  0.019621667  0.019751342            2 
  322000   0.75620897   -7.6896451    75.589806  0.019562579  0.019693143            3 
  323000   0.75106584   -7.6935472    75.497268  0.019478139  0.019634707            3 
  324000   0.76702353    -7.686508     75.63638  0.019453801  0.019576242            2 
  325000   0.74422287   -7.6700059    75.736052  0.019419501   0.01951818            5 
  326000   0.74887818   -7.7148191    75.696848   0.01934991  0.019460428            6 
  327000   0.74358693   -7.6962497    75.719519  0.019296513  0.019402643            4 
  328000   0.75667433   -7.6794569    75.982783  0.019304569  0.019345261            5 
  329000   0.71317695   -7.7302202    76.121485  0.019281024  0.019288097            4 
  330000    0.7287732   -7.6909367    76.076123  0.019211142  0.019230772            6 
  331000   0.72537596   -7.7232833    75.886352  0.019105325  0.019173721            4 
  332000   0.72002233   -7.7145921    75.932414  0.019059341  0.019116731            8 
  333000   0.72831246   -7.7235724    76.000173  0.019019062  0.019059674            4 
  334000   0.72867497   -7.7315928    76.065631  0.018978451  0.019002939            4 
  335000   0.72785394   -7.7043068    76.058169  0.018919942  0.018946395            4 
  336000   0.72600483   -7.7380473    76.188645  0.018895993  0.018889732            2 
  337000   0.74242613   -7.7406378    76.175378  0.018836641  0.018833219            2 
  338000    0.7298314   -7.7503067    76.071368  0.018755268  0.018776792            9 
  339000   0.73683994    -7.764201    76.090399  0.018704621  0.018720366            5 
  340000   0.72234433   -7.7778689    76.030389  0.018634899   0.01866345            4 
  341000   0.74059242   -7.7390259    76.122956  0.018602873  0.018606597            2 
  342000   0.71510649   -7.7520037    76.065571  0.018534496  0.018550208            4 
  343000   0.73102798   -7.7635337    76.236141    0.0185219  0.018494054            3 
  344000   0.70076356   -7.7798021    76.254467  0.018472497  0.018437808            5 
  345000    0.7360327     -7.75242    76.368004  0.018446378  0.018381679            3 
  346000   0.72309497   -7.7412193    76.360202  0.018391185  0.018325387            5 
  347000   0.72593828   -7.7482069    76.433186  0.018355712   0.01826948            4 
  348000   0.71888551   -7.7879234    76.238474  0.018256339  0.018213662            3 
  349000   0.69327852   -7.7944133    76.117928  0.018175245  0.018157731            2 
  350000   0.69877849   -7.7707325    76.349313  0.018178408  0.018101708            3 
  351000   0.71127171   -7.7918015    76.376455  0.018133062  0.018046181            6 
  352000    0.6867261   -7.7855106    76.344606  0.018074007  0.017990719            3 
  353000    0.7085472   -7.7972243    76.386904  0.018032791  0.017935305            4 
  354000   0.69466501   -7.7814857    76.314465  0.017964799  0.017879962            4 
  355000   0.70750116   -7.8088013    76.314424  0.017914184  0.017824846            8 
  356000   0.71159532   -7.7608604    76.618563  0.017935057   0.01776998            4 
  357000   0.69928106   -7.8220562    76.423962  0.017839394    0.0177152            6 
  358000   0.71051277   -7.8065951    76.585746  0.017827222  0.017660327            4 
  359000   0.69069646   -7.8279325    76.314285  0.017714551  0.017605611            5 
  360000   0.68917415    -7.826266    76.529124  0.017715075  0.017551058            6 
  361000   0.68441269   -7.8115675    76.476612  0.017653881  0.017496812            4 
  362000   0.70976182   -7.8374048    76.601247  0.017633804  0.017442608            5 
  363000   0.68483628   -7.8284681    76.430525  0.017546034  0.017388575            3 
  364000   0.68781371   -7.8250453    76.740936  0.017568896  0.017334844            7 
  365000   0.69431579   -7.8387982     76.62278  0.017493785  0.017281401            7 
  366000    0.6969655   -7.8411677    76.554595  0.017430463  0.017227959            4 
  367000   0.68472601    -7.867082    76.574003  0.017387376  0.017174569            5 
  368000   0.66875131   -7.8353688    76.671932  0.017362303   0.01712156            5 
  369000   0.67009772   -7.8540724    76.771087  0.017337644  0.017068884            5 
  370000   0.66591007   -7.8636896    76.702272  0.017275286  0.017016512            5 
  371000   0.66846576   -7.8688058       76.832  0.017257862  0.016963999            2 
  372000   0.66639072   -7.8755119    76.903586  0.017227506  0.016911923            8 
  373000   0.67349874   -7.8864192    76.903959  0.017181403  0.016859985            3 
  374000   0.67980767   -7.8822387    76.957803   0.01714746  0.016808265            7 
  375000   0.66568729   -7.9074691    76.991966  0.017109326  0.016756697           10 
  376000   0.67876095   -7.9311696    76.903732  0.017044267  0.016705315            2 
  377000   0.66244767   -7.8876303    77.114291  0.017045599  0.016654257            4 
  378000   0.66814732   -7.8910706    77.195957  0.017018509  0.016603453            5 
  379000   0.67452186   -7.9027448    77.015815  0.016933996  0.016552668            7 
  380000   0.66039576   -7.8925635    76.786307  0.016839102  0.016501725            3 
  381000   0.66818165   -7.8899616    77.044545  0.016851388  0.016450862           10 
  382000   0.66035673   -7.9215914    76.860788  0.016767187   0.01640018            4 
  383000   0.64248677    -7.922955    76.944209   0.01674156  0.016349576            4 
  384000   0.64847038   -7.9359211    77.017835   0.01671394  0.016299013            6 
  385000   0.64914411   -7.9308887    76.959145  0.016657824  0.016248545            6 
  386000   0.64158641    -7.933688    77.030532   0.01663008  0.016198283            5 
  387000   0.63982871   -7.9353305    77.029574  0.016586902  0.016148051            3 
  388000   0.65904481    -7.931488    77.031857  0.016544643  0.016097834            5 
  389000   0.63087021   -7.9330024    76.976674   0.01649029  0.016047691            5 
  390000   0.66749471   -7.9422966    76.964084  0.016445317   0.01599785            2 
  391000   0.64780129   -7.9153141    76.915686  0.016392943  0.015948155           10 
  392000   0.65334049   -7.9241942    77.061956  0.016382218  0.015898787            2 
  393000   0.63707273   -7.9401284    77.110656   0.01635086   0.01584949            7 
  394000   0.63577897   -7.9426095    76.897555  0.016264288  0.015800358            5 
  395000    0.6532999   -7.9625435    76.947172  0.016233581   0.01575122            6 
  396000   0.65035086   -7.9806923    76.974741  0.016198388  0.015702217            5 
  397000   0.63550507   -7.9447597    77.165451  0.016197618  0.015653384            3 
  398000   0.62718211   -7.9788919    76.919034  0.016105325  0.015604825            5 
  399000   0.62693371   -7.9834372    77.093547  0.016101409  0.015556436            4 
  400000   0.62501929   -7.9678326    76.974798  0.016036416  0.015508348            5 
  401000   0.62193628   -7.9618762    77.043231  0.016010646  0.015460234            5 
  402000   0.62645009   -7.9943515    76.998893  0.015961628  0.015412287            4 
  403000    0.6234133   -7.9608749    76.982568  0.015918645   0.01536436            3 
  404000   0.61190531   -7.9600324    76.903438   0.01586292  0.015316555            4 
  405000   0.62414529   -7.9794677    77.142266  0.015872894  0.015268869            4 
  406000   0.61426832   -7.9948624    77.000205   0.01580464  0.015221269            6 
  407000   0.60590276   -8.0081269    76.956892  0.015756939  0.015173612            4 
  408000   0.60492431   -8.0107934    77.003417  0.015727822  0.015126202            8 
  409000   0.61660354   -8.0103858    76.967447  0.015682039  0.015078947            4 
  410000   0.62912033   -8.0157413    76.950316  0.015640308  0.015031762            5 
  411000   0.60602058   -8.0236826    77.230759  0.015659116  0.014984959            4 
  412000   0.61568653   -7.9990291    77.087014  0.015592034  0.014938242            7 
  413000   0.61715292   -8.0122026    77.130051  0.015562964  0.014891768            2 
  414000   0.59628944   -7.9981947    77.044433  0.015508139  0.014845382            5 
  415000   0.61726644   -8.0296475    76.879201  0.015437591  0.014798994            8 
  416000   0.59802954   -8.0390968     76.88507  0.015401657  0.014752734            6 
  417000    0.5916456   -8.0423423    77.014101  0.015390508  0.014706717            3 
  418000   0.60025316   -8.0528742    77.052228   0.01536129  0.014660859            8 
  419000   0.60051652   -8.0451249    77.023297  0.015318874  0.014615016            3 
  420000   0.60054239   -8.0321033    76.956262    0.0152691  0.014569286            3 
  421000   0.59170519   -8.0503841     76.85999  0.015213775  0.014523741            5 
  422000   0.60967427   -8.0414286     76.91028  0.015187654  0.014478265            3 
  423000   0.59397792   -8.0538733    76.959668  0.015161479  0.014432845            5 
  424000   0.59356112   -8.0543893    77.066003   0.01514662  0.014387687            7 
  425000   0.58703689   -8.0609771    77.050257  0.015107893   0.01434261            4 
  426000   0.59704882   -8.0669948    76.780294  0.015019619  0.014297678            6 
  427000   0.57955339   -8.0559525    76.866498  0.015001268  0.014252668            4 
  428000   0.56990836    -8.063416    76.883813   0.01496959  0.014207962            4 
  429000     0.595808   -8.0751912    76.894445  0.014936761  0.014163291            5 
  430000   0.56248596   -8.0690619    76.824425  0.014888455   0.01411872            3 
  431000     0.574389   -8.0723362    76.703971  0.014830621  0.014074276            4 
  432000   0.57743097   -8.0735038    76.969851  0.014847579  0.014029999            6 
  433000   0.56883942   -8.0751641    76.832892  0.014786931  0.013985751            4 
  434000   0.58297929   -8.0721218    76.878898  0.014761693  0.013941744            9 
  435000   0.57370376   -8.0960074     76.81628  0.014715762  0.013897867            8 
  436000   0.57452924   -8.1048802    76.941641  0.014705971  0.013854164            8 
  437000   0.56321673   -8.0955498    76.939635  0.014671937  0.013810548            6 
  438000   0.57443326   -8.0835053    76.999996  0.014649923  0.013767103            5 
  439000   0.58037764      -8.0914    76.807811   0.01458007  0.013723853           10 
  440000   0.56374282   -8.1136476    76.850246  0.014554971  0.013680686            5 
  441000   0.56484949   -8.1061402     76.89608  0.014530627  0.013637604            5 
  442000   0.56930912   -8.1431255    76.834728  0.014486186  0.013594734            3 
  443000   0.56169851   -8.1150233    76.791251  0.014445307  0.013551889            4 
  444000   0.56181672   -8.1247582    76.897297  0.014432676  0.013509314            4 
  445000    0.5537178   -8.1260158    76.712641  0.014365663  0.013466854            4 
  446000   0.56244737   -8.1160139    76.688912  0.014329019  0.013424583            3 
  447000   0.54214217   -8.1358295    76.710002  0.014300895  0.013382364            7 
  448000   0.54902417   -8.1374434    76.753044   0.01427698  0.013340267            6 
  449000   0.55190698   -8.1336057    76.805763  0.014254967  0.013298274            4 
  450000   0.54720706   -8.1131925    76.731762  0.014209585  0.013256368            6 
  451000   0.54645879   -8.1398433    76.658197  0.014164486  0.013214618            9 
  452000   0.53348858   -8.1423907    76.580428  0.014118811  0.013172974            6 
  453000   0.54590911   -8.1308887     76.69721  0.014109126  0.013131524            6 
  454000   0.54978833   -8.1505716    76.754384  0.014088543  0.013090195            7 
  455000   0.54840028   -8.1597969    76.600262  0.014029352  0.013048939            6 
  456000     0.544734   -8.1391948    76.677561  0.014012712   0.01300785            6 
  457000    0.5457576   -8.1690545    76.642183  0.013975599  0.012966856            4 
  458000     0.535291   -8.1531872    76.620411  0.013941123   0.01292599            5 
  459000   0.54002298   -8.1514592    76.708303  0.013926707  0.012885266            3 
  460000   0.54188784    -8.153073    76.549294  0.013867626   0.01284471            6 
  461000   0.52974493   -8.1772713    76.565367   0.01384045   0.01280429            5 
  462000    0.5332802    -8.164722     76.56159  0.013809811  0.012764037            4 
  463000   0.53900689   -8.1664306    76.543596  0.013776745  0.012723928            4 
  464000   0.52950975   -8.1824606    76.459008  0.013731862  0.012683844            6 
  465000   0.52001899   -8.1887386    76.539605  0.013716775  0.012643837            5 
  466000    0.5159012   -8.1933761    76.419978  0.013665947  0.012603993            5 
  467000   0.51647558   -8.1869831    76.469787  0.013645572  0.012564195            4 
  468000    0.5306827   -8.1914316      76.5635  0.013633102  0.012524593            3 
  469000   0.52421413   -8.1945619     76.45489  0.013584735   0.01248514            4 
  470000   0.50864805   -8.1900607    76.614889    0.0135842  0.012445843            3 
  471000   0.51068022   -8.1954691    76.469023  0.013529551  0.012406713            7 
  472000   0.51786801   -8.1898949    76.415573   0.01349145  0.012367712            5 
  473000   0.50775631   -8.1785151    76.393055   0.01345896  0.012328827            6 
  474000   0.51545569   -8.2167335    76.647519  0.013475302    0.0122901            9 
  475000   0.51234253   -8.1885727    76.390322  0.013401811  0.012251448            4 
  476000   0.50909518    -8.208866    76.343718  0.013365497  0.012212929            8 
  477000   0.50919545    -8.209961    76.445355  0.013355233  0.012174481            9 
  478000   0.49616935   -8.2240199    76.312919  0.013304205  0.012136195            6 
  479000   0.50116374   -8.2112119    76.366385  0.013285732  0.012098067            8 
  480000   0.49376128   -8.2389733    76.352932  0.013255717  0.012060075            7 
  481000   0.49554523   -8.2375598    76.310581  0.013220821  0.012022147            6 
  482000   0.50155349   -8.2389145    76.219094  0.013177575  0.011984335           10 
  483000   0.48898557   -8.2295628    76.266036  0.013158391  0.011946664            7 
  484000   0.49075378   -8.2198225    76.346799   0.01314511  0.011909148            6 
  485000   0.49720979   -8.2296704     76.29897  0.013109789  0.011871816            6 
  486000   0.49250063   -8.2262449    76.177594  0.013062002  0.011834567            8 
  487000    0.4914032   -8.2431229    76.237037  0.013045352  0.011797419            5 
  488000   0.49154575   -8.2237679    76.321289  0.013033007  0.011760423            6 
  489000   0.48286128   -8.2469509    76.304792  0.013003543  0.011723615            7 
  490000   0.49142233   -8.2528323    76.357221  0.012985922  0.011686905            6 
  491000   0.48708818   -8.2480698    76.328374  0.012954578  0.011650359            8 
  492000   0.48347878   -8.2455659    76.250018  0.012914976  0.011613916            5 
  493000   0.48442151   -8.2546037    76.273153   0.01289269  0.011577671           12 
  494000   0.47491241   -8.2509066    76.237102   0.01286051  0.011541447            3 
  495000    0.4846112   -8.2699704    76.319809  0.012848453  0.011505416            6 
  496000   0.48492218   -8.2635122    76.330669  0.012824373   0.01146954            4 
  497000   0.46253144   -8.2490326    76.229578  0.012781619   0.01143385            8 
  498000   0.47250734   -8.2734199    76.119086  0.012737464   0.01139828            8 
  499000   0.47164844   -8.2824149     76.19407  0.012724461  0.011362813            8 
  500000   0.46557809   -8.2747177    76.119121   0.01268652  0.011327454            8 
  501000   0.46790411   -8.2747891    76.282769  0.012688418  0.011292228            4 
  502000   0.46547176    -8.274414    76.077259  0.012629027  0.011257142            5 
  503000   0.46063411   -8.2703103    76.189962  0.012622591  0.011222157            6 
  504000   0.45939833   -8.2834854    76.154468  0.012591678  0.011187399            5 
  505000   0.46620838   -8.2992131      76.0899  0.012556089  0.011152759            9 
  506000   0.46020695   -8.2856102    76.093137  0.012531808  0.011118218            4 
  507000   0.45879598   -8.2920511    76.102341  0.012508603   0.01108384           13 
  508000   0.45345266   -8.2843701    76.118628  0.012486652  0.011049586            4 
  509000   0.45377983   -8.2904649     76.11941  0.012462248   0.01101543            6 
  510000    0.4508449   -8.2906984    76.114249  0.012436969  0.010981486            6 
  511000   0.45618244   -8.2941879    75.997691  0.012393622  0.010947574            8 
  512000   0.44994517   -8.2941491    76.034603  0.012375424  0.010913806            9 
Loop time of 1157.94 on 48 procs for 500000 steps with 4000 atoms

Performance: 74615.540 tau/day, 431.803 timesteps/s
99.4% CPU use with 48 MPI tasks x no OpenMP threads

MPI task timing breakdown:
Section |  min time  |  avg time  |  max time  |%varavg| %total
---------------------------------------------------------------
Pair    | 70.539     | 76.303     | 80.334     |  29.3 |  6.59
Neigh   | 7.4754     | 7.7955     | 8.1051     |   6.2 |  0.67
Comm    | 71.292     | 76.588     | 84.07      |  35.3 |  6.61
Output  | 0.88612    | 0.8866     | 0.89678    |   0.2 |  0.08
Modify  | 982.51     | 985.68     | 987.94     |   3.7 | 85.12
Other   |            | 10.69      |            |       |  0.92

Nlocal:        83.3333 ave          91 max          75 min
Histogram: 1 5 1 8 3 13 9 3 2 3
Nghost:        1950.96 ave        1969 max        1926 min
Histogram: 2 3 2 4 7 5 8 5 7 5
Neighs:        12401.2 ave       13965 max       10925 min
Histogram: 3 3 6 5 10 4 6 9 0 2
FullNghs:      24802.8 ave       27505 max       22219 min
Histogram: 2 5 3 8 5 10 8 2 2 3

Total # of neighbors = 1190533
Ave neighs/atom = 297.63325
Neighbor list builds = 26846
Dangerous builds = 0

#clear
#
#next RN
#
#jump SELF
Total wall time: 0:19:21
