
units lj                  # Use reduced LJ style units
atom_style atomic         # Uncharged point particles
atom_modify map hash      # Needed for indexing of clusters etc
                          # Used to be able to find where atoms are in relation to each other.

lattice fcc 1.0 spacing 1 1 1
Lattice spacing in x,y,z = 1.5874011 1.5874011 1.5874011
region box block 0 10 0 10 0 10 units lattice
create_box 2 box
Created orthogonal box = (0.0000000 0.0000000 0.0000000) to (15.874011 15.874011 15.874011)
  3 by 4 by 4 MPI processor grid
create_atoms 1 box
Created 4000 atoms
  using lattice units in orthogonal box = (0.0000000 0.0000000 0.0000000) to (15.874011 15.874011 15.874011)
  create_atoms CPU = 0.003 seconds
set type 1 type/fraction 2 0.15 78393
Setting atom values ...
  634 settings made for type/fraction
mass 1 1.0
mass 2 1.0
pair_style lj/cut  3.5
pair_modify tail  yes
pair_coeff 1  1  1.0  1.0   # Intearaction between 1 and 1 set with epsilon = 1 and sigma = 1
pair_coeff 1  2  1.5  0.8
pair_coeff 2  2  0.5  0.88

write_data data.0
System init for write_data ...
Neighbor list info ...
  update every 1 steps, delay 10 steps, check yes
  max neighbors/atom: 2000, page size: 100000
  master list distance cutoff = 3.8
  ghost atom cutoff = 3.8
  binsize = 1.9, bins = 9 9 9
  1 neighbor lists, perpetual/occasional/extra = 1 0 0
  (1) pair lj/cut, perpetual
      attributes: half, newton on
      pair build: half/bin/atomonly/newton
      stencil: half/bin/3d
      bin: standard
WARNING: Not all mixed pair coeffs generated from mixing. Use write_data with 'pair ij' option to store all pair coeffs. (../write_data.cpp:312)


#############################
#   M E L T   S Y S T E M   #
#############################

velocity all create 2.4 5833274 mom yes dist gaussian # Assign velocities
                                                    # Temperature 2.4, random number seed, zero linear momentum
                                                                                # Gaussian distribution

timestep 0.002   # simulation timestep
thermo 1000       # output thermodynamic data every 1000 steps bf 100

# Define a fix  in this case with index 1 applied to all
# particles in the simulation. This fix is for simulations
# in the anisotropic NPT ensemble. Note that we use the MTK
# correction.
fix 1 all npt temp 2.4 2.4 0.1 iso 5.68 5.68 0.5 mtk yes tchain 5 pchain 5 # Use NPT ensemble
                                                                         # Set temperature and pressure and damping
                                                                         # Numbers of thermostats in chain and in barostat
run 10000          # run for 10000 steps
Per MPI rank memory allocation (min/avg/max) = 3.642 | 3.644 | 3.648 Mbytes
Step Temp E_pair E_mol TotEng Press Volume 
       0          2.4   -7.3553801            0   -3.7562801   -3.3553213         4000 
    1000    2.4521829   -4.7216465            0   -1.0442917    5.5582335    4665.8066 
    2000    2.3950632   -4.7537252            0   -1.1620285    5.3344289    4670.5065 
    3000    2.4482281   -4.7223914            0   -1.0509674    5.4389194    4681.5293 
    4000    2.3894867   -4.7400041            0   -1.1566701    5.3332453    4684.3319 
    5000    2.4793659   -4.6538473            0  -0.93572812    5.7508986    4691.2206 
    6000    2.4529258    -4.760427            0   -1.0819582    5.5733441    4646.5468 
    7000    2.4452957   -4.7154542            0   -1.0484276     5.812207    4644.7918 
    8000    2.3830202   -4.7570931            0   -1.1834565    5.7352001    4616.5215 
    9000    2.4075513   -4.6906122            0   -1.0801881    5.8788008    4645.2828 
   10000    2.4005936    -4.765636            0   -1.1656459    5.4112359    4661.3355 
Loop time of 2.25696 on 48 procs for 10000 steps with 4000 atoms

Performance: 765632.826 tau/day, 4430.746 timesteps/s
99.6% CPU use with 48 MPI tasks x no OpenMP threads

MPI task timing breakdown:
Section |  min time  |  avg time  |  max time  |%varavg| %total
---------------------------------------------------------------
Pair    | 0.92973    | 1.0031     | 1.1448     |   4.0 | 44.45
Neigh   | 0.194      | 0.20222    | 0.22795    |   1.5 |  8.96
Comm    | 0.64909    | 0.7996     | 0.88948    |   5.7 | 35.43
Output  | 0.00023779 | 0.00024345 | 0.00030541 |   0.0 |  0.01
Modify  | 0.20435    | 0.2373     | 0.27257    |   4.1 | 10.51
Other   |            | 0.01447    |            |       |  0.64

Nlocal:        83.3333 ave          92 max          75 min
Histogram: 1 2 6 6 11 9 4 6 1 2
Nghost:        1485.56 ave        1514 max        1462 min
Histogram: 4 5 3 7 9 5 9 1 3 2
Neighs:        8165.56 ave        9433 max        6975 min
Histogram: 1 2 5 6 12 9 8 1 3 1

Total # of neighbors = 391947
Ave neighs/atom = 97.986750
Neighbor list builds = 907
Dangerous builds = 218

# Equilibrate just above the melting temperature to avoid step fn in T

fix 1 all npt temp 1.25 1.25 0.1 iso 5.68 5.68 0.5 mtk yes tchain 5 pchain 5
run 2000
Per MPI rank memory allocation (min/avg/max) = 3.642 | 3.644 | 3.648 Mbytes
Step Temp E_pair E_mol TotEng Press Volume 
   10000    2.4005936    -4.765636            0   -1.1656459    5.4112359    4661.3355 
   11000    1.2354185   -6.3987965            0    -4.546132     5.695941    3803.4927 
   12000    1.2123566   -6.3953872            0    -4.577307    5.6212301    3804.6817 
Loop time of 0.489873 on 48 procs for 2000 steps with 4000 atoms

Performance: 705489.380 tau/day, 4082.693 timesteps/s
99.7% CPU use with 48 MPI tasks x no OpenMP threads

MPI task timing breakdown:
Section |  min time  |  avg time  |  max time  |%varavg| %total
---------------------------------------------------------------
Pair    | 0.21188    | 0.23503    | 0.27826    |   2.6 | 47.98
Neigh   | 0.030892   | 0.033485   | 0.039121   |   0.8 |  6.84
Comm    | 0.12331    | 0.1681     | 0.19953    |   3.9 | 34.31
Output  | 4.9565e-05 | 5.0867e-05 | 6.2256e-05 |   0.0 |  0.01
Modify  | 0.038669   | 0.048755   | 0.064941   |   3.0 |  9.95
Other   |            | 0.004454   |            |       |  0.91

Nlocal:        83.3333 ave          91 max          75 min
Histogram: 1 3 1 12 5 9 4 4 8 1
Nghost:        1696.04 ave        1720 max        1668 min
Histogram: 3 3 1 4 8 12 5 5 4 3
Neighs:        10022.2 ave       11313 max        8914 min
Histogram: 2 3 7 8 9 4 7 5 2 1

Total # of neighbors = 481067
Ave neighs/atom = 120.26675
Neighbor list builds = 141
Dangerous builds = 8

#############################
# L I N E A R  Q U E N C H  #
#############################

# Define solid atoms. This closely follows ten Wolde  Ruiz-Montero and Frenkel  Faraday Discuss  1996  104  93-110
# Compute components of the per-atom q6 vector
compute q6 all orientorder/atom degrees 1 6 components 6 nnn NULL cutoff 1.3 # compute the Q6 parameter.
                                                                             # Use all neighbours within 1.3 unit cell.

# get number of connections
compute coord_number all coord/atom orientorder q6 0.5

# An atom is solid if it has 8 or more connections (of a possible 14)
variable is_solid atom c_coord_number>=8
group solid dynamic all var is_solid    # Must be dynamic to update
dynamic group solid defined

# do clustering
compute cluster solid cluster/atom 1.3 # Create a cluster where all atoms within are solid and max 1.3 units from another member

# define chunks one chunk per cluster
compute clus_chunks solid chunk/atom c_cluster nchunk every compress yes  # Says which atoms are in which chunk

# count the size of each chunk
compute size_chunks solid property/chunk clus_chunks count


# Find the maximum entry in the vector of chunk sizes
variable max_n equal max(c_size_chunks)


# Thermo style which includes this variable
# thermo_style custom step temp pe vol v_max_n

thermo ${N}  # Print the thermo information every 100 steps
thermo 1000  

# Reset the npt fix at a lower temperature (below freezing)
fix 1  all npt temp  ${temp} ${temp}  0.1  iso  5.68  5.68  0.5  mtk yes tchain  5  pchain  5
fix 1  all npt temp  0.45 ${temp}  0.1  iso  5.68  5.68  0.5  mtk yes tchain  5  pchain  5
fix 1  all npt temp  0.45 0.45  0.1  iso  5.68  5.68  0.5  mtk yes tchain  5  pchain  5

dump dmp2 all dcd ${N} traj.dcd
dump dmp2 all dcd 1000 traj.dcd


compute msd all msd com yes
variable twopoint equal c_msd[4]/6/(step*dt+1.0e-6)
fix 9 all vector 10 c_msd[4]
variable fit equal slope(f_9)/6/(10*dt)
thermo_style custom step temp pe c_msd[4] v_twopoint v_fit v_max_n

fix 1 all npt temp 1.25 ${temp} 0.1 iso 5.68 5.68 0.5 mtk yes tchain 5 pchain 5
fix 1 all npt temp 1.25 0.45 0.1 iso 5.68 5.68 0.5 mtk yes tchain 5 pchain 5
run 5000000 # 5000000  # Run for this many steps
Neighbor list info ...
  update every 1 steps, delay 10 steps, check yes
  max neighbors/atom: 2000, page size: 100000
  master list distance cutoff = 3.8
  ghost atom cutoff = 3.8
  binsize = 1.9, bins = 9 9 9
  4 neighbor lists, perpetual/occasional/extra = 1 3 0
  (1) pair lj/cut, perpetual
      attributes: half, newton on
      pair build: half/bin/atomonly/newton
      stencil: half/bin/3d
      bin: standard
  (2) compute orientorder/atom, occasional
      attributes: full, newton on
      pair build: full/bin/atomonly
      stencil: full/bin/3d
      bin: standard
  (3) compute coord/atom, occasional
      attributes: full, newton on
      pair build: full/bin/atomonly
      stencil: full/bin/3d
      bin: standard
  (4) compute cluster/atom, occasional
      attributes: full, newton on
      pair build: full/bin/atomonly
      stencil: full/bin/3d
      bin: standard
Per MPI rank memory allocation (min/avg/max) = 9.762 | 9.767 | 9.772 Mbytes
Step Temp PotEng c_msd[4] v_twopoint v_fit v_max_n 
   12000    1.2123566   -6.3953872 3.9443045e-34 2.7391003e-36 8.3333333e+20            2 
   13000    1.2450723   -6.4248402   0.56751191 0.0036378967   0.04578424            2 
   14000    1.2747243   -6.3912356    1.1136437 0.0066288313  0.046113918            2 
   15000    1.2520594   -6.4125143    1.5972847 0.0088738037   0.04446732            1 
   16000    1.2320054   -6.3835632    2.1197569    0.0110404  0.043756945            1 
   17000    1.2340137   -6.3899962    2.6527195  0.013003527  0.043615358            1 
   18000    1.2610768   -6.4035724    3.1912974  0.014774524  0.043864571            2 
   19000    1.2639229   -6.3616582    3.7537461  0.016463798  0.044069631            3 
   20000    1.2570431   -6.3817547     4.323234  0.018013475  0.044361274            2 
   21000    1.2248199   -6.4000092    4.9064993  0.019470235  0.044768553            1 
   22000    1.2385627   -6.3184514    5.5274774  0.020937414  0.045305573            1 
   23000    1.2848295   -6.3851304    6.0099304   0.02177511  0.045535676            2 
   24000    1.2423119   -6.3956991    6.5546016  0.022759033  0.045585662            1 
   25000    1.2363082   -6.3718839    6.9946809  0.023315602  0.045449505            1 
   26000    1.2684886   -6.3980232    7.4607126   0.02391254  0.045187695            3 
   27000    1.2529855    -6.373228    8.1448855  0.025138535  0.045055589            3 
   28000    1.2566209   -6.4276633    8.7288406  0.025978692   0.04513758            2 
   29000    1.2503052   -6.3963249    9.2876857  0.026688752   0.04530994            3 
   30000    1.2337103   -6.4039679    9.8850415  0.027458448  0.045387444            2 
   31000    1.2711042   -6.3990726    10.489814  0.028198425  0.045555939            3 
   32000    1.2240351    -6.426165    11.025686  0.028712722   0.04573714            4 
   33000    1.2509428   -6.4340259    11.513913  0.029075537  0.045856139            3 
   34000    1.2283932   -6.4031342    11.966294   0.02932915  0.045829813            6 
   35000     1.262049   -6.3975184    12.549153  0.029878935   0.04580826            2 
   36000    1.2483473   -6.3915583    13.136661  0.030408938   0.04580483            3 
   37000    1.2268795   -6.4352288    13.624187  0.030685105  0.045791464            3 
   38000    1.2719193   -6.3982113    14.132915  0.030993233  0.045729674            2 
   39000    1.2404396   -6.4200528    14.685925  0.031380181  0.045675155            2 
   40000    1.2510068   -6.4051589    15.125892  0.031512275  0.045585861            3 
   41000    1.2303441   -6.3712624    15.693731  0.031897828  0.045501219            3 
   42000     1.256917    -6.448535    16.053119  0.031851425  0.045397173            3 
   43000    1.2330498   -6.4238245    16.643976  0.032255768  0.045276405            2 
   44000    1.2479748   -6.3696409    17.382154  0.032920746   0.04519706            3 
   45000    1.2590139   -6.3862388    17.848925  0.033053564  0.045187247            1 
   46000    1.2431396   -6.3954148    18.528117  0.033565429   0.04521197            1 
   47000    1.2198697   -6.4427121     19.17376  0.033996027  0.045273086            2 
   48000    1.2537721   -6.3707727    19.793943  0.034364483  0.045324412            3 
   49000    1.2546627   -6.4157476    20.188879  0.034334827  0.045376425            2 
   50000    1.2346471    -6.375234    20.706327  0.034510544  0.045374066            2 
   51000    1.2448013   -6.3983645    21.031078  0.034364507  0.045326017            1 
   52000    1.2371244    -6.394791    21.573492  0.034572904  0.045261759            1 
   53000    1.2684186   -6.4234821    21.895009  0.034426115  0.045192549            3 
   54000    1.2240486   -6.4099117    22.571672  0.034832827   0.04511433            1 
   55000    1.2312016   -6.4250518    22.992494  0.034837111  0.045053892            6 
   56000     1.234972   -6.4168767     23.64555   0.03518683  0.045001653            2 
   57000    1.2442443     -6.40288    24.340841  0.035586025  0.044981447            2 
   58000    1.2202988   -6.3826068       24.938  0.035830459  0.044978818            2 
   59000    1.2003679   -6.4594293    25.337571   0.03578753  0.044967182            7 
   60000     1.245491   -6.3833042    25.890963   0.03595967   0.04495585            2 
   61000    1.2505594   -6.4351129    26.201496  0.035794394  0.044924991            1 
   62000    1.2419554   -6.3927431    26.661457  0.035835291  0.044869304            2 
   63000    1.2634038   -6.3966649    27.112246  0.035862758  0.044809832            4 
   64000    1.2534655   -6.4174288    27.808409  0.036208865  0.044746672            1 
   65000    1.2767083   -6.4439007    28.325738  0.036315049   0.04471473            4 
   66000    1.2557457   -6.4275781    28.930307  0.036528166  0.044685282            1 
   67000    1.2481875   -6.3749801    29.469668  0.036653816  0.044647821            2 
   68000    1.2408536   -6.4547743    29.859863  0.036592969  0.044617786            2 
   69000    1.2444854   -6.3504477    30.578619    0.0369307  0.044586571            2 
   70000    1.2292064   -6.3873918    30.950165  0.036845435    0.0445489            1 
   71000    1.2349875   -6.3562821    31.496097   0.03696725  0.044514711            1 
   72000    1.2525784   -6.4231464    31.941484   0.03696931   0.04448942            2 
   73000    1.2600276   -6.3790126    32.640794   0.03726118  0.044467277            3 
   74000     1.254543   -6.4341521    33.099295  0.037273981  0.044444006            2 
   75000    1.2546651   -6.4200089    33.742521  0.037491689  0.044426337            1 
   76000    1.2301733   -6.4160787    34.375757  0.037692716   0.04441987            2 
   77000    1.2520739   -6.3709316    34.836354  0.037701681  0.044414394            2 
   78000    1.2246127    -6.428629    35.138989  0.037541655  0.044402029            1 
   79000     1.251713   -6.3973966    35.874776   0.03784259  0.044392633            2 
   80000    1.2243793   -6.4118414    36.488481  0.038008834  0.044389386            1 
   81000    1.2430473   -6.3930389    36.846751   0.03790818  0.044381433            1 
   82000    1.2457005   -6.3928562    37.401973  0.038010135  0.044377077            2 
   83000    1.2653187   -6.3919357    37.955243  0.038107674  0.044373798            1 
   84000    1.2368867   -6.4157088    38.512091  0.038206439  0.044375949            2 
   85000    1.2370285   -6.4535776    38.948709  0.038185008   0.04437789            2 
   86000    1.2376818   -6.4318016    39.404465  0.038182621  0.044368674            1 
   87000    1.2388668   -6.4293642    39.813839  0.038135861  0.044348876            1 
   88000     1.258159   -6.4027552    40.401281  0.038258788  0.044322046            1 
   89000    1.2354493   -6.4011707    40.681485  0.038091278  0.044296445            2 
   90000    1.2187111   -6.4208666    41.085065  0.038041726  0.044255443            3 
   91000    1.2390761   -6.3980621    41.852024  0.038326029  0.044216777            1 
   92000    1.2472784   -6.4296379    42.251586  0.038271364  0.044186813            4 
   93000    1.2391092   -6.4275325    42.720936  0.038280409  0.044159477            2 
   94000    1.2325434   -6.4195684    43.151035  0.038254463  0.044123774            3 
   95000    1.2296344   -6.4343716    43.841756  0.038457681  0.044089337            2 
   96000    1.2509979   -6.3944359     44.02715  0.038218012  0.044047936            2 
   97000    1.2203746   -6.4113789    44.486667  0.038218786  0.043998196            4 
   98000    1.2291181   -6.4294499    44.757465  0.038059069  0.043943367            2 
   99000    1.2614252   -6.3973241    45.333207  0.038159265  0.043885675            5 
  100000    1.2257845   -6.3989508     45.96369  0.038303075  0.043835784            2 
  101000    1.2511612   -6.4123895    46.497625  0.038364377  0.043790933            1 
  102000    1.2150745   -6.4227196    46.872429  0.038294468  0.043745936            2 
  103000    1.2406175   -6.4372982    47.574244  0.038490488  0.043712546            3 
  104000    1.2386922   -6.4440496    48.009919  0.038469486  0.043676143            2 
  105000     1.235561   -6.3766838    48.642276  0.038604981  0.043637053            1 
  106000    1.2446289   -6.4313521    48.999561  0.038521667  0.043603969            2 
  107000    1.2353822   -6.4166752     49.38871  0.038464728  0.043568025            1 
  108000    1.2459587   -6.3901616    50.024203  0.038598922  0.043533338            1 
  109000     1.225002   -6.4309852    50.100843  0.038303396  0.043494484            1 
  110000    1.2212531   -6.3936057    50.827673  0.038505813  0.043455243            2 
  111000    1.2416265   -6.3992362    51.795487    0.0388855  0.043427396            3 
  112000    1.2297957   -6.4150857    52.227733   0.03885992  0.043408908            4 
  113000    1.2295642   -6.3794529    52.831465  0.038961257  0.043388841            2 
  114000    1.2432567   -6.4604288    53.321164  0.038977459  0.043368659            2 
  115000    1.2542777   -6.4401865    53.719102  0.038926885  0.043349179            1 
  116000    1.2529153   -6.4634633    53.895529  0.038718052   0.04332582            2 
  117000    1.2316464     -6.38286    54.897633  0.039100878   0.04330881            2 
  118000    1.2329433   -6.3990846     55.51959   0.03920875  0.043296844            2 
  119000    1.2502919   -6.4202517    55.700848  0.039006196  0.043283755            5 
  120000    1.2351135    -6.385707    56.424259  0.039183513  0.043265142            1 
  121000     1.227273   -6.4114646    56.679704  0.039035609  0.043248323            3 
  122000    1.2207577   -6.5001648    56.854439  0.038834999  0.043219273            4 
  123000    1.2325627   -6.4313596    57.517917  0.038968778  0.043195611            2 
  124000     1.224026   -6.4120122    58.234418  0.039136033  0.043174038            3 
  125000    1.2158234   -6.4493647    58.756796  0.039171197  0.043160543            2 
  126000    1.2255581   -6.3758835    59.311603  0.039227251  0.043150209            1 
  127000    1.2249517   -6.4276989    59.679935  0.039160062  0.043134886            3 
  128000    1.2392086   -6.4463757    59.975717  0.039046691  0.043114317            3 
  129000    1.2496031   -6.4005842    60.638763  0.039172328  0.043091882            1 
  130000     1.233028   -6.4447976    61.103781   0.03916909  0.043066508            2 
  131000    1.2244892   -6.4255732    61.762817  0.039289323  0.043047642            4 
  132000    1.2186577   -6.4260671    61.990421  0.039135367  0.043024606            4 
  133000    1.2247819   -6.4141018    62.452067  0.039130367   0.04300194            4 
  134000    1.2359541   -6.4386131    63.143974   0.03926864  0.042985147            1 
  135000    1.2235235   -6.4220066    63.849759  0.039413431  0.042969342            3 
  136000    1.1996684    -6.426797    64.185882  0.039329584  0.042953679            2 
  137000    1.2343429   -6.3994511    64.674901  0.039339964  0.042939009            3 
  138000    1.2313692   -6.4143443    65.204872  0.039374923  0.042923578            2 
  139000    1.2214494   -6.4538452    65.610442  0.039334797  0.042905179            2 
  140000    1.2432034   -6.4253444    66.129964  0.039363074  0.042887558            1 
  141000    1.2016756   -6.4513933    66.661054  0.039397786  0.042872114            2 
  142000    1.2086142   -6.4145069    67.066847  0.039358478  0.042856562            4 
  143000    1.2108814   -6.4342574    67.334943  0.039239477  0.042834985            2 
  144000    1.2351338   -6.4284327    67.769182  0.039218277  0.042813025            4 
  145000    1.2262962    -6.465889    68.211448  0.039201981  0.042792672            4 
  146000    1.2401078    -6.408364    69.242915  0.039522212  0.042777722            4 
  147000    1.2025124   -6.4291825    69.765929  0.039549846  0.042768341            2 
  148000    1.2344991   -6.4255394    70.106586  0.039474429   0.04275326            1 
  149000    1.2282982   -6.4354301     70.59396   0.03948208   0.04274082            2 
  150000    1.2200957   -6.4603422    71.067462  0.039481923  0.042732304            2 
  151000    1.2265148   -6.4462778    71.861089  0.039658437  0.042720233            5 
  152000    1.2064948   -6.4093935    72.153602  0.039557896  0.042706486            2 
  153000    1.2289727    -6.456679      72.7274  0.039611874   0.04269786            1 
  154000     1.221286   -6.3512505    73.821964   0.03994695  0.042693212            2 
  155000    1.2460183   -6.4090929     73.94739  0.039756661  0.042690383            1 
  156000    1.2408403   -6.4575708    74.328164  0.039705216  0.042685553            3 
  157000    1.2043406   -6.4283155    74.595122  0.039594014  0.042680001            2 
  158000    1.2111184   -6.4543063    75.424775  0.039780999  0.042675977            3 
  159000    1.2378347   -6.4403744    76.044412  0.039855562  0.042672837            3 
  160000    1.2136968   -6.4526216    76.456174  0.039820924   0.04267007            3 
  161000    1.2076229   -6.4538231    76.768981  0.039735498  0.042661739            2 
  162000    1.2376421   -6.4325528    77.299942  0.039763344  0.042653052            2 
  163000    1.2069469   -6.4479113    77.654389  0.039700608   0.04264214            3 
  164000    1.2212977   -6.4616677    77.996138  0.039632184  0.042630237            1 
  165000    1.2270321   -6.3786482    78.841522   0.03981895  0.042619619            3 
  166000    1.2216984    -6.406921    79.550769  0.039935125    0.0426126            3 
  167000    1.2213447   -6.4069729    80.038081  0.039939162  0.042609336            4 
  168000    1.2241363   -6.4412686    80.762367  0.040060698  0.042610391            3 
  169000    1.2456878   -6.3997927    81.499312  0.040187037  0.042613467            1 
  170000    1.2109312   -6.4736386     81.66344  0.040031098  0.042616644            2 
  171000    1.2122298   -6.4864059    82.174296  0.040045953   0.04261725            1 
  172000    1.2129322   -6.4668597    82.606697  0.040022625  0.042618312            3 
  173000    1.2286834   -6.4258934     83.56357  0.040252201  0.042617764            2 
  174000    1.2199489   -6.4495832    83.585707  0.040031469   0.04261667            2 
  175000    1.2223137   -6.3801434    84.176543  0.040084068  0.042618033            6 
  176000    1.2359484   -6.4424243    84.799192  0.040151132  0.042618064            2 
  177000    1.2209563   -6.4493669    84.996378  0.040017127  0.042616239            1 
  178000    1.2135601    -6.437133    86.215183  0.040362913  0.042613823            2 
  179000    1.2145309   -6.4572197    85.969009  0.040022816  0.042612278            2 
  180000    1.2148858   -6.4259577    86.805949  0.040187939  0.042609342            1 
  181000    1.2087587   -6.4425393    86.926404  0.040021364   0.04260789            1 
  182000    1.2025682   -6.4204966    87.958892  0.040274218  0.042606369            2 
  183000    1.2312293   -6.4242852    88.491171  0.040296526  0.042605273            2 
  184000    1.2343926   -6.4387513    89.015981  0.040315209  0.042606458            2 
  185000     1.243439   -6.4795415    89.069355  0.040121331  0.042606413            3 
  186000    1.2376855   -6.4239162    89.606097  0.040146101  0.042602522            2 
  187000    1.2172306   -6.4603066     90.09208  0.040147986   0.04259724            2 
  188000    1.2055343   -6.4673586    90.274749  0.040015403  0.042592771            1 
  189000    1.1850548   -6.4532724     91.12092  0.040176773  0.042585033            4 
  190000    1.2090908   -6.4495264    91.409064  0.040091694  0.042578148            1 
  191000    1.2392742    -6.438375    91.989208  0.040134907  0.042571238            2 
  192000    1.2219072   -6.4930098    92.485643  0.040141338  0.042563215            3 
  193000    1.2062859    -6.460769    93.182191  0.040234107  0.042557022            2 
  194000    1.2221528   -6.4135371    93.637067  0.040222108  0.042552771            2 
  195000    1.2187792   -6.4549746    93.825501  0.040096368  0.042545905            2 
  196000    1.1928782    -6.438494    94.654938  0.040244446  0.042541651            2 
  197000    1.2114858   -6.4381338    95.002212  0.040187061  0.042536481            2 
  198000    1.2227989   -6.4210267    95.271866  0.040097586  0.042529449            4 
  199000     1.233116   -6.4269804    96.112124  0.040247958  0.042522641            2 
  200000    1.2107812   -6.4370706    96.568402  0.040236834  0.042517695            3 
  201000    1.2084915   -6.4185438    97.199992  0.040298504  0.042516884            3 
  202000    1.2326874    -6.498738    97.536522  0.040237839  0.042512918            2 
  203000    1.2315961   -6.4588428    98.071512  0.040259241  0.042507124            3 
  204000    1.2177375    -6.453809    98.255211  0.040136933  0.042503066            2 
  205000    1.2168436   -6.4564254    99.140396  0.040300974  0.042497864            2 
  206000    1.2395743   -6.3875475     99.49061  0.040247011  0.042492461            3 
  207000    1.2273858   -6.4576814    100.08515  0.040291928  0.042487075            2 
  208000    1.2433943   -6.4543551    100.43764  0.040239439  0.042481336            3 
  209000    1.2337957   -6.4350578     101.0939  0.040308572  0.042475543            1 
  210000       1.2159   -6.4322366    101.84964  0.040416523  0.042473256            2 
  211000    1.2133133   -6.4873839    102.58395  0.040514988  0.042472022            1 
  212000     1.242985   -6.4707906    102.77233  0.040397928   0.04247162            1 
  213000     1.223775   -6.4780101    103.53263  0.040505724  0.042471222            2 
  214000    1.2505987   -6.4655525    103.90107  0.040459919  0.042471637            3 
  215000    1.2153765   -6.4146832    104.94357  0.040675802  0.042474744            3 
  216000    1.2075877   -6.4145712    105.24483  0.040603714   0.04247834            1 
  217000    1.2042969   -6.4212039    105.96754  0.040694141  0.042479913            2 
  218000    1.2164409   -6.4327308    106.57034  0.040737898  0.042482085            2 
  219000    1.2083581   -6.4806825    106.55364  0.040545523   0.04248485            1 
  220000    1.2071699   -6.4679602    107.20881  0.040609398  0.042489084            5 
  221000    1.2179914   -6.4216136    107.86968  0.040674842  0.042491059            2 
  222000    1.2151517   -6.4745546    108.45232   0.04071033  0.042496624            2 
  223000    1.2184394   -6.4601563    108.62499  0.040592299  0.042502681            1 
  224000    1.2208871   -6.4271695    109.21168  0.040629347  0.042505883            4 
  225000    1.2046093   -6.4199773    109.94107  0.040718916   0.04251006            5 
  226000    1.2042275   -6.4481024    110.37465  0.040698618  0.042513545            1 
  227000    1.2477832   -6.4377909     111.2399  0.040836968  0.042516776            2 
  228000    1.2540086   -6.4718564     111.0213  0.040577961   0.04251911            2 
  229000    1.2121321   -6.4682364    111.58693  0.040606596   0.04251875            7 
  230000    1.2035348   -6.4802913    111.97883  0.040572039  0.042518218            2 
  231000    1.2123136   -6.5097435    112.84715   0.04070965  0.042521471            2 
  232000    1.2216749    -6.468778    113.38934   0.04072893  0.042524447            1 
  233000    1.2090179   -6.4862433    113.90595  0.040738897  0.042528424            3 
  234000    1.2391155   -6.4627939    114.62831  0.040822048  0.042530157            6 
  235000    1.2313377   -6.4327557    115.46958  0.040946659  0.042534892            3 
  236000    1.2109224   -6.4474984     115.7837  0.040884076  0.042539954            2 
  237000     1.254603   -6.4466684    115.88687  0.040747844  0.042542099            3 
  238000    1.1979745   -6.4558548    116.40484  0.040757998  0.042542875            3 
  239000    1.2190817   -6.4592349    116.12474  0.040489796  0.042542498            2 
  240000    1.2185189   -6.4447428    117.20704   0.04069689   0.04254065            2 
  241000    1.2114598    -6.427515    117.46122  0.040615914  0.042536855            3 
  242000     1.209523   -6.4718356    117.88633  0.040594465  0.042531528            2 
  243000    1.1914966   -6.4878634    117.69103  0.040360437   0.04252436            4 
  244000     1.219178   -6.4951007    118.06606  0.040323107  0.042516427            2 
  245000    1.2129319    -6.486052    118.35143  0.040255588  0.042506762            3 
  246000    1.1984874   -6.4706613     119.5949  0.040513176  0.042496117            1 
  247000    1.1994378   -6.4634959     119.6872  0.040380297   0.04248795            1 
  248000    1.2241987   -6.4283629    120.53921  0.040503768  0.042478544            2 
  249000    1.2071432   -6.4399627    120.52118  0.040335068  0.042467872            2 
  250000    1.2260926   -6.4915427    121.08985  0.040363284  0.042455788            3 
  251000    1.2138749   -6.4859569    121.60907  0.040374857  0.042446769            2 
  252000    1.1910458   -6.4625196    121.86995  0.040300908  0.042437381            2 
  253000     1.207612   -6.4785184    122.63257   0.04039281  0.042427567            5 
  254000    1.1993777   -6.4318702    123.07263  0.040378159  0.042420132            3 
  255000    1.2006445   -6.4604408    123.89594   0.04048887  0.042412668            2 
  256000    1.2326698   -6.4459274    124.37857  0.040487815   0.04240554            4 
  257000    1.2067006   -6.4721404     125.0443  0.040546141  0.042398495            2 
  258000    1.2463581   -6.4567853    125.37672  0.040496356  0.042390449            5 
  259000    1.2313146   -6.4746187     126.0486  0.040556177  0.042382581            3 
  260000    1.2120137   -6.4546927    126.34535  0.040495304  0.042374264            4 
  261000    1.1888606   -6.4668726    126.65476  0.040438938  0.042365825            2 
  262000    1.1881973    -6.463579     127.1928  0.040455726  0.042356812            2 
  263000    1.2017723   -6.4616237     127.8554  0.040511851  0.042349432            1 
  264000    1.2210626   -6.4511155    128.57089  0.040584245  0.042342075            2 
  265000    1.2227162   -6.4632089    128.59994  0.040440234  0.042335405            1 
  266000    1.2025712   -6.5039166    128.70999  0.040322677  0.042326966            3 
  267000    1.2207597   -6.4652096    129.45085  0.040402887  0.042319658            2 
  268000    1.2144471   -6.4403388    130.43197  0.040557205  0.042311406            2 
  269000    1.2279671   -6.4892993    130.16698  0.040324342  0.042302321            2 
  270000     1.212737   -6.4621421    131.13992  0.040475285  0.042292996            2 
  271000    1.2044351   -6.5172243    131.20795  0.040346847   0.04228458            6 
  272000    1.1993481   -6.4508101    132.00587  0.040442975   0.04227685            1 
  273000    1.2354271    -6.469984    132.44607  0.040429203   0.04226864            2 
  274000    1.2234705   -6.5083605    133.02094  0.040456491   0.04225856            4 
  275000    1.2154407   -6.4908966    133.60447  0.040486203  0.042250669            1 
  276000     1.215426   -6.4457812    133.92235  0.040435492    0.0422419            2 
  277000     1.209765   -6.4594286    133.77517  0.040245238  0.042231765            2 
  278000    1.1987079   -6.4862473     134.9621  0.040456266  0.042220533            2 
  279000    1.2117467   -6.4398552    135.29957  0.040412057     0.042209            2 
  280000    1.2065023   -6.4624011    135.49122  0.040324767  0.042199605            4 
  281000    1.2264754    -6.485405    135.86098  0.040290919  0.042189517            3 
  282000     1.211904   -6.4774304    136.29985  0.040277733   0.04218055            1 
  283000    1.2214419   -6.4770006    137.52799  0.040497053  0.042173496            2 
  284000    1.2161184   -6.4666109    137.94295  0.040476218  0.042164754            1 
  285000    1.1947442   -6.4682048    138.16789  0.040399969  0.042155397            4 
  286000    1.2061679   -6.4754393    138.95215  0.040487223  0.042147241            1 
  287000    1.2389333   -6.4646815    138.68112  0.040267455  0.042137932            1 
  288000    1.2164706   -6.4686073    139.21598    0.0402824  0.042128536            1 
  289000    1.2351315   -6.4809772     140.1134  0.040401787  0.042118887            2 
  290000     1.180977   -6.4460556    140.61373  0.040406245  0.042110185            3 
  291000    1.2029839   -6.4509383    141.24885   0.04044927  0.042100232            2 
  292000    1.1972763   -6.4272079    141.47318  0.040374764  0.042091337            3 
  293000     1.194632   -6.4755491    141.45744   0.04023249  0.042080457            2 
  294000    1.2155594   -6.4535186    142.19605  0.040305003  0.042069872            4 
  295000    1.1817275   -6.5134739    142.32657  0.040205245  0.042059845            3 
  296000    1.1903719   -6.4813811    143.06969  0.040278629  0.042050435            4 
  297000    1.1931437   -6.4766273    143.57487  0.040284755  0.042042033            1 
  298000    1.2253619   -6.4697431    144.89346  0.040518305  0.042033961            4 
  299000    1.2159204   -6.4700416    145.07354  0.040432982  0.042026827            5 
  300000    1.1980507   -6.4164815    146.48901  0.040691392  0.042022212            3 
  301000    1.2054264   -6.4457941    146.31851  0.040509001  0.042016937            1 
  302000    1.1952239    -6.465554    147.39266  0.040671263    0.0420122            1 
  303000    1.1998727    -6.492639    147.25608  0.040499471  0.042006822            3 
  304000    1.2158345   -6.4889747    147.70321   0.04048882  0.042000294            2 
  305000    1.2146719   -6.4510815    148.35725  0.040534767  0.041994328            2 
  306000    1.2108351   -6.4935384    149.32518  0.040665899  0.041989448            1 
  307000     1.210793   -6.4441359    149.14936  0.040485712   0.04198439            2 
  308000    1.1927021   -6.4501954    150.12969  0.040619504  0.041979353            2 
  309000     1.215234   -6.4884907    149.90939  0.040428639   0.04197473            1 
  310000    1.1843226   -6.4211629    151.26259  0.040661987    0.0419693            3 
  311000     1.200974   -6.5159383    150.87216  0.040426625   0.04196302            2 
  312000    1.1848691   -6.4663365    151.28764  0.040408024  0.041955407            2 
  313000    1.1914134   -6.4676604    152.22902  0.040529559  0.041948652            3 
  314000    1.2089032   -6.4357917    152.69767  0.040524859  0.041942719            1 
  315000    1.2019514   -6.4621508    153.13484  0.040511861  0.041935562            1 
  316000    1.2029331    -6.513028    152.96344   0.04033846  0.041927565            3 
  317000    1.2281699   -6.4806571    154.02919  0.040491375  0.041919183            3 
  318000    1.2116695   -6.4533122     154.5458  0.040499424  0.041911122            3 
  319000    1.2070048   -6.4745216    154.86109   0.04045483  0.041904874            2 
  320000    1.2016306   -6.4627977    156.04473  0.040636649  0.041898857            1 
  321000    1.1940922    -6.437737     156.3436  0.040587643  0.041893838            2 
  322000    1.2234388   -6.4753751    156.25469  0.040438585  0.041887987            3 
  323000    1.1970109   -6.5026714    156.21041  0.040301963  0.041880543            6 
  324000    1.2009925   -6.4481187    157.07765  0.040400629  0.041872669            1 
  325000    1.2155291   -6.5117599    157.49652  0.040383723  0.041864103            1 
  326000    1.2032614   -6.4645835    158.52771  0.040523442  0.041856938            1 
  327000    1.1732757   -6.4783623     158.4449  0.040378414  0.041849377            3 
  328000    1.1993124   -6.4775837    158.91091  0.040373707  0.041841818            2 
  329000    1.2050623   -6.4584325    159.82656  0.040482918  0.041834821            2 
  330000     1.217771   -6.5026956    159.41153  0.040255437  0.041827354            2 
  331000    1.1970382   -6.4580151     160.4672  0.040399597  0.041819356            1 
  332000    1.2156306   -6.4730444    161.51935  0.040542005  0.041812722            3 
  333000    1.2125073    -6.505974    161.33478  0.040374068  0.041807288            2 
  334000    1.2124301   -6.4643031    161.87723  0.040388531  0.041800251            2 
  335000    1.2140095   -6.4796768    162.75386  0.040486034  0.041794273            4 
  336000    1.2148739   -6.4346457    162.62923   0.04033463  0.041787526            1 
  337000    1.1814959   -6.4984605    162.73963  0.040242243  0.041780762            3 
  338000    1.2039405    -6.502293    162.94331    0.0401734  0.041771962            1 
  339000     1.202571   -6.5108063    163.59368   0.04021477  0.041762327            2 
  340000    1.2139051   -6.4712172    164.05759  0.040210194  0.041752251            3 
  341000    1.2008788   -6.4901047    164.46686  0.040192293  0.041742187            1 
  342000    1.1989625   -6.4948019    164.55293  0.040095742  0.041733449            2 
  343000    1.1728554   -6.5050955    165.23833  0.040145368  0.041723716            2 
  344000    1.2350837   -6.4800094     165.7025  0.040141109  0.041713159            2 
  345000    1.1947288   -6.4984727    165.74544  0.040035129  0.041702538            3 
  346000    1.1694593   -6.4868012    166.82079  0.040178418  0.041691652            2 
  347000      1.21232   -6.4487022    166.84896  0.040069394  0.041680775            3 
  348000    1.1865888   -6.5367137    166.78261  0.039938365  0.041669593            2 
  349000    1.2145516   -6.4973023    167.71376  0.040046265  0.041657016            2 
  350000    1.2183334   -6.4582381    168.05134  0.040012223   0.04164566            4 
  351000    1.2217993   -6.4704388    169.04447  0.040134014  0.041634995            2 
  352000      1.18522   -6.5208023    169.52339  0.040133377  0.041624715            3 
  353000    1.1828809   -6.5097258    169.86248  0.040099737   0.04161603            1 
  354000    1.1672014     -6.49529    170.75135  0.040195703  0.041608426            2 
  355000     1.194389   -6.4759751    171.76988  0.040321568  0.041600432            4 
  356000    1.2081789   -6.4887885    172.39205  0.040353943  0.041592919            1 
  357000    1.2066059   -6.5022727    172.85195  0.040348261  0.041585938            1 
  358000    1.1833452   -6.4996358    173.69765  0.040432415  0.041580034            3 
  359000    1.2009801   -6.4972456     173.5237  0.040279411  0.041573551            4 
  360000    1.2008138   -6.5233916    173.74764   0.04021936  0.041566776            2 
  361000    1.1760822   -6.4964712    174.59218  0.040302904  0.041560535            2 
  362000    1.1823598   -6.5088451    175.22522  0.040337297  0.041554996            2 
  363000    1.1929444   -6.4919522      175.932   0.04038843  0.041550314            6 
  364000    1.1906205   -6.5093644    175.86676  0.040262536   0.04154344            3 
  365000    1.1669479   -6.4993878    175.73335   0.04012177  0.041535394            1 
  366000     1.199739   -6.4749961    177.11739  0.040327274   0.04152753            3 
  367000    1.1927574   -6.4736659    177.06702  0.040205953  0.041519682            1 
  368000    1.1913914   -6.4690644    177.67059  0.040233376  0.041511293            2 
  369000    1.2064868   -6.5116255    178.22236  0.040248952    0.0415032            4 
  370000    1.1915265   -6.4869817    178.26899  0.040150674  0.041495306            2 
  371000    1.1683142   -6.4904117    178.88432  0.040180666  0.041487574            2 
  372000    1.1889771   -6.4583495    179.63376  0.040240537  0.041479661            2 
  373000    1.2290264   -6.4934733    179.93006  0.040198853  0.041472137            2 
  374000    1.2003313   -6.4738625    180.19529  0.040150465    0.0414638            2 
  375000    1.1932208   -6.5165596    180.29372  0.040065271  0.041455253            2 
  376000    1.2137266   -6.5119803    181.75248  0.040282022  0.041449112            2 
  377000    1.1691405   -6.5083895    182.32318  0.040301321  0.041442629            2 
  378000    1.2166773   -6.4924729    182.61762  0.040259616  0.041434948            4 
  379000    1.1848389   -6.5007432    182.72523   0.04017705  0.041428699            3 
  380000    1.1919305   -6.5712886    182.92832   0.04011586  0.041421406            3 
  381000    1.2141756   -6.4989391    183.50822  0.040137407  0.041413707            1 
  382000    1.1890793   -6.5392639    184.17898   0.04017866  0.041406767            4 
  383000    1.2104127   -6.4754084    185.58197  0.040379019  0.041400595            2 
  384000    1.1881513   -6.4762097    186.05611  0.040376759  0.041395332            2 
  385000    1.2144951   -6.5210897    185.55296  0.040162978  0.041388889            2 
  386000    1.2055738   -6.5073824     185.1873  0.039979986  0.041382471            3 
  387000    1.1991148   -6.4621533    186.82315   0.04022893  0.041374905            2 
  388000    1.2091987   -6.5053322    186.43823  0.040042575  0.041367048            3 
  389000    1.2127331   -6.5351019    187.49774   0.04016661  0.041359297            3 
  390000    1.1523756   -6.5165872    187.83199   0.04013504  0.041352613            2 
  391000    1.2005423   -6.4914882    188.45447  0.040165061  0.041347043            3 
  392000    1.1849642    -6.522153    189.35734  0.040254536  0.041341505            2 
  393000    1.1937247   -6.5138178    189.63395  0.040210762   0.04133434            2 
  394000    1.1915193    -6.501111    189.62665   0.04010716  0.041327388            3 
  395000    1.2200284   -6.5208262    189.94904  0.040073638  0.041320138            3 
  396000    1.2259733   -6.4834107    191.45879  0.040290149  0.041313448            3 
  397000    1.1703154    -6.510722    191.10787  0.040115002  0.041306596            3 
  398000    1.1631604   -6.5351683    191.81392  0.040162043   0.04129966            1 
  399000    1.1544761   -6.5035802    191.68076  0.040033575  0.041292568            3 
  400000    1.2090242   -6.5168319    192.91234   0.04019007  0.041284932            1 
  401000    1.1857921   -6.5017275    192.64265  0.040033802  0.041277139            5 
  402000    1.1783816   -6.5323431    193.57956  0.040128432  0.041269714            3 
  403000    1.2086219   -6.4803003    193.82792  0.040080215  0.041262688            3 
  404000    1.1603527   -6.5358769    194.07334  0.040031629  0.041255001            6 
  405000    1.2033343   -6.5123802    193.97427  0.039912402  0.041245934            1 
  406000     1.158604   -6.4761671    195.69694   0.04016768  0.041237854            3 
  407000    1.1591711   -6.4761876    195.91374  0.040113379  0.041230713            2 
  408000    1.1983792   -6.5047723    196.40534   0.04011547  0.041224481            3 
  409000    1.1989137   -6.4988849    197.84349   0.04031041  0.041218134            2 
  410000      1.19998   -6.5333033    197.64374  0.040171492  0.041211598            3 
  411000    1.1894731   -6.4730021    198.25029  0.040196734  0.041205618            1 
  412000    1.1929802   -6.5089964    198.71003  0.040192157  0.041199986            3 
  413000    1.2027778   -6.4912831    199.16252  0.040186142  0.041193067            2 
  414000    1.1571437   -6.5074959    199.04264  0.040064943  0.041185819            2 
  415000      1.17998   -6.5003934    199.19718  0.039999434  0.041178483            5 
  416000    1.1789764   -6.4899933    200.44258   0.04015276  0.041171062            5 
  417000    1.2022262   -6.5001622    200.44985  0.040057923  0.041163497            7 
  418000    1.1984249   -6.4810569    200.65777  0.040003543  0.041155883            2 
  419000    1.1968169   -6.5304836      200.648  0.039906126  0.041147601            3 
  420000    1.1728514   -6.4963884    201.66449  0.040012796  0.041139105            3 
  421000    1.1828597    -6.512107     202.1308  0.040010055   0.04113071            2 
  422000     1.201639   -6.4399455    202.11388  0.039911903  0.041121867            1 
  423000    1.1972408   -6.4974636    201.97911  0.039790999  0.041112901            1 
  424000    1.1926486   -6.5055208    203.03252  0.039904191  0.041103513            2 
  425000    1.1728857   -6.5378616    202.71132  0.039747318  0.041094018            3 
  426000    1.2105277   -6.5317514    203.38681  0.039786153  0.041084247            3 
  427000    1.1805786   -6.5039417    204.30969  0.039873085  0.041074781            2 
  428000    1.1673058   -6.5116216    205.56249  0.040023849  0.041066878            4 
  429000    1.1780919   -6.5444026    204.72721  0.039768301  0.041058311            3 
  430000    1.1782145   -6.5592252    204.44387  0.039620905   0.04104835            4 
  431000    1.1930857   -6.5073838    206.40785   0.03990871  0.041038051            1 
  432000    1.1626307   -6.5199132    206.06864  0.039750896   0.04102795            2 
  433000    1.2021698     -6.53567    206.37947  0.039718913  0.041018104            2 
  434000    1.1845994   -6.5367012    207.17387  0.039779929  0.041008152            2 
  435000    1.1813762   -6.5466062    207.30795  0.039714166  0.040999076            4 
  436000    1.1773808   -6.5264323    208.02843  0.039760786  0.040990379            2 
  437000    1.1721683   -6.5111499    208.60631  0.039779999  0.040981189            4 
  438000    1.1667673   -6.5254748    209.08829  0.039780878  0.040972237            3 
  439000    1.1759013   -6.5307575    209.84837  0.039834542  0.040962509            5 
  440000    1.1813528   -6.5263732    209.94602  0.039762504  0.040953796            3 
  441000    1.1841664   -6.4954972    211.23085  0.039915126  0.040945356            2 
  442000    1.2064354   -6.5149267    211.61606  0.039897446  0.040937636            1 
  443000    1.1705755   -6.5059804    211.68116  0.039819631  0.040929936            5 
  444000    1.1917982   -6.5258659    211.62229  0.039718898  0.040921888            1 
  445000    1.1767867   -6.5532184     212.2028  0.039738352  0.040913408            3 
  446000    1.1684607   -6.4932626    213.86096  0.039959074  0.040905264            2 
  447000    1.1751973   -6.5438922    214.12832  0.039919523  0.040897301            2 
  448000    1.1661633    -6.498049     214.5435  0.039907645  0.040890112            2 
  449000    1.1584187   -6.5136626     214.7866  0.039863883  0.040883687            3 
  450000    1.1726801   -6.4962601    216.29802  0.040055189  0.040878007            1 
  451000    1.1776286   -6.5275615     216.0032  0.039911899  0.040873076            2 
  452000    1.1788223   -6.5395684    216.33995  0.039885685  0.040867365            3 
  453000    1.1660457   -6.5231721    217.25932  0.039966762  0.040862175            5 
  454000    1.1758639   -6.5373316    217.56471  0.039934785  0.040856527            4 
  455000    1.1887758   -6.4899695    218.32944  0.039987076  0.040851413            2 
  456000    1.1979636   -6.5512602    218.83473  0.039991726  0.040846037            3 
  457000    1.1531476   -6.5058324    219.28696   0.03998668  0.040841199            2 
  458000    1.1548291   -6.5460475    219.68028  0.039970939  0.040835952            4 
  459000    1.1687554   -6.5127967    219.96636  0.039935795  0.040830743            2 
  460000    1.1758788   -6.5181788    220.37285  0.039922618  0.040825331            2 
  461000    1.1823539   -6.4999995    220.83318  0.039919229  0.040819543            2 
  462000    1.1841084   -6.5152189    221.32057  0.039920737  0.040813875            2 
  463000    1.1639258   -6.4968336    221.55667  0.039877011  0.040808334            4 
  464000    1.1792079   -6.4953489     222.8636   0.04002579  0.040804063            2 
  465000    1.1857079   -6.5454351    224.04808  0.040151986  0.040800101            2 
  466000    1.1788537    -6.507404    223.66934  0.039998094  0.040796317            3 
  467000    1.1929065   -6.5475231    224.00369  0.039972107  0.040793037            2 
  468000    1.1733305    -6.486762    225.06162  0.040075075  0.040789672            5 
  469000    1.1794196   -6.5291088    225.69878   0.04010284  0.040785878            2 
  470000    1.1673035   -6.5286685    225.27061  0.039941598  0.040781927            1 
  471000    1.2062394   -6.5577734    226.17044  0.040016002  0.040777352            3 
  472000    1.1841263   -6.5352577      227.064  0.040088984  0.040773745            2 
  473000    1.1745113   -6.5179878    226.74315  0.039947702  0.040770721            3 
  474000     1.153108   -6.5040837    228.56319  0.040183402  0.040766676            2 
  475000    1.1763515   -6.5373116     227.7169  0.039950333  0.040762323            1 
  476000    1.1711247   -6.5370487     227.9625  0.039909401  0.040757889            2 
  477000    1.1713324   -6.5522134    228.18002  0.039863735   0.04075278            3 
  478000    1.1767086   -6.5255108     228.7815  0.039885198  0.040746604            2 
  479000    1.1848684   -6.5556331    229.59029  0.039942639  0.040741698            1 
  480000    1.1867913   -6.5347502    229.25334  0.039800926  0.040734951            3 
  481000    1.1500088   -6.5294319     230.0331  0.039853275  0.040728067            3 
  482000    1.2007175    -6.538017    230.44609  0.039841993   0.04072163            3 
  483000    1.1689668   -6.5173975    230.13921  0.039706559  0.040715264            2 
  484000    1.1538999   -6.5104769    231.16035  0.039800336  0.040708657            1 
  485000    1.1636666   -6.5123075    231.54666   0.03978465  0.040701838            1 
  486000    1.1490845   -6.5368144    232.25448  0.039824157  0.040694942            2 
  487000    1.1939787   -6.5847161    232.22337  0.039737059  0.040687936            2 
  488000     1.185724   -6.5370287    233.34185  0.039846628   0.04068159            2 
  489000    1.2008647   -6.4899464    233.18724  0.039738793  0.040675498            3 
  490000    1.1710601   -6.5358559    233.95587  0.039788414  0.040669037            1 
  491000    1.1688077   -6.5130558    233.45062  0.039621627  0.040661571            1 
  492000    1.1673872    -6.497043    234.94144  0.039793605  0.040653191            2 
  493000    1.1851612   -6.5383348    234.02527  0.039558024  0.040644755            2 
  494000    1.1714031   -6.5454746    234.31153  0.039526237  0.040636166            1 
  495000    1.1520566   -6.5355724    235.04714  0.039570226  0.040627399            3 
  496000    1.1520987   -6.5240161      235.546  0.039574261  0.040617656            3 
  497000    1.1485034   -6.5412284    235.82504  0.039541422  0.040608329            2 
  498000    1.1849503   -6.5424649    235.88293  0.039471708  0.040599064            3 
  499000    1.1538428   -6.5337802    236.48605  0.039493328   0.04058966            1 
  500000    1.1705472    -6.559186    237.07565  0.039512608   0.04058114            3 
  501000    1.1709709   -6.5309134     237.0119  0.039423137  0.040572681            1 
  502000     1.176169   -6.5081156    238.24636  0.039549529  0.040564142            2 
  503000    1.1676848   -6.5738272    237.49377  0.039346217  0.040554732            3 
  504000     1.177427   -6.5624838    239.73868  0.039639331  0.040545405            2 
  505000    1.1935917   -6.5314207    238.92967  0.039427338  0.040535835            2 
  506000    1.1625401   -6.5621931    238.90185  0.039344836  0.040525606            3 
  507000    1.1691558   -6.5574064    239.89262  0.039430082  0.040515703            3 
  508000    1.1536092   -6.5039296    240.20359  0.039403477  0.040504959            3 
  509000    1.1815448   -6.5459865    240.93868  0.039446411  0.040494812            2 
  510000    1.1630963   -6.5157171    240.60987  0.039315338  0.040485266            2 
  511000    1.1854344   -6.5267456    240.40218  0.039204531  0.040474702            1 
  512000    1.1658816   -6.5262532    241.76798  0.039350256  0.040464544            2 
  513000    1.1895485   -6.5221934    241.70726  0.039263688  0.040454336            3 
  514000    1.1449459   -6.5347285     242.5772   0.03932834   0.04044461            3 
  515000    1.1922492   -6.5462053    243.19587  0.039352082  0.040434849            3 
  516000    1.1587143   -6.5617675    243.70787  0.039358505  0.040425157            2 
  517000    1.1688254   -6.5303038    243.65335   0.03927359  0.040414623            2 
  518000    1.1356748   -6.5777985    243.54763  0.039180764   0.04040404            1 
  519000    1.1543982   -6.5230134    244.83675  0.039312259  0.040394075            3 
  520000    1.1551465   -6.5098233    244.80631   0.03923178  0.040383768            4 
  521000    1.1658414   -6.5283874    245.78487  0.039312998  0.040373921            2 
  522000     1.150818   -6.5038413    246.21107  0.039305726  0.040364645           10 
  523000    1.1651123   -6.5247416    245.70421   0.03914981  0.040354993            6 
  524000     1.170803   -6.5336724    246.95892  0.039274637  0.040344986            1 
  525000    1.1405744   -6.5060369    248.00243  0.039365466  0.040335246            1 
  526000    1.1786963   -6.5450649    247.61159  0.039228706  0.040325376            1 
  527000    1.1676675   -6.5644849    248.29626  0.039262533  0.040315626            2 
  528000    1.1826086   -6.5548027    249.12564  0.039319072  0.040306148            1 
  529000    1.1619259   -6.5781913    248.74157  0.039184242  0.040296645            2 
  530000    1.1565685   -6.5141429    249.48656  0.039227446  0.040286238            5 
  531000    1.1772042    -6.564006    249.09735   0.03909249  0.040276885            1 
  532000    1.1805476   -6.5558523    249.65902  0.039106989  0.040266207            2 
  533000    1.1627586   -6.5825813    249.66012   0.03903379  0.040255359            2 
  534000    1.1925027   -6.5304518    251.50152  0.039248053  0.040244676            3 
  535000    1.1613403   -6.5412807     251.3274   0.03914757  0.040234496            2 
  536000    1.1818232   -6.5688222    251.27066  0.039065713  0.040224913            4 
  537000    1.1739765   -6.5283203    252.50256  0.039184133   0.04021491            4 
  538000    1.1610918   -6.5796451    252.41268  0.039097379  0.040204312            2 
  539000    1.1695458   -6.5637825    251.96159    0.0389551  0.040193842            2 
  540000    1.1323649   -6.5339286    253.07318  0.039054504  0.040183356            3 
  541000    1.1571788   -6.5558548    254.46935  0.039197374  0.040172655            2 
  542000    1.1815842   -6.5678225    253.93184  0.039042411  0.040162158            2 
  543000    1.1626513   -6.5434552    254.17608  0.039007993  0.040151034            4 
  544000    1.1661278   -6.5404658     254.9717  0.039058165   0.04014011            2 
  545000    1.1744617   -6.5425387    255.14176  0.039012502  0.040129154            2 
  546000    1.1508901   -6.5354784    255.93126  0.039061548  0.040118745            3 
  547000    1.1715832   -6.5282127    257.00205  0.039153268  0.040108509            2 
  548000    1.1383469   -6.5637203    257.23227  0.039116829  0.040098504            2 
  549000    1.1597952   -6.6046235    255.91897  0.038846232  0.040087552            2 
  550000    1.1487285    -6.526409    257.17573   0.03896602  0.040076168            2 
  551000    1.1436316   -6.5610558    257.61059   0.03896107  0.040065292            3 
  552000     1.178307   -6.5978977    257.55145  0.038881559  0.040054894            1 
  553000    1.1761994   -6.5483185    257.74636   0.03884062   0.04004403            3 
  554000    1.1593511   -6.5744688    258.45208  0.038876666  0.040032771            2 
  555000    1.1480005   -6.5312478    259.81908  0.039011874    0.0400222            1 
  556000    1.1690507   -6.5865842    260.25776  0.039007458  0.040011781            3 
  557000    1.1680711   -6.5520592    259.66104   0.03884815  0.040000633            2 
  558000    1.1499011   -6.5852079    259.92643  0.038818164  0.039989493            3 
  559000    1.1505058   -6.5617482    261.74193   0.03901937  0.039979214            1 
  560000    1.1555774   -6.4970498    262.35749  0.039041293  0.039969052            2 
  561000    1.1526831   -6.6052944    261.37294  0.038825452  0.039958303            3 
  562000    1.1455922   -6.5706108    262.30052  0.038893908  0.039948141            3 
  563000    1.1363425   -6.5342208    263.29361  0.038971818  0.039938375            3 
  564000    1.1678092   -6.5298785    263.41507  0.038920667  0.039928643            1 
  565000    1.1705607    -6.546706    264.05689  0.038946443  0.039919085            2 
  566000    1.1711035   -6.5877376     264.7255  0.038976074   0.03990952            2 
  567000     1.148052   -6.5484669    264.34024  0.038850711   0.03989981            2 
  568000    1.1679965   -6.5024269    266.66726  0.039123718  0.039891154            4 
  569000    1.1262726   -6.5739345    266.57078  0.039040829  0.039882528            3 
  570000    1.1667227   -6.5516436    266.95083  0.039027899  0.039874249            2 
  571000    1.1646868   -6.5354755    266.88212  0.038949521  0.039865109            3 
  572000    1.1248334   -6.5957777    266.87954  0.038881052  0.039856457            2 
  573000    1.1363817   -6.5841854    267.37053  0.038884603  0.039847375            2 
  574000    1.1592161   -6.5668898    268.18106  0.038934532  0.039838322            3 
  575000    1.1462123    -6.564568    269.02439  0.038989043  0.039829462            3 
  576000    1.1554294   -6.5476215    269.03723   0.03892321  0.039821285            2 
  577000    1.1752457   -6.5883747    269.80815  0.038967092  0.039813043            2 
  578000    1.1465227   -6.5471697    269.90587  0.038913764  0.039804261            3 
  579000    1.1615881   -6.5708083    270.53594  0.038937239  0.039795337            1 
  580000    1.1415335   -6.5803979    270.94138  0.038928359  0.039786615            2 
  581000    1.1758913   -6.5693829    271.70575  0.038970991   0.03977759            2 
  582000     1.175458   -6.5390692    272.72217  0.039049566  0.039768686            2 
  583000     1.152248   -6.6307345    271.96949  0.038874999  0.039760133            2 
  584000    1.1730639   -6.5888561    272.36371  0.038864685   0.03975138            3 
  585000    1.1602346   -6.5544609     272.5012  0.038817835  0.039743132            2 
  586000    1.1822387   -6.5596577    274.97198  0.039102956  0.039735166            2 
  587000    1.1529271   -6.5326083    274.64217  0.038989519  0.039727387            6 
  588000    1.1554023      -6.5464    274.85592  0.038953504  0.039719642            2 
  589000    1.1484232   -6.5370659    273.84349  0.038744127  0.039711143            4 
  590000    1.1585483   -6.5618693    275.22258  0.038873245  0.039702562            5 
  591000    1.1678777   -6.5570757    275.38737  0.038830706  0.039693483            2 
  592000    1.1638657   -6.5686362    275.55829  0.038789173  0.039684873            1 
  593000    1.1838193   -6.5404373    276.12331  0.038803164   0.03967627            4 
  594000    1.1354235   -6.5445818    276.96891  0.038856469  0.039667018            3 
  595000    1.1440986    -6.565308    277.00715  0.038796519  0.039657933            2 
  596000    1.1553481   -6.5744578    277.13708  0.038749591  0.039649069            3 
  597000    1.1695716   -6.5598459    278.27673  0.038843765  0.039640305            5 
  598000    1.1680749   -6.5617103    278.54285  0.038815893  0.039631557            3 
  599000    1.1478767   -6.5598846    278.87713  0.038797597  0.039623311            1 
  600000    1.1759185     -6.55759     280.0746  0.038899249  0.039615464            2 
  601000    1.1670222   -6.5653852    280.60427  0.038907968  0.039607888            4 
  602000    1.1633081   -6.5938702    280.61233  0.038844453   0.03960024            2 
  603000    1.1397977   -6.5634138     281.2786  0.038872112   0.03959242            4 
  604000    1.1369283   -6.5868521    281.41295   0.03882629  0.039584053            2 
  605000    1.1716266    -6.548975    281.90925  0.038830476   0.03957643            3 
  606000     1.149487   -6.5564038    282.55094  0.038854639  0.039568931            3 
  607000     1.179277   -6.5538288    283.86677  0.038971275  0.039561249            2 
  608000    1.1707422   -6.5611187    283.39987  0.038843184  0.039553783            3 
  609000    1.1540838   -6.5891302    284.43098  0.038920496  0.039546108            3 
  610000    1.1533911   -6.6052125    283.72413  0.038760126  0.039538419            2 
  611000    1.1668188   -6.5945327    284.81252  0.038845134  0.039530773            2 
  612000    1.1705398   -6.5312925    285.89009  0.038928389  0.039523492            3 
  613000    1.1712132   -6.5798998    285.06358  0.038752526  0.039515944            5 
  614000    1.1713958   -6.5473432    286.11759  0.038832463  0.039507988            1 
  615000    1.1551159   -6.5839645    286.67832  0.038845301  0.039500255            3 
  616000     1.154658     -6.56388    287.42523  0.038883283  0.039492551            2 
  617000    1.1461662   -6.5288813    286.54471  0.038701339  0.039484872            2 
  618000    1.1526182   -6.5614031    287.50149  0.038767731  0.039476495            1 
  619000    1.1503972   -6.5586858    288.09415  0.038784888  0.039468139            3 
  620000    1.1609984   -6.5622306     287.2628  0.038610591  0.039459393            1 
  621000    1.1399758   -6.5787006     288.6477   0.03873426  0.039450395            3 
  622000    1.1500271    -6.564519    288.56657  0.038661116  0.039442153            4 
  623000    1.1847592   -6.5639564    288.30754  0.038564412  0.039434207            3 
  624000     1.158063   -6.5619087    290.78635  0.038833647  0.039426538            3 
  625000    1.1468782   -6.6015376    291.27253  0.038836337  0.039419405            3 
  626000    1.1389899   -6.5875394    292.63059  0.038955084  0.039412982            7 
  627000    1.1526786   -6.5304766    291.47533  0.038739411  0.039406128            3 
  628000    1.1623906   -6.5916726      291.368  0.038663482  0.039399452            4 
  629000    1.1541173   -6.5335295    292.38564  0.038736837  0.039392424            2 
  630000    1.1615541   -6.5675662    292.87049  0.038739482   0.03938569            2 
  631000    1.1531504   -6.5578777    293.75464  0.038794855  0.039378878            3 
  632000    1.1384712   -6.5600104     294.4929  0.038830814   0.03937119            1 
  633000    1.1445571    -6.556917    294.40026  0.038757275  0.039364313            3 
  634000    1.1541003   -6.5293523    295.27553   0.03881119  0.039358031            1 
  635000     1.155063   -6.6031831    295.20674  0.038741042  0.039351075            2 
  636000    1.1650462   -6.5612183    295.51301  0.038720258   0.03934462            2 
  637000    1.1534739   -6.5631587    296.01145  0.038724679  0.039338291            3 
  638000    1.1517865   -6.5934742    297.02012  0.038795732   0.03933164            1 
  639000    1.1341486   -6.5739778    297.23223   0.03876268  0.039324908            4 
  640000     1.130772    -6.584074    297.65474  0.038757128  0.039317921            3 
  641000     1.147455   -6.6151621    296.32518  0.038523815  0.039311098            2 
  642000    1.1757058   -6.5451462    298.79697  0.038784654  0.039304264            2 
  643000    1.1544823   -6.6013031    299.08438  0.038761584  0.039297755            4 
  644000    1.1584281   -6.5754502    299.04892  0.038696807  0.039290733            3 
  645000    1.1397936   -6.5425166    300.41536  0.038813354  0.039284125            1 
  646000    1.1631522   -6.5684507    299.90143  0.038686975  0.039277669            3 
  647000      1.14073   -6.6150378    299.80609    0.0386149  0.039271488            2 
  648000    1.1483159   -6.5524304    301.66013  0.038793741  0.039265114            5 
  649000    1.1669622     -6.61251    300.99987  0.038649187  0.039258899            1 
  650000    1.1438488   -6.5421438    301.23362  0.038619695  0.039252068            2 
  651000    1.1467588   -6.5639522    301.78356  0.038630769  0.039245211            2 
  652000     1.147049   -6.5257008    303.43689  0.038782833  0.039238598            2 
  653000     1.157762   -6.5776321    303.74352  0.038762573  0.039232379            2 
  654000    1.1546066   -6.5446363    304.01522  0.038737924  0.039226316            6 
  655000    1.1245799   -6.6236093    303.16575  0.038570707  0.039219699            3 
  656000    1.1304077   -6.5240985    303.73864  0.038584685  0.039212603            2 
  657000    1.1312724   -6.5932615    304.83977  0.038665623  0.039205752            3 
  658000    1.1465623   -6.5958474     304.5928  0.038575582  0.039198265            3 
  659000    1.1192014   -6.5875816    304.33941  0.038485003  0.039190726            2 
  660000    1.1426365   -6.5550218    305.71229  0.038600036  0.039182945            1 
  661000    1.1366177   -6.5911879    305.82522  0.038555878  0.039175399            2 
  662000     1.146592   -6.5975682    305.10032  0.038406385  0.039167333            1 
  663000    1.1309711   -6.6035017    305.59111  0.038410144  0.039159096            4 
  664000    1.1362352   -6.5626603    307.59213   0.03860343  0.039150786            3 
  665000    1.1518782   -6.6109439    306.61344  0.038422737  0.039142482            5 
  666000      1.16488   -6.5960056    306.76976  0.038384604  0.039134323            3 
  667000     1.146059   -6.5742236    307.07797  0.038365564  0.039126368            2 
  668000     1.133935    -6.543892    308.35858  0.038467887  0.039118756            1 
  669000    1.1445835   -6.5976431     308.2952  0.038402491  0.039111007            2 
  670000    1.1372887   -6.5901337    308.82365  0.038410901  0.039103206            3 
  671000     1.120278   -6.6067719    309.00674  0.038376396  0.039095105            2 
  672000    1.1329791    -6.562475    309.82771  0.038421095  0.039087012            3 
  673000    1.1461026   -6.6084166    308.61997  0.038214459   0.03907879            3 
  674000    1.1269795   -6.5481365    310.19772  0.038352834  0.039070211            2 
  675000    1.1488478   -6.5956513    311.48515  0.038454957  0.039062024            2 
  676000    1.1660884   -6.6213437    309.46113  0.038148561  0.039053491            3 
  677000    1.1310179   -6.6269827    311.51709  0.038345284  0.039044557            4 
  678000    1.1432868   -6.6052719    312.23523  0.038376994  0.039036908            8 
  679000    1.1313606   -6.5743598    313.64818  0.038493886  0.039029664            3 
  680000    1.1400745   -6.5888999    313.01969  0.038360256  0.039022447            3 
  681000    1.1374955   -6.5947629    313.33743  0.038342809  0.039015077            3 
  682000    1.1633035   -6.6348814    314.09562   0.03837923  0.039008032            3 
  683000    1.1345465   -6.5838236    315.10214  0.038445844  0.039000876            2 
  684000     1.139894   -6.5800895    316.08001  0.038508773  0.038993579            2 
  685000    1.1377945   -6.5879769    314.50762  0.038261268  0.038986608            2 
  686000    1.1358003   -6.5694225    315.81078  0.038363797  0.038978954            2 
  687000    1.1386071   -6.5766388    316.54881  0.038397478   0.03897154            3 
  688000    1.1373618   -6.5762625      317.395  0.038444162  0.038964345            2 
  689000    1.1123464   -6.6374166     317.7661  0.038433248   0.03895765            3 
  690000    1.1530488    -6.581364    318.08186  0.038415683  0.038950738            2 
  691000    1.1379954   -6.5952737    318.57925  0.038420074  0.038943717            3 
  692000    1.1557604   -6.5873614    319.62085  0.038489986  0.038937346            2 
  693000    1.1539731   -6.5895643    319.97712  0.038477287  0.038930761            1 
  694000    1.1559266   -6.5758053    319.90149  0.038412763  0.038924165            5 
  695000    1.1100276   -6.5898857    320.65636  0.038448005  0.038917515            2 
  696000    1.1239635   -6.6218488    319.62529  0.038269312  0.038910899            2 
  697000    1.1544609   -6.5621416    320.60098   0.03833106  0.038903329            2 
  698000    1.1556808    -6.578957    320.15249  0.038222599  0.038896036            3 
  699000    1.1105563    -6.585718    321.05899  0.038275988  0.038888679            3 
  700000    1.1526633   -6.6251574    321.55595   0.03828047  0.038881366            3 
  701000    1.1273998   -6.5866685     321.5735  0.038227948   0.03887418            2 
  702000    1.1265635   -6.5908219    322.54562  0.038288891  0.038867152            3 
  703000    1.1462989   -6.5864666    323.98403  0.038404935  0.038859785            3 
  704000    1.1292109   -6.6002533    324.21399  0.038377603  0.038852748            3 
  705000    1.1424439   -6.5690131    324.56156   0.03836425  0.038845542            5 
  706000    1.1364164    -6.568814    324.35478  0.038285503  0.038838172            2 
  707000    1.1293311   -6.5892814    324.72701  0.038275225  0.038830861            3 
  708000    1.1417484   -6.6228205    324.59468  0.038205588  0.038823223            2 
  709000    1.1473004   -6.6206121    324.44145  0.038133692  0.038815709            3 
  710000    1.1571882   -6.5876783      326.433  0.038313732  0.038808068            8 
  711000     1.162909   -6.6135139    326.54047  0.038272442  0.038800294            3 
  712000    1.1118348   -6.5775904    328.13139  0.038404891  0.038793183            2 
  713000     1.126677   -6.5877308    327.39382  0.038264822  0.038786036            2 
  714000    1.1185075   -6.5679519    328.06087  0.038289083  0.038778746            2 
  715000    1.1276519   -6.5942705    328.38415  0.038273211  0.038771885            2 
  716000    1.1412418   -6.5957512    328.62763  0.038248095  0.038764397            2 
  717000    1.1255598   -6.5684313    330.03448  0.038358261  0.038757328            2 
  718000    1.1411019   -6.5991347    329.35055  0.038225459  0.038750324            1 
  719000    1.1397473   -6.6271959    329.82464  0.038227242  0.038742946            2 
  720000    1.1367432   -6.5745111    330.81374  0.038288627   0.03873597            3 
  721000    1.1080343   -6.6043939    330.52211  0.038201816  0.038729124            3 
  722000    1.1525531   -6.6067467    331.26943   0.03823516  0.038722778            2 
  723000    1.1407848   -6.6392599    331.45249  0.038203376   0.03871665            3 
  724000    1.1298003   -6.6340378    332.49556  0.038270667  0.038710473            3 
  725000    1.1349049   -6.6350105    331.99166  0.038159961  0.038704322            5 
  726000    1.1316462   -6.6256523     333.6243    0.0382948  0.038698113            2 
  727000    1.1464157   -6.5693421    334.11039  0.038297843  0.038692337            3 
  728000    1.1355535   -6.6434387     334.0797  0.038241724  0.038686062            3 
  729000    1.1443958   -6.6486515    334.09074  0.038190528   0.03867983            3 
  730000    1.1425806   -6.6551184    333.55122  0.038076623  0.038673097            4 
  731000    1.1533106   -6.6258594    334.60693  0.038144885  0.038666085            3 
  732000    1.1418947   -6.6353589    335.32635  0.038174676  0.038658984            2 
  733000    1.1104186   -6.6098571    335.58712  0.038152242  0.038651932            3 
  734000    1.1318888    -6.568238    336.32301  0.038183811  0.038644749            2 
  735000    1.1211188   -6.5870018    336.65433  0.038169426  0.038638034            6 
  736000    1.1261137   -6.5810224    336.66553  0.038118832  0.038631156            2 
  737000    1.1299988   -6.5876833    336.88703  0.038092156   0.03862413            2 
  738000     1.153163   -6.5968833    338.19087  0.038187767  0.038617349            2 
  739000    1.1169686   -6.6105259    339.23834   0.03825421  0.038610404            4 
  740000     1.144792   -6.6026912    339.87001   0.03827365  0.038603654            2 
  741000     1.127571   -6.6400874    339.24751  0.038151991  0.038597122            1 
  742000    1.1474746   -6.6059384    340.28293  0.038216861  0.038590889            2 
  743000    1.1471045   -6.6032826    341.13712  0.038261229  0.038584446            2 
  744000    1.1383743   -6.6412322     339.6225  0.038040155  0.038577962            2 
  745000    1.1170651   -6.6054528    340.59221  0.038097563  0.038571197            2 
  746000    1.1107338    -6.631343    339.33612  0.037906179  0.038564065            5 
  747000    1.1605977   -6.6078996    341.99785  0.038152371  0.038556756            2 
  748000    1.0952652   -6.6100655    340.92914  0.037982302  0.038549733            2 
  749000    1.1363463   -6.5974107    341.58414  0.038004466  0.038542589            2 
  750000    1.1496989   -6.6398431    342.16884   0.03801876  0.038535526            3 
  751000    1.1198326    -6.572706    343.89556  0.038159738  0.038528727            5 
  752000    1.1426649   -6.5714282    343.89708  0.038109163  0.038522354            3 
  753000    1.1201357   -6.5936915       344.38  0.038111996  0.038515826            2 
  754000     1.128961   -6.6134636    344.48981  0.038073586   0.03850878            5 
  755000    1.1431192   -6.6273544    343.85752  0.037953369  0.038501515            2 
  756000    1.0989988   -6.6054846    344.70534   0.03799662  0.038494322            3 
  757000    1.1352744   -6.5768594    345.80082  0.038067021  0.038486967            2 
  758000    1.1384227   -6.5905919    344.66695  0.037892145  0.038479862            3 
  759000    1.1433904   -6.6032678    345.90515  0.037978168  0.038472767            3 
  760000    1.1292122   -6.6262222    345.99662  0.037938225  0.038465514            5 
  761000    1.1313854   -6.5839451    346.81193  0.037977653  0.038458298            3 
  762000      1.12892   -6.6080621    347.03089   0.03795176  0.038451259            4 
  763000     1.121425   -6.5963741    345.97551  0.037786753  0.038444079            3 
  764000    1.1390153   -6.6251195    346.56811  0.037801931   0.03843685            5 
  765000    1.1363825   -6.5755457     348.0615  0.037915197  0.038429713            2 
  766000    1.1217525   -6.6032231    348.77518   0.03794334  0.038423013            2 
  767000    1.1278135   -6.5980552    348.81525  0.037898224  0.038415929            3 
  768000    1.1465496   -6.6366759    350.04343  0.037982143  0.038408989            2 
  769000    1.1210713   -6.6034643    351.49129   0.03808965  0.038402072            2 
  770000     1.127895     -6.66235    350.51422  0.037934439  0.038395267            2 
  771000    1.1263075   -6.6225412    350.50529  0.037884273  0.038388521            1 
  772000     1.144668   -6.5712977    353.78397  0.038189116  0.038382008            2 
  773000    1.1215881   -6.6415677    351.02753  0.037842554  0.038375489            5 
  774000    1.0941879   -6.6244977    351.38637  0.037832296  0.038368749            3 
  775000    1.1253394   -6.6569457    351.60751  0.037807259  0.038362126            3 
  776000    1.1097452   -6.6356605    352.39187   0.03784277   0.03835527            1 
  777000    1.1236387   -6.6232988    353.61371  0.037925108  0.038348868            3 
  778000    1.0936706   -6.6034267     354.1991  0.037939063  0.038342109            2 
  779000     1.150093   -6.6393469     354.1771  0.037888008  0.038335697            1 
  780000    1.0914391     -6.64027     354.3377  0.037856592  0.038328931            3 
  781000    1.1348539   -6.6119533    355.36754  0.037918005  0.038322134            3 
  782000    1.1393391   -6.6185951    355.49772  0.037883389  0.038315556            3 
  783000    1.1350234   -6.6215291    356.11595  0.037900803  0.038308764            2 
  784000    1.1012076   -6.5631702     356.7787  0.037922906  0.038302026            2 
  785000    1.1109639   -6.6207673    356.56431  0.037851837  0.038295273            4 
  786000    1.1187454    -6.616972    357.34509   0.03788646  0.038288186            2 
  787000    1.0946678    -6.652159    357.34489  0.037838298  0.038281273            2 
  788000    1.1236295   -6.5601132    358.04585  0.037864409  0.038274383            3 
  789000    1.1070939   -6.6285203    356.47991  0.037651025  0.038267114            2 
  790000     1.135276   -6.6313802    357.20611  0.037679969  0.038259868            3 
  791000    1.1275847   -6.6032533    358.81056  0.037801365  0.038252478            4 
  792000    1.1442829   -6.6288385    358.53051   0.03772417  0.038244846            3 
  793000    1.1192448   -6.6329228     358.1553  0.037637169  0.038236839            2 
  794000    1.1365719   -6.6110682    358.21095  0.037595607  0.038228949            5 
  795000    1.1502092   -6.6267518    358.54992  0.037583849  0.038221289            4 
  796000    1.1181966   -6.6426823    358.07988  0.037487425  0.038213369            1 
  797000    1.1188149   -6.6492436    358.50216  0.037484542  0.038204878            3 
  798000    1.1075928   -6.6312939    360.20084  0.037614958  0.038196276            3 
  799000    1.1137835   -6.6117821    359.26562   0.03747034  0.038187538            2 
  800000    1.1308095   -6.6303456     360.4751   0.03754949  0.038179085            7 
  801000    1.1463014   -6.6181658    360.83215  0.037539758  0.038170599            2 
  802000    1.1280264    -6.594035    361.49292  0.037561608  0.038162099            3 
  803000    1.1250177   -6.6273761    361.24661   0.03748927  0.038153517            2 
  804000    1.0962884   -6.6360702    360.44837  0.037359905   0.03814494            4 
  805000    1.1147623   -6.6347696     363.0032  0.037577971  0.038136575            2 
  806000    1.1121215   -6.6398096     361.8644  0.037413606  0.038128417            1 
  807000    1.1072923   -6.5927252    362.80787  0.037464671  0.038120242            3 
  808000    1.1344129   -6.6023622    363.54455  0.037494281   0.03811202            2 
[...]
 4800000   0.48470534   -7.9532327    808.72157  0.014040305  0.012441011            7 
 4801000   0.48314882   -7.9564343    807.58992  0.014017738  0.012437083           12 
 4802000   0.47841422   -7.9406897    806.36071  0.013993487  0.012433157           10 
 4803000   0.49272857   -7.9530314    807.77554  0.014015121  0.012429235           13 
 4804000   0.48024679   -7.9544878    807.23275  0.014002788  0.012425312           12 
 4805000   0.48499988   -7.9480296    808.61757  0.014023891  0.012421389            8 
 4806000   0.48556345   -7.9558311    807.76586  0.014006205  0.012417469           12 
 4807000   0.47901913   -7.9602866    806.86397  0.013987656  0.012413551            9 
 4808000   0.48865459   -7.9689958    807.16248  0.013989921  0.012409631           18 
 4809000   0.47919517   -7.9319639    807.65736  0.013995587  0.012405715            7 
 4810000   0.48551562    -7.957807    808.54099  0.014007987  0.012401799            8 
 4811000   0.47826703   -7.9470667    808.35237  0.014001808  0.012397883           13 
 4812000   0.47600487   -7.9693722    806.79212  0.013971878  0.012393968           15 
 4813000   0.48115404   -7.9610902    807.52799  0.013981716  0.012390054           12 
 4814000   0.48187377    -7.966969    806.39373  0.013959177  0.012386144           13 
 4815000   0.48546996   -7.9578211    807.42276  0.013974087  0.012382234           11 
 4816000   0.48398631   -7.9488131    806.75245  0.013959587  0.012378325           14 
 4817000   0.48247627   -7.9662837    806.23515   0.01394774   0.01237442            8 
 4818000   0.47562449   -7.9644702    807.36047  0.013964309  0.012370514           14 
 4819000   0.47618542   -7.9565999    808.03497  0.013973075  0.012366611           14 
 4820000   0.48486841   -7.9672061    807.88758  0.013967628  0.012362712            8 
 4821000   0.48174691   -7.9683961    807.00187   0.01394942   0.01235881            9 
 4822000   0.48659305    -7.975935    806.56222  0.013938929  0.012354909            8 
 4823000   0.47400734    -7.958244    806.48413   0.01393469  0.012351009           12 
 4824000   0.48174496   -7.9773264    807.03097  0.013941248  0.012347114           14 
 4825000   0.48129678   -7.9495869    806.52939  0.013929696  0.012343223           17 
 4826000   0.47492073   -7.9580414    807.56741  0.013944734  0.012339329           11 
 4827000   0.48808006   -7.9707921    807.91944  0.013947922  0.012335435            9 
 4828000   0.48100129    -7.954038    807.78219  0.013942664  0.012331543            8 
 4829000   0.47578324   -7.9582236    807.61093  0.013936821  0.012327656            9 
 4830000   0.48216664   -7.9542365    806.44142  0.013913758  0.012323768            7 
 4831000   0.48984431   -7.9634464    807.77914  0.013933953  0.012319881           10 
 4832000   0.48926051   -7.9611219    806.93822  0.013916567  0.012315994           13 
 4833000   0.48539415   -7.9613347    807.83377  0.013929129  0.012312108           10 
 4834000   0.47993556   -7.9610383    807.92028  0.013927739  0.012308224           10 
 4835000   0.46936106    -7.956581    807.25825  0.013913448  0.012304341           17 
 4836000   0.47418599   -7.9641751    805.86661   0.01388659  0.012300458           11 
 4837000   0.47369082   -7.9710332    806.68984  0.013897902  0.012296579           10 
 4838000   0.47316669   -7.9556769    806.34566  0.013889101  0.012292701            4 
 4839000   0.47692051   -7.9684412    808.45389  0.013922537  0.012288823            9 
 4840000   0.47987639   -7.9686918    806.43435  0.013884889  0.012284945           15 
 4841000    0.4764216   -7.9506396    806.62182  0.013885248  0.012281068           10 
 4842000   0.47679515   -7.9485375    805.15851  0.013857196  0.012277198           17 
 4843000   0.46732941   -7.9796897    806.65471   0.01388008  0.012273326           12 
 4844000   0.47830334   -7.9751684    806.15162  0.013868559  0.012269453            9 
 4845000   0.47235579   -7.9714486    806.76474  0.013876242  0.012265581           13 
 4846000   0.47136038   -7.9763868    806.68002  0.013871922   0.01226171           15 
 4847000    0.4752991   -7.9506683    806.57082  0.013867183  0.012257843           13 
 4848000   0.46903803   -7.9786653    805.82471  0.013851497  0.012253978            8 
 4849000   0.47733191   -7.9584647     806.1737  0.013854638  0.012250116           15 
 4850000   0.46998371   -7.9625369    807.64407  0.013877046  0.012246253           10 
 4851000   0.47870695    -7.960261    808.02438  0.013880718  0.012242392           16 
 4852000   0.48880367   -7.9766284    805.92168  0.013841744  0.012238536           13 
 4853000    0.4709793   -7.9627022    806.81028   0.01385415  0.012234679           13 
 4854000   0.46972339   -7.9690462    806.81647  0.013851402  0.012230824           11 
 4855000    0.4723622   -7.9736465    806.64104  0.013845538  0.012226969           17 
 4856000   0.46798745   -7.9680587    808.17332  0.013868982  0.012223116           18 
 4857000   0.48371526   -7.9618019     806.7153  0.013841111  0.012219266            9 
 4858000   0.47564998   -7.9559598    805.04442    0.0138096  0.012215417            9 
 4859000   0.49014663   -7.9715298    806.23767  0.013827222  0.012211568            8 
 4860000   0.47774531   -7.9825993    808.83197  0.013868861  0.012207723           10 
 4861000    0.4800608   -7.9745325     805.4996   0.01380888  0.012203878           16 
 4862000   0.48317892    -7.972582    806.83768  0.013828974  0.012200034           21 
 4863000   0.46577974   -7.9687643    805.85618  0.013809311  0.012196191           12 
 4864000   0.48102029   -7.9791854    807.49115  0.013834484  0.012192351           16 
 4865000   0.46550424    -7.971233      805.942  0.013805105  0.012188509           12 
 4866000   0.47245304   -7.9733872    807.89759  0.013835758  0.012184671           10 
 4867000   0.47176753   -7.9722406    806.23726  0.013804487  0.012180835           10 
 4868000    0.4824136   -7.9674757     805.1731  0.013783434  0.012176997           12 
 4869000   0.47630753   -7.9740224    806.70518  0.013806825   0.01217316           13 
 4870000   0.47231616    -7.990429    805.76856  0.013787963  0.012169326           11 
 4871000   0.47091781   -7.9811095    806.03689  0.013789723  0.012165493           14 
 4872000   0.46360898   -7.9887456    806.64169  0.013797237  0.012161663           10 
 4873000   0.47116589   -7.9793705    806.23712  0.013787488  0.012157836           12 
 4874000   0.47294308   -7.9795336    806.21936  0.013784355  0.012154012            9 
 4875000   0.46180451   -7.9902797    807.59921  0.013805115  0.012150186           15 
 4876000   0.48227672   -7.9887711    806.14196  0.013777378   0.01214636           21 
 4877000   0.47535713   -7.9796957    806.91631  0.013787785  0.012142537            9 
 4878000   0.47120354   -7.9654038    805.90948  0.013767758  0.012138715           11 
 4879000   0.47261705    -7.981007    806.39517  0.013773232  0.012134892           10 
 4880000   0.46760503   -7.9772729    806.06789  0.013764821  0.012131072           12 
 4881000   0.48250673   -7.9752375    806.33789   0.01376661  0.012127257            9 
 4882000   0.46172425   -7.9635095     806.0175  0.013758321  0.012123443           10 
 4883000   0.47487424   -7.9856669    807.48295  0.013780513   0.01211963           13 
 4884000   0.46634392   -7.9794906    806.33613  0.013758124  0.012115817           10 
 4885000    0.4824135   -7.9769402    806.75104  0.013762386  0.012112006           17 
 4886000   0.48867957     -7.98621    805.71841  0.013741957  0.012108199           12 
 4887000   0.47062813   -7.9869277    807.27886  0.013765754  0.012104395           17 
 4888000   0.47269108   -7.9699935    806.23052  0.013745065  0.012100591           14 
 4889000    0.4674602   -7.9722812     806.7503  0.013751113  0.012096791           13 
 4890000   0.46838714   -7.9826655    806.33577  0.013741237   0.01209299           10 
 4891000   0.46951839   -7.9862731    805.34078  0.013721474  0.012089186           11 
 4892000   0.46415075   -7.9667357    805.68252  0.013724491  0.012085385           11 
 4893000   0.46386223   -7.9662324    806.05323     0.013728  0.012081586           13 
 4894000   0.46488249   -7.9689699    805.70072  0.013719192  0.012077789           10 
 4895000   0.46549262   -7.9861924    806.03462  0.013722074  0.012073992           18 
 4896000     0.463055    -7.976045    806.89775  0.013733962    0.0120702           15 
 4897000   0.46259292    -7.988959    806.06174  0.013716931  0.012066405           17 
 4898000   0.45629964   -7.9874661    805.77449  0.013709243  0.012062611           17 
 4899000   0.48117464   -7.9866323     806.2032  0.013713737  0.012058823           15 
 4900000   0.45993436   -8.0020212     806.7195  0.013719719  0.012055034           15 
 4901000   0.47986434   -7.9819597    806.44772  0.013712299  0.012051245           11 
 4902000   0.46894955   -7.9781885    805.66895  0.013696263  0.012047462           15 
 4903000    0.4624642   -7.9797264    806.88207  0.013714088  0.012043675           15 
 4904000   0.47081221   -7.9765554    806.82971  0.013710402  0.012039891           10 
 4905000   0.45268223   -7.9701459     805.3037   0.01368168  0.012036107           16 
 4906000   0.47296413   -7.9816812    806.81616  0.013704582  0.012032327           10 
 4907000   0.46662804   -7.9851879    806.51483  0.013696672  0.012028544           14 
 4908000   0.46751865   -7.9849136    806.90326  0.013700476  0.012024763           15 
 4909000   0.47249974   -7.9704699    806.45115  0.013690011  0.012020987           15 
 4910000   0.48051163   -7.9855601    806.35387  0.013685571   0.01201721           12 
 4911000   0.47442052   -7.9902998    806.33718  0.013682502  0.012013435           13 
 4912000   0.47655332   -7.9788928    806.99272  0.013690837  0.012009666           13 
 4913000   0.47534496   -7.9797587    806.07197  0.013672433  0.012005897           16 
 4914000    0.4800339   -7.9733889    805.89349  0.013666624  0.012002127            9 
 4915000   0.46725618   -7.9965426     808.0741  0.013700816   0.01199836           10 
 4916000   0.46705849   -7.9714243    805.14452  0.013648368  0.011994596           10 
 4917000   0.46821351   -7.9781633     806.6298  0.013670765   0.01199083           13 
 4918000     0.455575   -7.9973745    805.91879  0.013655937  0.011987066           14 
 4919000   0.46900936   -7.9913458    805.02709  0.013638055  0.011983304            8 
 4920000   0.46079922   -7.9892323    806.48358  0.013659952  0.011979544           11 
 4921000   0.45692501   -7.9790257    806.02376   0.01364939  0.011975785            9 
 4922000   0.46402033   -7.9917886    805.82669   0.01364328  0.011972027           11 
 4923000   0.45456725   -7.9952557    807.92982  0.013676109  0.011968268            6 
 4924000   0.47094538   -7.9895375    805.64386  0.013634644  0.011964514           13 
 4925000   0.45620522   -7.9891644    806.12136  0.013639955  0.011960758           15 
 4926000   0.45832474   -7.9723126     805.2032  0.013621654  0.011957011           11 
 4927000    0.4629283   -7.9820199    807.12655   0.01365142  0.011953261            6 
 4928000   0.45434699   -7.9962597    805.83228  0.013626763  0.011949513           15 
 4929000   0.46982871   -7.9795799    806.36198  0.013632954  0.011945764           11 
 4930000   0.47396081   -7.9832785    806.53499  0.013633113  0.011942019           11 
 4931000   0.46212515   -8.0019394    805.65279   0.01361544  0.011938277            8 
 4932000   0.47069142   -7.9792858    807.41541  0.013642461  0.011934535           12 
 4933000   0.45653451   -7.9863518    806.48669  0.013624007  0.011930793           10 
 4934000   0.45777045   -7.9852387     805.2708  0.013600709  0.011927052           11 
 4935000   0.47095012   -8.0010558    805.85309  0.013607786  0.011923313            9 
 4936000   0.45823844   -7.9921991    804.85992  0.013588262  0.011919577            7 
 4937000   0.45851154   -7.9918601    807.12137  0.013623681   0.01191584           10 
 4938000   0.46953112   -7.9890126    804.88997  0.013583265  0.011912107            8 
 4939000    0.4551766   -7.9830235    805.36733  0.013588569  0.011908374            9 
 4940000   0.45914653   -8.0059296    806.18596  0.013599628  0.011904642           10 
 4941000   0.46507518   -7.9868954    806.40496  0.013600569  0.011900912           12 
 4942000   0.45938883   -7.9873336     805.4137  0.013581103  0.011897185           10 
 4943000    0.4683291   -7.9784309    806.50652  0.013596779   0.01189346           10 
 4944000   0.46218012   -7.9950253    806.35854  0.013591534  0.011889735           14 
 4945000    0.4522086   -8.0022658    806.01933  0.013583069  0.011886011           12 
 4946000   0.45163054   -7.9984027    806.56058  0.013589442  0.011882284            9 
 4947000   0.45606582   -7.9841694    806.17641  0.013580224  0.011878563           12 
 4948000   0.45006444   -7.9859458     804.8962  0.013555918  0.011874842            9 
 4949000   0.45202692   -7.9859765    806.94247  0.013587635  0.011871125           11 
 4950000   0.46198003   -7.9843649     805.1788  0.013555199  0.011867408           13 
 4951000   0.46602945   -7.9848197    805.96021  0.013565613  0.011863691           11 
 4952000   0.45486488    -8.007488    806.57233  0.013573175  0.011859976           19 
 4953000   0.46504305   -7.9831581    805.14463  0.013546414  0.011856261            7 
 4954000    0.4564768   -7.9889779    806.54635  0.013567258  0.011852551            8 
 4955000   0.45272496   -7.9966228    806.56772  0.013564879  0.011848841            8 
 4956000   0.46110191   -7.9917207    805.66476  0.013546959  0.011845133           19 
 4957000   0.45262031   -8.0096502    806.09977  0.013551539  0.011841424           10 
 4958000   0.45276484   -7.9752657    806.12837  0.013549287  0.011837715           12 
 4959000   0.45894826   -7.9760231    804.97455  0.013527165  0.011834011            9 
 4960000   0.46138494   -7.9906239    806.71191  0.013553627   0.01183031            8 
 4961000   0.46559745   -7.9847801    804.93871   0.01352111  0.011826611           10 
 4962000   0.45993394   -8.0004574    805.67018  0.013530669  0.011822913           10 
 4963000   0.44856949   -7.9942558    806.20777   0.01353697  0.011819216           16 
 4964000   0.45528466    -7.985355    806.38615  0.013537237  0.011815521            8 
 4965000    0.4590224   -7.9784898     805.6185  0.013521626  0.011811828           14 
 4966000   0.45335243    -8.005201    806.32475  0.013530755  0.011808135            8 
 4967000   0.44273145   -8.0018396    805.61471  0.013516118  0.011804439           13 
 4968000   0.45865663   -7.9965141    805.62871  0.013513632  0.011800744           12 
 4969000   0.46155576   -7.9927368    805.61832  0.013510739  0.011797054            9 
 4970000   0.45254307   -7.9973946    806.84749   0.01352863  0.011793363           14 
 4971000   0.46110714   -7.9997067    806.08027  0.013513047  0.011789672            9 
 4972000   0.45927293   -8.0109582    804.81444  0.013489113  0.011785981            9 
 4973000   0.45087155   -8.0098566    806.79623   0.01351961  0.011782297           10 
 4974000   0.46265758   -8.0032886    805.98173  0.013503246   0.01177861           10 
 4975000    0.4626327   -7.9789041    804.91001   0.01348258  0.011774927            9 
 4976000   0.45348335   -8.0037244    805.54023  0.013490424  0.011771246           12 
 4977000   0.45201212   -7.9982878     805.1945  0.013481925  0.011767564           12 
 4978000   0.45206831   -8.0038516    806.22371  0.013496446  0.011763886           12 
 4979000   0.44983613    -7.997515    805.89076  0.013488163   0.01176021            9 
 4980000   0.45958661    -7.982932    806.01825  0.013487588  0.011756533            9 
 4981000   0.45560437   -7.9910245    805.62124  0.013478238  0.011752858           13 
 4982000   0.45886154   -7.9952855    804.68059  0.013459799  0.011749182           12 
 4983000   0.44460755   -8.0189482    805.55488  0.013471719   0.01174551           10 
 4984000   0.45973624   -8.0090318    806.07921  0.013477782  0.011741836           12 
 4985000   0.45035459   -7.9988315    804.93511  0.013455953  0.011738164            8 
 4986000    0.4594968   -8.0035204    807.18228  0.013490812  0.011734499           11 
 4987000   0.45422821   -8.0001317     806.5361  0.013477309  0.011730831           13 
 4988000   0.45793942   -7.9975915    804.48189  0.013440288  0.011727164           10 
 4989000   0.45147354   -7.9895206    806.89543  0.013477908    0.0117235            9 
 4990000   0.45185787   -7.9953014    806.39001  0.013466767   0.01171984           10 
 4991000   0.45199261   -8.0089129    805.89804  0.013455855  0.011716177           12 
 4992000   0.44924915   -8.0086692     806.0312  0.013455382  0.011712517           11 
 4993000   0.45497171   -8.0095286    805.64839  0.013446298  0.011708858           16 
 4994000   0.45268813   -7.9997165    805.96433  0.013448877  0.011705203           14 
 4995000   0.44593223   -8.0111106    806.72536  0.013458882   0.01170155           10 
 4996000     0.460658   -8.0018144    805.89542  0.013442344  0.011697896            9 
 4997000   0.45763416   -8.0249391       805.32  0.013430058  0.011694248           10 
 4998000   0.43954162   -8.0091151    805.59103   0.01343189  0.011690597           10 
 4999000   0.44985131   -7.9870991    806.71743   0.01344798  0.011686949           11 
 5000000   0.44983509   -7.9952205    805.80193  0.013430032  0.011683305           10 
 5001000   0.45028607   -8.0092246    806.44981  0.013438142  0.011679659            9 
 5002000   0.45315608    -7.996129    805.43477  0.013418545  0.011676015           12 
 5003000   0.45899021   -8.0008958    805.85664   0.01342289   0.01167237           12 
 5004000    0.4437317   -8.0009057    805.83682  0.013419878  0.011668727            7 
 5005000   0.44762371    -7.996413     806.1196  0.013421905  0.011665087           11 
 5006000   0.44847642   -8.0126946     804.7968  0.013397203  0.011661446           13 
 5007000   0.44775559    -7.997471    804.71785  0.013393214  0.011657806           11 
 5008000   0.44429763   -8.0106636    805.29635  0.013400166   0.01165417           11 
 5009000   0.43431076    -8.012401    804.54144  0.013384931  0.011650531           14 
 5010000   0.45138175   -8.0028781    805.86544  0.013404282  0.011646898           14 
 5011000   0.43907794   -8.0023955    806.06593  0.013404941  0.011643266           14 
 5012000   0.44680727    -7.998642    805.32694   0.01338998  0.011639635           10 
Loop time of 11212.1 on 48 procs for 5000000 steps with 4000 atoms

Performance: 77059.366 tau/day, 445.945 timesteps/s
99.4% CPU use with 48 MPI tasks x no OpenMP threads

MPI task timing breakdown:
Section |  min time  |  avg time  |  max time  |%varavg| %total
---------------------------------------------------------------
Pair    | 692.51     | 767.56     | 798.8      |  60.8 |  6.85
Neigh   | 71.046     | 72.81      | 73.808     |   7.8 |  0.65
Comm    | 668.95     | 702.93     | 791.1      |  70.0 |  6.27
Output  | 13.559     | 13.563     | 13.646     |   0.3 |  0.12
Modify  | 9513.8     | 9541.3     | 9564.2     |  12.1 | 85.10
Other   |            | 113.9      |            |       |  1.02

Nlocal:        83.3333 ave          93 max          75 min
Histogram: 1 2 11 10 2 8 6 4 2 2
Nghost:        1875.42 ave        1898 max        1855 min
Histogram: 2 3 5 11 5 6 7 5 3 1
Neighs:        11700.7 ave       13458 max       10469 min
Histogram: 5 5 7 6 7 9 4 0 2 3
FullNghs:      23401.8 ave       26830 max       20664 min
Histogram: 2 2 9 10 6 8 7 1 1 2

Total # of neighbors = 1123288
Ave neighs/atom = 280.82200
Neighbor list builds = 268918
Dangerous builds = 2

#clear
#
#next RN
#
#jump SELF
Total wall time: 3:06:55
