
units lj                  # Use reduced LJ style units
atom_style atomic         # Uncharged point particles
atom_modify map hash      # Needed for indexing of clusters etc
                          # Used to be able to find where atoms are in relation to each other.

# Define a lattice with which to populate the simulation cell. With units
# set to 'lj' the second argument to the lattice command is the reduced
# density rho* and the spacings are multiples of that required to acheive
# that density. Also define a simulation cell called 'box' in lattice units
# and fill it with atoms. Here we're creating a box which is ten lattice
# constants in each direction.
lattice fcc 1.0 spacing 1 1 1                 # All equal sizes - gives the right reduced density.
Lattice spacing in x,y,z = 1.5874011 1.5874011 1.5874011

region box block 0 10 0 10 0 10 units lattice # Defines a region, "box", in lattice units
create_box 1 box                              # Creates a simulation box as specified above,
Created orthogonal box = (0.0000000 0.0000000 0.0000000) to (15.874011 15.874011 15.874011)
  4 by 4 by 4 MPI processor grid
                                              # with one type of atom
create_atoms 1 box                            # Creates particles on lattice points
Created 4000 atoms
  using lattice units in orthogonal box = (0.0000000 0.0000000 0.0000000) to (15.874011 15.874011 15.874011)
  create_atoms CPU = 0.002 seconds


# Set the mass of the first (and only) atom type.
mass 1 1.0

# Lennard-Jones interactions between particles, 3.5 sigma cut-off. Apply
# long range tail corrections to energy and pressure and set all coefficients
# to unity since we work in reduced units here. Note that this doesn't shift
# the potential such that it goes to zero at the cutoff. That would require
# pair_modify('shift', 'yes').
pair_style lj/cut  3.5      # non-GPU version
pair_modify tail  yes
pair_coeff 1  1  1.0  1.0   # Intearaction between 1 and 1 set with epsilon = 1 and sigma = 1

write_data data.*
System init for write_data ...
Neighbor list info ...
  update every 1 steps, delay 10 steps, check yes
  max neighbors/atom: 2000, page size: 100000
  master list distance cutoff = 3.8
  ghost atom cutoff = 3.8
  binsize = 1.9, bins = 9 9 9
  1 neighbor lists, perpetual/occasional/extra = 1 0 0
  (1) pair lj/cut, perpetual
      attributes: half, newton on
      pair build: half/bin/atomonly/newton
      stencil: half/bin/3d
      bin: standard

#############################
#   M E L T   S Y S T E M   #
#############################

velocity all create 2.4 5300450 mom yes dist gaussian # Assign velocities
                                                    # Temperature 2.4, random number seed, zero linear momentum
						                                                        # Gaussian distribution

timestep 0.002   # simulation timestep
thermo 100       # output thermodynamic data every 100 steps

# Define a fix  in this case with index 1 applied to all
# particles in the simulation. This fix is for simulations
# in the anisotropic NPT ensemble. Note that we use the MTK
# correction.
fix 1 all npt temp 2.4 2.4 0.1 iso 5.68 5.68 0.5 mtk yes tchain 5 pchain 5 # Use NPT ensemble
                                                                         # Set temperature and pressure and damping
                                                                         # Numbers of thermostats in chain and in barostat
run 1000         # run for 10000 steps
Per MPI rank memory allocation (min/avg/max) = 3.630 | 3.630 | 3.630 Mbytes
Step Temp E_pair E_mol TotEng Press Volume 
       0          2.4   -8.3859253            0   -4.7868253   -2.2405722         4000 
     100    1.2568457    -6.520638            0   -4.6358408    5.4054415    4090.5418 
     200    1.4749962   -6.3123998            0   -4.1004586    5.9706789    4139.2832 
     300    1.6124068   -6.0569481            0   -3.6389426    5.7397492    4264.5301 
     400    1.7168752   -5.7431758            0   -3.1685069    5.9205944    4390.8204 
     500    1.7900089   -5.4300953            0   -2.7457532    5.8244207    4548.9907 
     600    1.8749878   -5.1356604            0   -2.3238818    5.7834378    4705.6354 
     700    1.9882515   -4.8678934            0   -1.8862617    5.9915018     4837.506 
     800    2.1327811   -4.6988753            0   -1.5005035    5.7798366    4974.3967 
     900    2.2952123   -4.5871705            0   -1.1452128    5.7568633    5062.5276 
    1000    2.3419515   -4.4435081            0  -0.93145903    5.7034406     5160.776 
Loop time of 0.198735 on 64 procs for 1000 steps with 4000 atoms

Performance: 869498.752 tau/day, 5031.821 timesteps/s
99.6% CPU use with 64 MPI tasks x no OpenMP threads

MPI task timing breakdown:
Section |  min time  |  avg time  |  max time  |%varavg| %total
---------------------------------------------------------------
Pair    | 0.058924   | 0.062813   | 0.067042   |   0.7 | 31.61
Neigh   | 0.013935   | 0.014656   | 0.015489   |   0.3 |  7.37
Comm    | 0.088121   | 0.09263    | 0.096641   |   0.6 | 46.61
Output  | 0.00029066 | 0.00029582 | 0.00034318 |   0.0 |  0.15
Modify  | 0.024836   | 0.026485   | 0.028199   |   0.5 | 13.33
Other   |            | 0.001855   |            |       |  0.93

Nlocal:        62.5000 ave          69 max          56 min
Histogram: 7 2 3 12 7 7 13 5 2 6
Nghost:        1253.14 ave        1273 max        1234 min
Histogram: 2 7 6 8 11 5 9 8 7 1
Neighs:        5540.11 ave        6253 max        4768 min
Histogram: 2 5 5 12 10 8 5 5 7 5

Total # of neighbors = 354567
Ave neighs/atom = 88.641750
Neighbor list builds = 87
Dangerous builds = 24

# Equilibrate just above the melting temperature to avoid step fn in T

fix 1 all npt temp 1.25 1.25 0.1 iso 5.68 5.68 0.5 mtk yes tchain 5 pchain 5
run 1000
Per MPI rank memory allocation (min/avg/max) = 3.631 | 3.631 | 3.631 Mbytes
Step Temp E_pair E_mol TotEng Press Volume 
    1000    2.3419515   -4.4435081            0  -0.93145903    5.7034406     5160.776 
    1100    1.9505664   -4.6860744            0   -1.7609562    5.6875043    4990.5455 
    1200    1.7145364   -4.9478458            0   -2.3766842    5.6803952    4813.9806 
    1300    1.5789627   -5.2178493            0   -2.8499973     5.626771    4671.2595 
    1400     1.466042   -5.4083802            0    -3.209867    5.7430009    4553.7478 
    1500    1.3483489   -5.5238765            0   -3.5018588    5.7608991    4484.5069 
    1600    1.3065005   -5.6674797            0   -3.7082189    5.6719356    4427.5375 
    1700    1.2613667   -5.7293973            0   -3.8378202     5.676448    4393.2208 
    1800    1.2706154   -5.8058844            0   -3.9004378    5.6537836    4362.5534 
    1900    1.2416506   -5.8085169            0   -3.9465067    5.6540218    4357.9646 
    2000    1.2530204     -5.85012            0   -3.9710592    5.4158949    4363.6997 
Loop time of 0.197252 on 64 procs for 1000 steps with 4000 atoms

Performance: 876038.422 tau/day, 5069.667 timesteps/s
99.9% CPU use with 64 MPI tasks x no OpenMP threads

MPI task timing breakdown:
Section |  min time  |  avg time  |  max time  |%varavg| %total
---------------------------------------------------------------
Pair    | 0.058069   | 0.061885   | 0.06585    |   0.7 | 31.37
Neigh   | 0.011963   | 0.012631   | 0.013377   |   0.3 |  6.40
Comm    | 0.090272   | 0.095052   | 0.09909    |   0.7 | 48.19
Output  | 0.00028369 | 0.00029182 | 0.00043637 |   0.0 |  0.15
Modify  | 0.023287   | 0.02498    | 0.026987   |   0.6 | 12.66
Other   |            | 0.002412   |            |       |  1.22

Nlocal:        62.5000 ave          68 max          53 min
Histogram: 1 1 3 0 5 10 20 8 12 4
Nghost:        1399.92 ave        1420 max        1382 min
Histogram: 6 4 6 9 5 11 12 6 2 3
Neighs:        6535.45 ave        7153 max        5253 min
Histogram: 1 0 2 4 2 9 13 19 7 7

Total # of neighbors = 418269
Ave neighs/atom = 104.56725
Neighbor list builds = 74
Dangerous builds = 4


# Small amount of linear quench

fix 1 all npt temp 1.25 ${temp} 0.1 iso 5.68 5.68 0.5 mtk yes tchain 5 pchain 5
fix 1 all npt temp 1.25 1.39 0.1 iso 5.68 5.68 0.5 mtk yes tchain 5 pchain 5
run 2000
Per MPI rank memory allocation (min/avg/max) = 3.631 | 3.631 | 3.631 Mbytes
Step Temp E_pair E_mol TotEng Press Volume 
    2000    1.2530204     -5.85012            0   -3.9710592    5.4158949    4363.6997 
    2100    1.2190783   -5.8475808            0   -4.0194205    5.4525758    4357.1802 
    2200    1.2711272    -5.855697            0   -3.9494828    5.6170599    4342.7387 
    2300    1.2787896    -5.836082            0   -3.9183772    5.6831149    4344.4853 
    2400    1.2765378   -5.7910651            0   -3.8767372    5.6429599    4369.3309 
    2500    1.2930917   -5.8133918            0   -3.8742391    5.6054069    4366.0045 
    2600    1.2778565   -5.8135296            0    -3.897224    5.5975432    4365.9311 
    2700    1.2847434   -5.7891456            0   -3.8625122    5.5083258    4383.4334 
    2800    1.3078104   -5.7905123            0   -3.8292871    5.5914368    4376.5178 
    2900    1.3470706   -5.7850366            0   -3.7649359    5.7019795    4373.4414 
    3000    1.3065021   -5.7261133            0   -3.7668501    5.8007717     4386.347 
    3100    1.3367901   -5.7013259            0    -3.696642     5.740315    4404.4981 
    3200    1.3324012   -5.7440903            0   -3.7459882    5.5125712    4406.6859 
    3300    1.3557972   -5.7141695            0   -3.6809822    5.7660218    4398.6226 
    3400    1.3709209   -5.6859901            0   -3.6301228    5.8190992    4407.2699 
    3500    1.3230654   -5.6883041            0   -3.7042022    5.8518477    4400.3936 
    3600    1.3352918    -5.677615            0   -3.6751781    5.5368439    4433.0176 
    3700    1.3655611   -5.6804934            0   -3.6326639    5.5351418    4433.7695 
    3800    1.4156931   -5.6895966            0   -3.5665878    5.5114676    4435.4703 
    3900    1.3516587   -5.6525342            0    -3.625553    5.5038928    4449.5527 
    4000    1.3682331    -5.631375            0   -3.5795385    5.6695621    4446.0061 
Loop time of 0.400299 on 64 procs for 2000 steps with 4000 atoms

Performance: 863355.598 tau/day, 4996.271 timesteps/s
100.0% CPU use with 64 MPI tasks x no OpenMP threads

MPI task timing breakdown:
Section |  min time  |  avg time  |  max time  |%varavg| %total
---------------------------------------------------------------
Pair    | 0.12315    | 0.1286     | 0.13319    |   0.6 | 32.13
Neigh   | 0.022865   | 0.023581   | 0.024346   |   0.2 |  5.89
Comm    | 0.18293    | 0.18922    | 0.19699    |   0.8 | 47.27
Output  | 0.00078013 | 0.00080009 | 0.0010884  |   0.0 |  0.20
Modify  | 0.048547   | 0.052594   | 0.056906   |   0.8 | 13.14
Other   |            | 0.005504   |            |       |  1.38

Nlocal:        62.5000 ave          69 max          57 min
Histogram: 8 3 4 10 6 17 8 2 3 3
Nghost:        1386.12 ave        1407 max        1368 min
Histogram: 4 5 9 9 8 10 12 3 1 3
Neighs:        6424.11 ave        7124 max        5705 min
Histogram: 4 3 8 9 7 6 10 11 4 2

Total # of neighbors = 411143
Ave neighs/atom = 102.78575
Neighbor list builds = 134
Dangerous builds = 0

#############################
# F R E E Z E  S Y S T E M  #
#############################

# Define solid atoms. This closely follows ten Wolde  Ruiz-Montero and Frenkel  Faraday Discuss  1996  104  93-110
# Compute components of the per-atom q6 vector
compute q6 all orientorder/atom degrees 1 6 components 6 nnn NULL cutoff 1.3 # compute the Q6 parameter.
                                                                             # Use all neighbours within 1.3 unit cell.

# get number of connections
compute coord_number all coord/atom orientorder q6 0.5

# An atom is solid if it has 8 or more connections (of a possible 14)
variable is_solid atom c_coord_number>=8
group solid dynamic all var is_solid    # Must be dynamic to update
dynamic group solid defined

# do clustering
compute cluster solid cluster/atom 1.3 # Create a cluster where all atoms within are solid and max 1.3 units from another member

# define chunks one chunk per cluster
compute clus_chunks solid chunk/atom c_cluster nchunk every compress yes  # Says which atoms are in which chunk

# count the size of each chunk
compute size_chunks solid property/chunk clus_chunks count


# Find the maximum entry in the vector of chunk sizes
variable max_n equal max(c_size_chunks)


# Thermo style which includes this variable
thermo_style custom step temp pe vol v_max_n

thermo ${N}  # Print the thermo information every 100 steps
thermo 100  

# Reset the npt fix at a lower temperature (below freezing)
fix 1  all npt temp  ${temp} ${temp}  0.1  iso  5.68  5.68  0.5  mtk yes tchain  5  pchain  5
fix 1  all npt temp  1.39 ${temp}  0.1  iso  5.68  5.68  0.5  mtk yes tchain  5  pchain  5
fix 1  all npt temp  1.39 1.39  0.1  iso  5.68  5.68  0.5  mtk yes tchain  5  pchain  5

dump dmp2 all dcd ${N} traj_${rand}.dcd
dump dmp2 all dcd 100 traj_${rand}.dcd
dump dmp2 all dcd 100 traj_462431.dcd


# fix rnuntil all halt ${N} v_max_n >= 3980 error soft message no   # Stop when solidified


run 100000 # 5000000  # Run for this many steps
Neighbor list info ...
  update every 1 steps, delay 10 steps, check yes
  max neighbors/atom: 2000, page size: 100000
  master list distance cutoff = 3.8
  ghost atom cutoff = 3.8
  binsize = 1.9, bins = 9 9 9
  4 neighbor lists, perpetual/occasional/extra = 1 3 0
  (1) pair lj/cut, perpetual
      attributes: half, newton on
      pair build: half/bin/atomonly/newton
      stencil: half/bin/3d
      bin: standard
  (2) compute orientorder/atom, occasional
      attributes: full, newton on
      pair build: full/bin/atomonly
      stencil: full/bin/3d
      bin: standard
  (3) compute coord/atom, occasional
      attributes: full, newton on
      pair build: full/bin/atomonly
      stencil: full/bin/3d
      bin: standard
  (4) compute cluster/atom, occasional
      attributes: full, newton on
      pair build: full/bin/atomonly
      stencil: full/bin/3d
      bin: standard
Per MPI rank memory allocation (min/avg/max) = 9.312 | 9.316 | 9.322 Mbytes
Step Temp PotEng Volume v_max_n 
    4000    1.3682331    -5.631375    4446.0061            3 
    4100    1.3961408   -5.6181027    4446.3987            2 
    4200    1.4054738   -5.5751095    4470.4702            3 
    4300    1.3904962    -5.612871    4445.6287            3 
    4400    1.3575725     -5.61395    4449.9487            2 
    4500    1.3887962   -5.5976626    4470.7432            3 
    4600    1.4075952   -5.5871452    4442.5677            2 
    4700    1.3896679   -5.6210153    4451.1748            4 
    4800    1.4007275   -5.6225245    4460.3284            2 
    4900    1.3968772   -5.6155875    4446.3254            3 
    5000    1.3650147   -5.6221531    4438.2051            2 
    5100    1.4211869   -5.6525566     4438.436            1 
    5200    1.3490431   -5.6376016    4466.0822            2 
    5300    1.3897365   -5.6391295    4451.9983            4 
    5400    1.3994643   -5.6330324    4443.2713            2 
    5500    1.4084351   -5.6063981    4458.0781            1 
    5600    1.3692623   -5.6032199    4449.1364            2 
    5700    1.3806816   -5.6325214    4452.3229            4 
    5800    1.3671676   -5.6457559    4434.1246            3 
    5900    1.3986625   -5.6171313    4443.5533            1 
    6000    1.4009615   -5.5884455    4451.1472            2 
    6100    1.3850804   -5.5950251    4459.0366            2 
    6200    1.3639632   -5.6282365    4440.6406            4 
    6300    1.3946463   -5.6433091    4423.0053            3 
    6400    1.3852559   -5.6277082      4451.02            2 
    6500     1.376494   -5.5898646    4462.9928            2 
    6600    1.3783639   -5.6187245    4463.4758            6 
    6700    1.3929937   -5.6482504    4430.4315            4 
    6800    1.4241157   -5.6188936    4445.8317            2 
    6900    1.3872412   -5.6084276    4439.8506            1 
    7000    1.3706902   -5.6071142    4459.1095            2 
    7100    1.3900423   -5.6340184    4453.7402            1 
    7200      1.37716    -5.640713    4445.7816            2 
    7300    1.3989267   -5.6061049    4448.1986            2 
    7400    1.3825477   -5.6143882    4430.1268            2 
    7500     1.388882   -5.6277127     4448.494            5 
    7600    1.3868439   -5.6349153    4461.0838            3 
    7700     1.391075   -5.6730062    4417.2436            4 
    7800    1.3960527    -5.618627     4435.778            2 
    7900    1.3822918   -5.6033189    4452.0666            2 
    8000    1.3963072   -5.5662228    4471.3569            2 
    8100    1.3853478   -5.5928191    4468.3777            3 
    8200    1.3768832   -5.5999841       4444.8            3 
    8300     1.383609   -5.6048446    4447.1093            2 
    8400    1.3941046    -5.667153    4447.6416            3 
    8500    1.3799123   -5.6593241    4444.5563            2 
    8600    1.4117188   -5.6218727    4444.2638            4 
    8700    1.4102247   -5.6136687    4436.4814            5 
    8800    1.3676962   -5.6330327    4433.4567            5 
    8900    1.3868187   -5.6111012    4461.5488            2 
    9000    1.4026568   -5.6234209    4462.7702            1 
    9100    1.3803461   -5.6138862    4456.9797            2 
    9200    1.3957456   -5.5943089    4472.0764            4 
    9300    1.3919935   -5.6474223    4443.9715            2 
    9400    1.4054265   -5.6512398    4436.3496            8 
    9500    1.3797601   -5.6023769     4446.027            3 
    9600    1.4085197   -5.6007938    4463.8345            2 
    9700    1.3505264   -5.5991682    4463.5256            2 
    9800    1.3688185   -5.6691292     4436.322            2 
    9900    1.3808229   -5.6367125    4432.0719            4 
   10000    1.3944298   -5.6276537    4452.6284            2 
   10100    1.3751444   -5.6237089    4448.6017            1 
   10200    1.4017986   -5.6129577    4454.7633            2 
   10300    1.4165599   -5.6419183     4438.145            3 
   10400    1.3907565   -5.6106916    4440.7343            2 
   10500    1.3524798   -5.6552253    4462.0354            2 
   10600     1.363458   -5.6540725    4430.3825            2 
   10700    1.4145942   -5.6385234    4439.1271            2 
   10800    1.3723987   -5.6101086    4446.6609            1 
   10900    1.4071087   -5.5952563    4463.0676            2 
   11000    1.3880921    -5.628402    4476.6267            3 
   11100    1.3689697   -5.6343511    4462.3485            2 
   11200    1.4074464   -5.6601682    4430.5176            2 
   11300    1.3814486   -5.6351039    4419.1768            1 
   11400    1.3816032   -5.5911804    4459.0538            1 
   11500    1.3805879   -5.6042371    4459.4898            5 
   11600    1.3780201   -5.6297547    4430.6779            5 
   11700    1.3797201   -5.6192185    4435.0508            2 
   11800    1.3892191   -5.6209969    4472.9432            2 
   11900    1.3864642   -5.5721147    4491.4065            3 
   12000    1.4149039   -5.5655507    4467.8444            2 
   12100     1.393136   -5.5628751    4427.8952            1 
   12200    1.3804718   -5.5871115    4447.2001            2 
   12300    1.3966509   -5.6203342    4478.5619            6 
   12400    1.3601372   -5.6023377    4460.0307            6 
   12500    1.3946152    -5.627539    4451.3932            6 
   12600    1.4067212   -5.6178609    4454.7658            2 
   12700    1.3706384   -5.6065378    4468.9042            3 
   12800    1.3785185   -5.6148591    4449.3162            3 
   12900    1.3988486   -5.6273445    4426.5738            2 
   13000    1.4057045   -5.6110771    4449.2719            4 
   13100    1.4055457   -5.5925537    4452.3137            2 
   13200    1.3646582   -5.6029999    4439.1609            2 
   13300      1.38766   -5.6411921    4456.7646            3 
   13400    1.4048709   -5.6081657    4477.1563            3 
   13500    1.3760686   -5.6202201    4453.0355            1 
   13600    1.3947477   -5.6038605    4443.7363            4 
   13700    1.3938331   -5.6231889    4440.7872            3 
   13800    1.3685176   -5.6398797    4433.1341            2 
   13900    1.3868678   -5.6303838    4459.9104            1 
   14000    1.3821235   -5.5963694    4447.5406            4 
   14100    1.3966267   -5.5937581    4418.1192            8 
   14200    1.4236419    -5.589972    4455.1145            3 
   14300      1.37633   -5.6060435    4464.0487            2 
   14400    1.3899315   -5.6719544    4450.9119            1 
   14500     1.405449   -5.6642353    4442.3925            4 
   14600    1.4044303   -5.6335599    4451.6534            4 
   14700    1.3784144   -5.6591383     4443.486            3 
   14800     1.386744   -5.6135257    4443.6793            4 
   14900    1.4044569   -5.6091977     4442.017            2 
   15000    1.3741026   -5.6100602    4456.4864            3 
   15100    1.3766652   -5.5928505    4458.0707            2 
   15200    1.4129441   -5.6981347    4433.0709            3 
   15300    1.3771317   -5.6642718    4454.8414            1 
   15400    1.3859458   -5.6162964    4451.6819            2 
   15500    1.4010779   -5.5705625    4458.2632            2 
   15600    1.3947296   -5.5896578    4445.7362            2 
   15700    1.3943934   -5.5948376    4453.0359            2 
   15800     1.355455   -5.6295989    4454.1108            6 
   15900    1.3895621   -5.6364013    4457.1139            2 
   16000    1.4367619   -5.6533904    4456.1808            2 
   16100    1.3977272    -5.636991    4453.9559            2 
   16200    1.3646054   -5.6499302    4468.6743            2 
   16300    1.4036124   -5.6156899    4451.4579            1 
   16400    1.3707251   -5.6008728    4450.6008            1 
   16500    1.4063588   -5.6002002    4453.0984            2 
   16600    1.3786059   -5.6156811    4451.4993            2 
   16700    1.3645918   -5.6188171    4461.3974            3 
   16800    1.3794488   -5.5994304    4460.1321            1 
   16900    1.4191641   -5.5857927    4450.8427            3 
   17000    1.3899068   -5.6006851    4431.5359            3 
   17100    1.3756142   -5.6368115    4448.9137            4 
   17200    1.3949836   -5.6177956    4462.0638            5 
   17300    1.3868052   -5.6640521    4439.9013            2 
   17400    1.3742438   -5.6448671    4425.7094            4 
   17500    1.3842188   -5.6059715    4443.9009            3 
   17600     1.390463   -5.5788615    4454.3905            3 
   17700    1.3662251    -5.602307     4446.665            2 
   17800    1.3911259   -5.5970649    4439.1863            2 
   17900     1.431111   -5.5758628    4468.6286            1 
   18000    1.4013611   -5.6097035    4470.8982            2 
   18100    1.3663899   -5.6262349    4466.7405            4 
   18200    1.3924793   -5.6206715     4440.754            2 
   18300    1.3995298   -5.6563925    4425.6458            1 
   18400    1.4217528   -5.6454366    4465.2646            2 
   18500     1.376697   -5.6383461    4462.3853            6 
   18600    1.3928892   -5.6298542    4454.1596            3 
   18700    1.3767691   -5.6445935    4437.5824            3 
   18800    1.3707605   -5.6449034     4435.761            2 
   18900     1.416012   -5.6497658    4442.6285            2 
   19000    1.3649197   -5.6297481    4435.0046            2 
   19100    1.3754486   -5.7119617    4413.9837            3 
   19200    1.3712055   -5.6584466     4437.279            5 
   19300     1.383072   -5.6168557    4441.7687            2 
   19400    1.3971528   -5.5795445    4464.8645            2 
   19500     1.402154   -5.6034596    4461.7374            3 
   19600    1.3993556   -5.6205252    4457.7703            4 
   19700    1.3762418   -5.6415648    4459.9934            4 
   19800    1.3942815   -5.6052761    4463.0679            3 
   19900    1.4094471     -5.59633      4454.83            3 
   20000    1.3736367   -5.6201317    4433.3766            2 
   20100    1.3922219   -5.6438434    4421.6871            2 
   20200    1.3769664    -5.649637    4432.4619            3 
   20300    1.3821632   -5.6181412    4444.5993            3 
   20400    1.3814041   -5.5795256    4455.3016            2 
   20500    1.4328978   -5.6058004    4463.5144            6 
   20600    1.4037839   -5.6225796    4445.9743            2 
   20700    1.3687513   -5.6328647    4447.7074            2 
   20800    1.4045524   -5.6199444    4443.0552            2 
   20900     1.384858   -5.6267292    4450.9711            3 
   21000    1.4037345   -5.5997692    4448.1041            2 
   21100    1.3826455   -5.5562852     4465.955            2 
   21200    1.3673219   -5.6157045    4468.9077            1 
   21300    1.3759188   -5.6250723    4453.3061            2 
   21400    1.4049866   -5.5964457    4445.2247            2 
   21500    1.4088239   -5.5604111    4462.6093            2 
   21600    1.3909388   -5.6216165    4466.1667            3 
   21700    1.3760141   -5.6378012       4449.4            4 
   21800    1.4008191   -5.6211898    4452.9153            3 
   21900    1.3827021    -5.593322    4446.6108            1 
   22000    1.3999206   -5.6517898    4438.3803            2 
   22100     1.374645   -5.6834338    4444.4499            3 
   22200    1.3834122   -5.6422325    4475.8602            4 
   22300    1.3886219   -5.6129023    4446.0983            1 
   22400    1.3931718   -5.5810212    4446.8649            3 
   22500    1.3888107   -5.6043489    4456.2923            2 
   22600    1.3663979   -5.6114702    4455.7657            2 
   22700    1.3848464   -5.6361986    4444.1301            3 
   22800    1.4269205   -5.6247831    4447.3617            3 
   22900     1.391725    -5.651274    4437.4578            2 
   23000    1.3805488   -5.6328116    4451.4717            3 
   23100    1.3714735   -5.6100981    4454.5855            3 
   23200    1.4156724   -5.6124831    4450.5301            4 
   23300     1.392249   -5.6082371    4445.0176            2 
   23400    1.3711955   -5.6143483    4447.1844            2 
   23500    1.4043968   -5.6459332    4462.7759            1 
   23600    1.3835779   -5.6489759    4467.9092            1 
   23700    1.4038952   -5.5991435    4471.4694            1 
   23800    1.3744762   -5.5914914    4447.4302            2 
   23900    1.3968759   -5.6199505    4431.9246            2 
   24000    1.3998852   -5.6237323    4460.0981            2 
   24100    1.3767942   -5.6059798    4471.8815            1 
   24200    1.3913552   -5.6304698    4434.0685            2 
   24300    1.3920682   -5.6228803    4438.7457            2 
   24400    1.3806391   -5.6389497    4457.1279            2 
   24500    1.3798665   -5.6010951    4471.3179            3 
   24600    1.4141277   -5.6229189    4453.2581            3 
   24700    1.3793793    -5.624117    4435.4345            2 
   24800    1.3876386   -5.5771154    4428.7389            2 
   24900    1.3792882   -5.5493163     4461.746            2 
   25000    1.3895178   -5.6100797    4453.6287            1 
   25100    1.3805266   -5.6166134    4451.5165            2 
   25200    1.3993651    -5.614506    4457.3367            1 
   25300    1.3845607   -5.6155227    4431.7772            2 
   25400    1.3564166   -5.6086254    4444.8226            1 
   25500    1.3771416   -5.5983996    4467.6751            1 
   25600    1.3861708   -5.5669797    4467.3474            1 
   25700    1.3779529   -5.6339147    4442.0668            2 
   25800    1.4052816   -5.6265365    4453.1568            3 
   25900    1.4019782   -5.5836487    4474.0506            2 
   26000    1.3766502   -5.6066652    4468.1994            4 
   26100    1.3884942   -5.6005841    4455.7904            3 
   26200    1.3624214   -5.5986809    4460.3623            3 
   26300    1.3742041   -5.6098725    4460.1172            3 
   26400    1.3925051   -5.6752626     4420.749            2 
   26500    1.3710257   -5.6407492    4433.3218            4 
   26600    1.3970919   -5.6171974    4455.0287            2 
   26700    1.4020716   -5.5974148    4464.4629            3 
   26800    1.3529139    -5.593039    4437.4447            2 
   26900    1.3735238   -5.5771316    4444.1764            5 
   27000    1.4010816   -5.6001499     4446.006            2 
   27100     1.399723   -5.6238035     4421.528            2 
   27200    1.4080746   -5.6242986    4461.3982            2 
   27300    1.3648783    -5.600339    4465.2947            2 
   27400    1.3900527   -5.6046187    4440.2219            3 
   27500    1.4178211   -5.6410226     4444.934            1 
   27600    1.3695503   -5.5906556    4483.9181            2 
   27700    1.4027767   -5.6041462    4469.3777            4 
   27800    1.3921369   -5.6089514    4457.0622            2 
   27900    1.3995365   -5.6332038    4449.6546            3 
   28000    1.3809781    -5.628033    4435.5026            4 
   28100    1.4266803    -5.630773    4455.7066            5 
   28200    1.3920271   -5.6210263    4463.7098            3 
   28300      1.40896   -5.6589473    4464.7903            3 
   28400    1.3510381    -5.643163     4464.665            2 
   28500    1.4051436    -5.634447    4453.2741            2 
   28600      1.40825   -5.6348376    4443.0203            1 
   28700    1.3851091   -5.6340821    4434.0406            1 
   28800    1.3909273   -5.6202008     4462.748            3 
   28900    1.3913285   -5.6049608    4465.9583            3 
   29000    1.3859714   -5.6274814    4459.4511            7 
   29100    1.4096508   -5.6018353    4438.5299            1 
   29200    1.3823564   -5.5816811    4454.9666            2 
   29300    1.3656079   -5.6251067    4471.6165            2 
   29400    1.3866543   -5.5765027    4461.4944            1 
   29500    1.3856125   -5.5996697    4448.8813            1 
   29600    1.3841631   -5.5953228    4445.9124            3 
   29700    1.4059451   -5.5894399    4472.2927            2 
   29800     1.358241   -5.5969919    4455.9737            4 
   29900    1.4113015    -5.608788     4464.718            1 
   30000    1.3840921   -5.6060346    4453.6349            4 
   30100    1.3955707   -5.6236302    4454.8321            5 
   30200    1.4119789   -5.6097332      4478.01            3 
   30300    1.3662158   -5.6081979    4466.6397            3 
   30400    1.3872232   -5.5957742    4448.0313            3 
   30500    1.4238588   -5.5743909    4450.2138            2 
   30600    1.4000203    -5.609694    4453.3069            2 
   30700    1.3736345   -5.6231185    4464.1448            1 
   30800     1.392099   -5.6188773    4469.8663            2 
   30900    1.3800739   -5.5898717    4455.2497            2 
   31000    1.4001285   -5.6145622    4443.2228            4 
   31100    1.3574337   -5.6227723    4425.7318            1 
   31200    1.3736128   -5.6176267    4434.1026            1 
   31300    1.4016934   -5.6418189    4448.1234            2 
   31400    1.3694677   -5.6497173    4453.6616            3 
   31500    1.4037238   -5.6240677    4434.9942            1 
   31600    1.3827346   -5.5907721    4437.4191            2 
   31700    1.4076912   -5.5902361    4471.4532            3 
   31800    1.3489953   -5.5667271    4483.9192            1 
   31900    1.3888676    -5.617685    4454.1038            1 
   32000    1.4158884   -5.6198728    4422.5562            2 
   32100    1.3618414    -5.593002    4449.7785            3 
   32200    1.3766003   -5.5752086    4479.6903            2 
   32300     1.407733   -5.6002146    4456.4264            3 
   32400     1.376061   -5.5888917     4458.132            2 
   32500    1.4119182   -5.5994616    4455.2513            1 
   32600    1.3854503    -5.641912    4449.2067            2 
   32700    1.3673167   -5.6448454    4450.6907            4 
   32800    1.4247262   -5.6373192    4437.6324            2 
   32900    1.4116483   -5.6054992    4431.7784            2 
   33000    1.3745307   -5.6171976    4470.7711            3 
   33100    1.3645721   -5.6146527    4470.5674            4 
   33200    1.4020748    -5.611558    4441.2091            3 
   33300    1.3913087   -5.5874604    4452.3095            1 
   33400    1.4204688   -5.6023496    4463.1088            2 
   33500    1.4005594   -5.6420804    4461.4851            3 
   33600     1.353555   -5.6304721    4454.1812            3 
   33700    1.3706655   -5.6060958    4428.9335            2 
   33800    1.4275002   -5.6198032      4440.18            2 
   33900     1.404959   -5.6259457    4460.4501            7 
   34000     1.375177   -5.6044368    4462.8421            1 
   34100    1.3796962   -5.6003634    4439.7958            5 
   34200    1.4044565   -5.6301776    4434.1157            2 
   34300    1.3923739    -5.582969    4465.6788            2 
   34400    1.3622997   -5.5745332    4473.1789            4 
   34500     1.431359   -5.6265416    4457.4483            5 
   34600    1.3754512   -5.6149173     4467.243            2 
   34700    1.4147929   -5.6290196    4457.6407            1 
   34800    1.3727043   -5.6400476    4453.6819            1 
   34900    1.3764925   -5.6500292    4439.0616            3 
   35000    1.3991761   -5.6115293    4428.0765            2 
   35100    1.3853873   -5.6010144    4445.8928            1 
   35200    1.4097256   -5.6166335    4470.1819            1 
   35300    1.3684259    -5.610866    4462.8003            2 
   35400    1.3985602   -5.6176873    4450.3499            2 
   35500    1.4309115   -5.6235411    4466.1549            2 
   35600    1.3880843   -5.6373821    4453.0087            2 
   35700    1.3930048   -5.6111127     4443.215            1 
   35800    1.3721937   -5.6587784    4453.9956            3 
   35900    1.3834987   -5.5989967    4447.7377            6 
   36000    1.3840069   -5.6078294    4458.2025            3 
   36100    1.3675405   -5.5920768     4450.447            1 
   36200    1.3959641   -5.6247625    4436.8978            3 
   36300    1.4207324     -5.62079    4458.5088            3 
   36400    1.3770958   -5.6047177    4459.8487            1 
   36500    1.3730593   -5.6096537    4441.9089            2 
   36600    1.3725028   -5.6492786    4417.7317            3 
   36700    1.3937696   -5.6313619    4405.3699            4 
   36800    1.3956082   -5.6263104    4443.8626            3 
   36900    1.3742445   -5.6342834    4457.3167            1 
   37000    1.3674729   -5.6830845    4440.3579            2 
   37100    1.3765898    -5.651104    4445.0124            3 
   37200    1.4119095   -5.6473662    4440.1007            2 
   37300    1.3608302   -5.6314337    4440.9878            3 
   37400    1.4029289   -5.6490878    4434.3394            2 
   37500    1.3834957   -5.6042474     4453.686            2 
   37600    1.4159835   -5.5926208    4472.4586            2 
   37700    1.3776039   -5.6046652     4448.906            3 
   37800    1.4142828   -5.6453515    4450.7347            3 
   37900    1.3618536   -5.6383737    4455.6587            4 
   38000    1.4169691   -5.6625484    4458.6128            4 
   38100    1.3901896   -5.6173894    4447.8466            2 
   38200    1.4005178   -5.6522682    4438.8783            4 
   38300    1.3993126   -5.6003109     4461.855            3 
   38400    1.3893852   -5.5782311    4458.2995            3 
   38500    1.3863262    -5.585909    4443.9042            1 
   38600    1.3654308   -5.6162977    4435.5331            2 
   38700    1.3774433   -5.5975729    4466.9504            7 
   38800    1.3706723    -5.596704    4460.0641            3 
   38900     1.419388   -5.6271899    4433.2373            3 
   39000    1.3773984   -5.6249667    4439.6962            4 
   39100    1.3794363   -5.6077826    4462.0147            2 
   39200    1.3810787   -5.5994479    4458.0981            3 
   39300    1.4181966   -5.6495907    4415.9236            3 
   39400    1.4090729    -5.634139    4441.6536            3 
   39500    1.3797898   -5.6042364     4468.471            4 
   39600    1.3945514   -5.5721334    4481.5051            2 
   39700     1.383134   -5.6094642    4443.8925            1 
   39800    1.4140881   -5.6274622    4442.4041            3 
   39900    1.3776307   -5.6404967    4447.3158            1 
   40000    1.3447967   -5.6529266    4442.8071            3 
   40100    1.4064613   -5.6491843    4446.2254            2 
   40200    1.3721711    -5.610833    4447.2433            2 
   40300    1.4169754   -5.6051251    4471.3723            2 
   40400    1.3862829   -5.6130038    4454.7219            2 
   40500    1.3706615   -5.6040964    4440.7409            2 
   40600    1.4139702   -5.6237064    4442.2951            3 
   40700    1.3894845   -5.6262761    4462.3327            3 
   40800    1.3743927     -5.66222    4465.5395            2 
   40900    1.4021542   -5.6740692    4447.3232            1 
   41000    1.4067434   -5.5952491    4456.5417            2 
   41100    1.3883037   -5.6246568    4462.4985            2 
   41200    1.4094992   -5.6101242    4460.2939            3 
   41300    1.4115911   -5.5776803    4466.7602            2 
   41400    1.3615294   -5.5799925    4444.2868            3 
   41500    1.3973214    -5.625617    4444.2896            2 
   41600    1.4012704   -5.6283184    4445.5302            3 
   41700    1.4012029   -5.6197106     4472.339            1 
   41800    1.3898287   -5.5898073     4483.017            1 
   41900    1.3968672    -5.634526    4447.5408            1 
   42000    1.4090478   -5.6399764     4439.509            3 
   42100    1.4032733   -5.6671158    4440.6339            4 
   42200     1.379747   -5.6702846    4438.0883            3 
   42300    1.3852581   -5.6206555     4459.649            1 
   42400    1.3921332   -5.6098438    4462.7254            2 
   42500    1.4166758   -5.6009014    4461.9623            1 
   42600    1.3934722   -5.5954278    4462.6122            1 
   42700    1.3841792    -5.640785    4449.8417            1 
   42800    1.3919821   -5.6894195    4449.3829            3 
   42900    1.3718417   -5.6204105    4433.9216            1 
   43000    1.4201255   -5.6127936    4443.9572            4 
   43100    1.3925339   -5.6417181    4459.8063            2 
   43200    1.3720415   -5.6490635    4455.8373            1 
   43300    1.4041358    -5.670523    4430.9008            1 
   43400    1.4108618   -5.6066967    4448.8723            3 
   43500    1.3901156   -5.6007498    4443.9434            3 
   43600    1.4077936    -5.659499    4460.0192            5 
   43700    1.3608802   -5.6363648    4467.9345            3 
   43800     1.394385   -5.6609747     4437.644            3 
   43900    1.4005795   -5.6507812    4427.1592            7 
   44000    1.3974869   -5.5996799    4457.3774            3 
   44100    1.4063415   -5.5920586    4460.7307            2 
   44200    1.3711162   -5.6174116    4447.3183            2 
   44300    1.3856406    -5.622797    4440.1517            2 
   44400    1.3686926     -5.63438    4433.5829            4 
   44500    1.3804871   -5.6114337    4467.3077            1 
   44600    1.3984342   -5.6056306    4473.5262            3 
   44700    1.3886547   -5.6159388    4434.1867            2 
   44800     1.375098   -5.6326162    4431.1332            2 
   44900    1.4003314   -5.6067942    4458.5797            2 
   45000    1.3730995   -5.6440146    4460.6382            4 
   45100    1.4031561   -5.6439609    4441.9068            1 
   45200    1.4290957   -5.6333073    4437.5281            2 
   45300    1.3803676   -5.5918059    4480.1091            3 
   45400    1.4021502   -5.6390635    4488.7083            2 
   45500    1.3788205   -5.5843677    4465.9697            2 
   45600    1.3719086   -5.6399885    4442.3839            3 
   45700    1.4018276   -5.6540461     4427.308            3 
   45800    1.3822072   -5.6180939    4443.0856            2 
   45900    1.3896627   -5.6012739    4461.7311            2 
   46000     1.412171   -5.6389384    4449.9681            2 
   46100    1.3615217    -5.615795    4448.7466            3 
   46200    1.4037074   -5.6168665    4449.4746            2 
   46300    1.3949578   -5.6059361    4459.0527            5 
   46400    1.3715045   -5.6198157    4454.0544            1 
   46500    1.3934529    -5.651279    4437.1996            4 
   46600    1.3673927   -5.6437497    4439.4495            2 
   46700    1.3858828   -5.6188855    4432.1063            3 
   46800    1.4000268   -5.6380774    4428.7901            2 
   46900    1.3763742   -5.6283564    4455.0246            1 
   47000    1.4087041   -5.5969524    4456.0682            3 
   47100    1.4180497    -5.618144    4459.2003            5 
   47200    1.3645709   -5.6259005    4455.9278            3 
   47300    1.3999083   -5.6328257    4466.8869            4 
   47400    1.4193039   -5.5836129     4481.536            2 
   47500    1.4247426   -5.6190078    4437.1805            2 
   47600    1.3862231   -5.6174316    4441.1015            4 
   47700    1.4022806   -5.6184721    4454.5847            4 
   47800    1.3786003   -5.6304258    4464.7116            2 
   47900    1.3566261   -5.6438025       4450.4            2 
   48000    1.3976536   -5.6117933    4449.0733            3 
   48100    1.4091365   -5.5910349     4444.744            5 
   48200    1.3932708   -5.6435072    4431.6162            2 
   48300    1.3798187    -5.662248    4441.7181            2 
   48400    1.3958282   -5.6275598    4465.9718            1 
   48500    1.3901165   -5.6195573    4457.2783            2 
   48600    1.3619359   -5.6507726    4434.1608            3 
   48700     1.383557   -5.6730807    4417.2082            2 
   48800    1.4022938   -5.6293666    4430.9697            2 
   48900    1.3889916   -5.6196851    4444.5408            3 
   49000    1.3366853   -5.6280284     4442.158            3 
   49100    1.3835567   -5.6453926    4439.6341            3 
   49200    1.4025596   -5.5977161    4439.5939            4 
   49300    1.3688691   -5.6164009    4445.2294            2 
   49400     1.379764   -5.6084115    4467.1151            3 
   49500    1.4007861   -5.5811437    4454.5763            2 
   49600    1.3764201   -5.6039722    4451.1589            4 
   49700    1.3807125   -5.6153855    4454.3914            2 
   49800    1.4059156   -5.6030734    4463.6562            1 
   49900    1.3972752   -5.6324007    4453.8783            1 
   50000    1.3640243   -5.6080021    4455.1429            4 
   50100    1.4217629   -5.6650292    4453.2598            3 
   50200    1.3958587   -5.6204071    4451.9682            1 
   50300    1.3765447   -5.6395307    4453.4271            3 
   50400    1.3741859   -5.6374449    4451.8953            2 
   50500    1.3806152     -5.58501    4454.5643            5 
   50600    1.4162174   -5.5795911    4458.1258            1 
   50700    1.3828997   -5.5811711    4442.6992            1 
   50800     1.368865   -5.6201376    4460.7725            4 
   50900    1.3795427   -5.5944345    4455.2731            2 
   51000    1.3963387   -5.5941098    4450.4917            4 
   51100    1.3966548   -5.6472349    4449.2739            3 
   51200    1.3629973   -5.6358633    4436.8223            3 
   51300    1.3919508   -5.6312678    4441.8301            2 
   51400    1.4173371   -5.5996648    4448.5524            1 
   51500    1.3743277   -5.6012062    4453.1572            3 
   51600    1.3705849   -5.5777305    4462.3398            2 
   51700    1.4062451    -5.630429    4464.9906            1 
   51800    1.3443021   -5.6077054    4451.6924            1 
   51900    1.4052423   -5.6302837    4439.4412            2 
   52000    1.4146803   -5.6050239    4444.4521            3 
   52100    1.3544566   -5.6111698     4482.078            6 
   52200    1.3786967   -5.6057819    4466.3216            5 
   52300    1.3866523   -5.6339134    4428.2252            3 
   52400    1.4145087   -5.6171092    4454.6015            3 
   52500    1.3623201   -5.5953658    4465.4291            3 
   52600    1.4232774   -5.6073428    4460.4059            3 
   52700    1.3868751   -5.6077606    4456.0663            3 
   52800    1.4037593   -5.6495367     4450.623            3 
   52900    1.3887664   -5.6520987    4445.9073            2 
   53000    1.3805762   -5.6127442    4460.0856            2 
   53100    1.4085132   -5.6275361    4463.8687            1 
   53200    1.3810206   -5.6552132    4452.6553            3 
   53300    1.3698277   -5.6217001    4455.9917            3 
   53400    1.3817739   -5.6121337    4451.4063            2 
   53500    1.4118246   -5.6185514    4433.3485            1 
   53600    1.3934627   -5.6313034     4444.198            3 
   53700     1.378896   -5.5476196    4477.1017            1 
   53800    1.4148409   -5.5785731    4453.5443            4 
   53900    1.3811565   -5.6014458    4456.3125            2 
   54000    1.3892774   -5.5929318    4467.2202            2 
   54100    1.4060073   -5.5618378    4458.5236            2 
   54200    1.3717571   -5.5907098    4465.5312            1 
   54300    1.3767437    -5.612302    4460.5808            2 
   54400    1.4075765   -5.6102415    4459.1792            1 
   54500    1.4027346   -5.5743095    4455.3673            2 
   54600    1.3887746   -5.6106191    4456.6398            4 
   54700    1.3877316   -5.6089291    4464.2047            4 
   54800    1.3955654   -5.5697001    4468.4822            3 
   54900    1.4076184    -5.593961    4451.1352            1 
   55000    1.3802823   -5.6068591    4451.2708            2 
   55100     1.369002   -5.6480202    4438.2675            2 
   55200    1.4023781   -5.6607056    4440.9517            2 
   55300    1.3872665   -5.6063351    4448.4134            1 
   55400    1.4069313   -5.5973937    4476.1561            3 
   55500    1.3904367   -5.6101716    4480.2084            2 
   55600    1.3980671     -5.62036    4457.4388            3 
   55700    1.3831598   -5.6092505     4438.846            2 
   55800    1.3617768   -5.6029401    4431.0056            4 
   55900    1.4131232   -5.6234313    4449.1871            2 
   56000     1.369479   -5.6500808    4461.4667            3 
   56100    1.4096526   -5.6293939     4457.772            2 
   56200    1.4320465   -5.5686235    4441.9368            1 
   56300    1.3966859   -5.6040576    4435.9178            2 
   56400    1.3712548   -5.6540809    4440.8685            2 
   56500    1.3858623   -5.6627215    4448.4447            3 
   56600    1.3968764   -5.6379237    4459.3475            3 
   56700    1.4089865   -5.6420182    4455.6368            2 
   56800    1.3668679   -5.6111448    4441.6911            3 
   56900    1.3818079   -5.5802915    4463.7202            1 
   57000    1.3968749   -5.5939906    4453.8181            2 
   57100    1.3701104   -5.6150016     4443.065            2 
   57200    1.3774913   -5.6104844    4456.8388            3 
   57300    1.4156915   -5.6395031    4450.8408            2 
   57400    1.3769086   -5.6273022    4458.1434            5 
   57500     1.393074   -5.6330689    4470.6624            1 
   57600    1.4373179   -5.6329648    4454.6226            2 
   57700    1.3993996   -5.6184515    4438.2424            3 
   57800    1.3836019   -5.6308783    4433.6328            3 
   57900    1.3636596   -5.6509206    4443.9118            3 
   58000    1.3753955   -5.6261447    4462.4657            2 
   58100    1.4155897   -5.6290651    4458.2064            3 
   58200    1.3692353   -5.6104198    4429.9278            3 
   58300    1.3861421   -5.6088946    4457.3934            2 
   58400    1.3995634   -5.6023956     4457.004            4 
   58500    1.3800133   -5.6159048    4444.5437            2 
   58600    1.4004434   -5.6332977    4446.3301            5 
   58700    1.3937321   -5.6408578    4446.4636            1 
   58800     1.373787   -5.6483243    4422.5499            2 
   58900    1.3912291   -5.6433101    4436.4695            2 
   59000    1.3941686   -5.6417605    4444.7739            2 
   59100     1.395691   -5.6002293    4462.4075            3 
   59200    1.4279551   -5.5983767    4461.0152            2 
   59300    1.3860384   -5.6164285    4458.4204            6 
   59400    1.3889215   -5.6383851    4463.3013            1 
   59500    1.3985474   -5.6229081    4464.1448            2 
   59600    1.4151755     -5.59588    4478.4818            2 
   59700     1.400326   -5.6347927    4455.5494            4 
   59800    1.3596002   -5.6178279    4425.8876            3 
   59900    1.3728636   -5.6162688    4449.0045            3 
   60000     1.398431   -5.6229144    4428.8212            4 
   60100    1.4011215   -5.6315368    4425.5101            4 
   60200     1.346622   -5.6419195    4463.1468            1 
   60300    1.3917325   -5.6414049    4460.7622            3 
   60400    1.4069293    -5.598847    4450.7297            3 
   60500    1.4068852    -5.590958    4452.2394           10 
   60600    1.3806938   -5.6080086    4452.7891            4 
   60700    1.4171871   -5.6097129    4470.8738            1 
   60800    1.3850485   -5.6175022    4469.4829            2 
   60900    1.3795037   -5.6226502    4458.0039            2 
   61000    1.4143251   -5.5871117    4458.3707            1 
   61100    1.3910375   -5.5773749    4446.1884            3 
   61200    1.3811045   -5.6111247    4444.7637            2 
   61300     1.419402   -5.6042788    4468.5606            2 
   61400    1.3834006   -5.6142732    4449.5854            2 
   61500    1.3887534   -5.6487115    4453.8906            4 
   61600    1.4057128   -5.6014576    4469.7434            4 
   61700    1.4216185   -5.6192032    4450.0366            2 
   61800    1.3681284   -5.6112759    4453.4787            3 
   61900    1.4108788   -5.6650339    4460.4562            2 
   62000    1.3813104   -5.6368502    4432.4027            5 
   62100    1.4078495   -5.6214771    4447.6493            1 
   62200    1.3846583   -5.6065769    4451.9355            3 
   62300    1.3789465   -5.6115774    4436.9136            1 
   62400    1.3946405   -5.6378408    4461.5524            4 
   62500    1.3717446   -5.6677209    4440.1597            3 
   62600    1.3916336    -5.637326    4449.0708            2 
   62700    1.4108581    -5.614481    4460.6428            2 
   62800    1.3986288   -5.6594114    4470.1177            2 
   62900    1.3780897   -5.6350321    4455.0508            2 
   63000    1.4143068   -5.5942047    4441.0062            3 
   63100    1.4148808   -5.6013571    4438.9148            2 
   63200    1.3744462   -5.6316688    4453.9838            2 
   63300     1.347844   -5.6802708    4458.0882            3 
   63400    1.3980821   -5.6613406    4457.1982            4 
   63500    1.3872362   -5.6147618    4446.2476            3 
   63600    1.4105626   -5.6460913    4438.7923            3 
   63700      1.37275   -5.6197069    4463.5043            2 
   63800    1.3860517   -5.6954184    4436.0487            2 
   63900    1.3722704   -5.6189431    4427.1638            3 
   64000    1.3692757   -5.5786582    4448.0312            2 
   64100    1.3883299   -5.6079797    4457.7538            2 
   64200    1.3884135   -5.6242353     4453.838            3 
   64300    1.3727962   -5.5732181    4452.8813            4 
   64400    1.3947959    -5.577147    4461.4666            2 
   64500    1.4194546   -5.5809084    4462.6065            2 
   64600    1.3815346   -5.6134402    4447.5931            2 
   64700    1.4025228   -5.6245643    4438.8155            4 
   64800    1.3882359   -5.6105381    4460.6462            5 
   64900    1.3773326   -5.6444546    4446.9251            1 
   65000     1.391416   -5.6354836    4437.2654            2 
   65100    1.4028498   -5.6054591    4456.0971            3 
   65200    1.3745261   -5.5979909    4455.1989            2 
   65300    1.3339384   -5.5972444    4440.8295            2 
   65400    1.3903512   -5.6248824    4454.4585            2 
   65500    1.3633703   -5.5872247    4448.2657            2 
   65600     1.397655    -5.636786    4422.4252            3 
   65700    1.3904043   -5.6387862    4427.2207            2 
   65800    1.3875268    -5.623729    4451.9972            3 
   65900     1.374941   -5.6084194    4462.7228            3 
   66000    1.4199629     -5.64809    4445.1715            3 
   66100    1.4089726   -5.6587714     4446.606            4 
   66200    1.4044851   -5.6042008    4462.4784            2 
   66300    1.3974553   -5.6405993    4464.2523            2 
   66400     1.368524   -5.6071318    4467.1024            3 
   66500    1.4198434   -5.6401891    4469.1463            2 
   66600    1.3799028   -5.6033719    4434.6474            3 
   66700    1.3896057   -5.5553805    4441.4807            2 
   66800    1.3835659   -5.6118348    4455.9419            2 
   66900    1.3816474   -5.6129877    4464.1212            1 
   67000    1.3873447   -5.6413462     4469.509            1 
   67100    1.3945231    -5.595283    4453.8948            4 
   67200    1.4324043   -5.5984819    4454.6698            1 
   67300    1.3801637   -5.6025847    4485.6453            1 
   67400    1.3734973   -5.6308557    4477.7914            2 
   67500    1.3943491   -5.6392359    4443.2283            1 
   67600     1.381303   -5.6149086    4423.2727            1 
   67700    1.4120368   -5.6344244    4455.9098            3 
   67800    1.3737115   -5.6594109    4457.8992            3 
   67900    1.3738163   -5.6571619    4458.5444            3 
   68000    1.3928909   -5.6117678    4456.1624            2 
   68100     1.416655   -5.6091162    4440.9443            3 
   68200    1.3756252   -5.6024011    4437.6933            2 
   68300    1.3985569   -5.6007182     4461.541            2 
   68400    1.3855986   -5.5887567    4475.6418            2 
   68500    1.3926821   -5.6410141     4450.438            1 
   68600    1.3963202   -5.6282042    4439.4939            1 
   68700    1.4090504   -5.5882801    4475.4282            2 
   68800    1.3754539   -5.5958562    4458.4407            2 
   68900    1.3950001   -5.6193478    4439.1955            3 
   69000    1.3828865   -5.6459633    4415.5839            2 
   69100    1.3868306    -5.618263     4450.883            3 
   69200    1.3958071   -5.6481511     4460.941            2 
   69300    1.3724652   -5.6657225    4443.1597            2 
   69400    1.3657096   -5.6294524    4422.4796            2 
   69500    1.4065929   -5.6290623     4445.151            2 
   69600    1.3886021   -5.6419369    4438.8583            4 
   69700    1.3835867    -5.650183    4438.8443            1 
   69800    1.3997386   -5.6497498     4440.425            1 
   69900    1.3568531   -5.6448583    4437.5992            3 
   70000    1.4269184   -5.6678833    4440.1585            2 
   70100     1.410686   -5.6333453    4444.5016            2 
   70200    1.3667153   -5.6343085    4448.1027            2 
   70300    1.3856848    -5.623576    4447.4852            1 
   70400    1.4062655   -5.6253464     4434.001            2 
   70500    1.4038236   -5.6159022    4448.3236            3 
   70600    1.3719234   -5.6038206      4473.97            2 
   70700    1.4098671   -5.6185092    4474.5544            2 
   70800    1.3695639   -5.6070379    4458.0404            4 
   70900    1.4015273   -5.6243583    4453.2753            4 
   71000    1.4000916   -5.6373402    4457.9196            5 
   71100    1.4179391   -5.5785745    4457.1187            2 
   71200    1.3942639   -5.5921739    4450.7422            2 
   71300    1.3747172   -5.6113061    4463.6635            2 
   71400    1.4054806   -5.6094587    4465.9031            2 
   71500    1.3804608   -5.6482215    4455.4118            1 
   71600      1.40831   -5.6068559    4444.7791            6 
   71700     1.399432   -5.6153822    4438.8306            5 
   71800    1.3635628   -5.6350043    4450.6275            1 
   71900    1.3886289   -5.6398814    4456.0458            2 
   72000     1.421498   -5.6313878    4448.5097            5 
   72100    1.3618724   -5.6220281    4435.5794            1 
   72200    1.3922587   -5.6417764     4450.514            1 
   72300    1.4033429   -5.6011805    4477.0203            2 
   72400    1.3789905   -5.6016979    4463.8882            2 
   72500    1.3808152   -5.6243668    4450.7008            3 
   72600    1.4319345   -5.5921794    4431.8869            3 
   72700    1.3891365   -5.5472412    4463.0606            4 
   72800    1.3763331   -5.5774587    4475.9084            1 
   72900    1.4187843    -5.653093    4435.8379            2 
   73000    1.3737858   -5.5935993    4439.4118            6 
   73100     1.413573   -5.6085011    4478.9404            3 
   73200    1.3829241   -5.6079653     4462.516            3 
   73300    1.3887065   -5.6314184    4447.4691            2 
   73400    1.3896508    -5.653657    4438.3428            1 
   73500    1.3816689   -5.6588265    4441.3697            1 
   73600    1.4141458    -5.611381    4445.7896            2 
   73700    1.3787034   -5.6113549    4448.4898            2 
   73800    1.3621408   -5.6571903    4429.6224            4 
   73900     1.394458   -5.6454903    4439.6122            4 
   74000    1.3739166   -5.6190949    4450.7507            2 
   74100    1.3961987   -5.6052048    4458.3725            3 
   74200    1.3973642   -5.6293253    4440.2726            2 
   74300    1.3860557   -5.6257721    4442.4252            3 
   74400    1.3963129   -5.6183236    4463.3471            2 
   74500    1.3832186   -5.6633044    4444.2627            3 
   74600    1.3808049   -5.6357525    4440.4043            4 
   74700    1.4133305   -5.6285613    4447.9971            1 
   74800    1.3884349   -5.6707389    4441.6775            1 
   74900    1.3703491   -5.6380509     4456.584            3 
   75000    1.3790236    -5.616649    4467.5026            1 
   75100    1.3985213   -5.6096971    4455.9956            3 
   75200    1.3943688     -5.59787    4457.1546            2 
   75300     1.408755   -5.6147344    4439.8153            1 
   75400    1.3638991   -5.6135498    4447.5694            3 
   75500    1.3952406   -5.6224913    4460.9642            3 
   75600    1.3913262   -5.6131839    4458.2532            2 
   75700    1.3926575   -5.6113521    4437.1677            2 
   75800    1.3589275   -5.6330433     4427.967            2 
   75900    1.4213846   -5.6219513    4429.6544            1 
   76000    1.3660977   -5.6228489    4451.5657            1 
   76100    1.3872533   -5.6649489    4462.4124            2 
   76200     1.372957   -5.6375565    4437.8326            2 
   76300     1.412211   -5.6093866    4435.4533            1 
   76400    1.3704504   -5.6278749    4443.5511            1 
   76500     1.391421   -5.6227192    4453.3806            1 
   76600    1.3890039   -5.6150753    4444.9457            3 
   76700    1.3879912     -5.61652    4445.7259            3 
   76800    1.4195871   -5.6257149    4455.1324            2 
   76900    1.3590137   -5.6310781    4474.3087            1 
   77000    1.3963561    -5.636034    4462.6389            2 
   77100    1.3951889   -5.6363265    4451.7771            2 
   77200    1.4071689   -5.6002336    4455.8611            3 
   77300    1.3632856   -5.6032732    4447.4448            3 
   77400    1.3978379   -5.6063472    4457.8166            5 
   77500    1.3969126   -5.6143406    4451.3652            2 
   77600    1.3848284   -5.6235236    4451.6975            1 
   77700    1.4043016   -5.5918458    4471.0484            3 
   77800    1.3824282    -5.605017    4462.3944            4 
   77900    1.3899782   -5.5907124    4463.0522            3 
   78000    1.3775383    -5.590627    4485.0792            2 
   78100    1.4033344   -5.6087268    4474.6233            2 
   78200    1.4045034   -5.6109196    4451.2547            2 
   78300    1.3852671   -5.6201646    4438.8204            3 
   78400    1.3797998   -5.6154964    4439.8428            3 
   78500    1.4187798   -5.6461196    4419.8889            2 
   78600    1.3731721   -5.6198025    4466.2468            3 
   78700    1.4075035   -5.6610677    4458.8374            3 
   78800    1.3874592   -5.6478045    4451.3513            2 
   78900    1.3969753   -5.5895287    4452.8451            2 
   79000    1.4202931   -5.5589033    4459.9343            2 
   79100    1.3743258   -5.5778923    4457.7946            1 
   79200    1.3723759   -5.6147643    4455.3278            2 
   79300    1.4029532   -5.6563329    4450.4608            2 
   79400    1.3713618   -5.6551432     4433.867            4 
   79500    1.3858313   -5.6236444    4447.8075            2 
   79600    1.4016385   -5.6044916    4450.1278            2 
   79700     1.375445   -5.6162805    4437.6137            3 
   79800    1.3572276   -5.6142591     4442.596            1 
   79900    1.3791371   -5.6085724    4457.4319            2 
   80000    1.4196381   -5.6365849    4450.2826            2 
   80100    1.3817379   -5.6317816    4434.8073            2 
   80200    1.4001574   -5.6192148    4460.0977            1 
   80300    1.3961222   -5.6250728    4474.6941            3 
   80400    1.3790449   -5.6297182    4462.4453            4 
   80500    1.3990512   -5.6206268    4441.9101            1 
   80600    1.4298214   -5.6091047    4440.5769            1 
   80700    1.3730914   -5.5926456    4457.9349            2 
   80800     1.370661   -5.6232195     4467.518            2 
   80900     1.430745   -5.6340686    4448.3605            3 
   81000    1.3722446   -5.6069183    4439.3564            3 
   81100    1.4101047   -5.6066636    4437.2227            3 
   81200    1.3989771    -5.614353    4465.7718            2 
   81300    1.3535452   -5.6064118    4501.6344            1 
   81400    1.4163755   -5.6087933    4465.5371            2 
   81500    1.3930386   -5.5880695    4430.6161            2 
   81600    1.3989045   -5.6382375    4428.0959            3 
   81700    1.4060644   -5.6291957    4459.0019            2 
   81800    1.4008681   -5.6399692    4455.2446            4 
   81900    1.3974281   -5.6711819    4436.8703            1 
   82000    1.3526733   -5.6524352    4429.0342            3 
   82100    1.3825166   -5.6203908    4464.1607            2 
   82200    1.3901277   -5.5790603    4449.6276            3 
   82300    1.3738235   -5.5965412    4437.0454            2 
   82400    1.3623473   -5.6508533    4430.5376            6 
   82500    1.3899843   -5.6270532    4444.1792            2 
   82600    1.3859449   -5.6257774      4457.29            1 
   82700     1.405418       -5.587    4468.0053            3 
   82800    1.4021873   -5.6078916    4448.0737            2 
   82900    1.3848523   -5.6125551    4455.2442            2 
   83000     1.375602   -5.6464154    4455.8836            3 
   83100    1.3677763   -5.6081909    4439.9217            8 
   83200    1.4049826   -5.6074555    4444.7955            1 
   83300     1.367468   -5.5945014    4450.5742            1 
   83400    1.3822654   -5.6588334    4429.5858            3 
   83500     1.351823   -5.6664067    4438.6049            1 
   83600    1.3794806   -5.6247247    4459.2753            3 
   83700    1.4042706   -5.5940349    4454.5411            3 
   83800    1.3881018   -5.5736449    4442.3736            3 
   83900      1.41592   -5.6626391    4453.0993            2 
   84000    1.3612814   -5.6645911    4451.1799            3 
   84100    1.3805529   -5.6154568    4454.1777            5 
   84200    1.4156297   -5.6102751    4460.7324            4 
   84300    1.3885188   -5.5944906    4465.8882            4 
   84400    1.3838714   -5.6025999    4465.2988            1 
   84500    1.3960988   -5.6575255    4445.6516            5 
   84600    1.3799018   -5.6678788    4428.1532            2 
   84700    1.4104554   -5.6455493    4440.4406            2 
   84800    1.3799534   -5.6281401    4464.5088            1 
   84900    1.3683852   -5.6357909    4480.4869            4 
   85000    1.4097716   -5.6172172    4449.0978            3 
   85100    1.3910157   -5.5963447    4450.6238            4 
   85200    1.3843224   -5.6212917    4428.4736            3 
   85300    1.3872354   -5.6021588    4437.1564            2 
   85400    1.3872796   -5.6216676    4456.7319            2 
   85500    1.3937425   -5.6092017    4465.2661            4 
   85600    1.3835591   -5.6208424    4452.1295            2 
   85700    1.4022131   -5.6309166    4449.9709            1 
   85800    1.3998678    -5.630809     4455.649            2 
   85900    1.3737838   -5.6195899    4450.7401            2 
   86000    1.3891584   -5.6341365    4461.4967            1 
   86100    1.4066983   -5.6431652    4441.9706            1 
   86200    1.4030179   -5.6386027    4422.0422            1 
   86300    1.4097699   -5.6157431    4435.2655            7 
   86400    1.3836126   -5.6175618     4455.213            3 
   86500    1.3746525   -5.6447171    4463.6905            4 
   86600    1.3955909   -5.6417589    4458.3665            3 
   86700    1.3950223   -5.6010351    4449.6584            5 
   86800    1.3955681   -5.5659699    4456.0249            4 
   86900    1.3900016   -5.5747068    4476.4744            2 
   87000    1.3757437   -5.6051812    4460.5607            1 
   87100    1.3786596   -5.5984088    4445.6046            2 
   87200     1.379299   -5.6158247    4442.5828            2 
   87300    1.3920208   -5.6078757    4439.9497            3 
   87400    1.3916234   -5.6310908    4439.1189            6 
   87500    1.3508562   -5.6527995     4444.217            2 
   87600    1.3770988    -5.669377    4444.9248            2 
   87700    1.4153003   -5.6432298    4427.8786            2 
   87800    1.3720102   -5.6171011    4431.7095            3 
   87900    1.4123239   -5.6283714    4454.3321            2 
   88000      1.36891   -5.6254301    4440.0331            2 
   88100    1.4124273   -5.6415849    4447.0149            3 
   88200    1.3906862    -5.681739    4456.3485            3 
   88300    1.3743347   -5.6474332     4457.824            1 
   88400    1.4091003   -5.6128569    4459.4454            1 
   88500    1.3876589   -5.6138778    4439.8064            4 
   88600    1.3941675   -5.6092188    4431.9228            2 
   88700    1.4082195   -5.6045648    4476.9453            3 
   88800    1.3691339   -5.6244463    4472.7642            2 
   88900    1.3926181   -5.6351389    4462.6202            3 
   89000    1.4174735   -5.5925811     4476.267            3 
   89100    1.4049507   -5.5916201    4455.2172            2 
   89200    1.4053262   -5.6288373    4441.3815            4 
   89300    1.3441813   -5.6286955    4436.3611            3 
   89400    1.3866192   -5.6449247    4444.3839            1 
   89500    1.4265122   -5.6543736    4444.0754            2 
   89600    1.3956784   -5.6286208    4465.9391            2 
   89700    1.3961908   -5.6555533    4442.1696            1 
   89800    1.3653236   -5.6229035    4438.3098            2 
   89900    1.4224482   -5.6516591    4426.2192            2 
   90000    1.3823559    -5.631665    4435.0927            2 
   90100    1.3914799    -5.652462    4458.4155            2 
   90200    1.3733636   -5.6306399    4464.4225            3 
   90300    1.3998027   -5.6420747      4430.79            2 
   90400    1.4096262   -5.6278146    4446.9717            2 
   90500    1.3921933   -5.5756814    4473.1826            3 
   90600    1.3760428   -5.6226054    4470.1028            3 
   90700    1.3659961   -5.6103737    4450.2696            2 
   90800    1.3987156   -5.5892297    4447.4474            2 
   90900    1.3892637   -5.5710347    4463.8233            1 
   91000    1.3857455   -5.5996321    4473.5657            2 
   91100    1.3980106   -5.6122687    4458.3478            3 
   91200    1.3829125   -5.6289825    4423.8462            2 
   91300     1.404844   -5.6336713    4447.6925            4 
   91400    1.4075244   -5.6332528    4462.1903            2 
   91500    1.3900128   -5.6750665    4442.4903            2 
   91600    1.3814597   -5.6368179    4455.0563            1 
   91700    1.3824131   -5.5841492    4457.0684            4 
   91800    1.3854701   -5.6218819    4460.5566            5 
   91900    1.3981368   -5.6123041    4462.5576            2 
   92000    1.3960619   -5.6229716    4444.2014            1 
   92100     1.385452   -5.6129545    4448.6572            3 
   92200    1.3922461    -5.610587     4447.248            2 
   92300    1.4072723   -5.5723978    4473.8779            2 
   92400     1.397528   -5.5774578    4449.2736            4 
   92500    1.4345853   -5.6679557    4433.5182            3 
   92600    1.3712949   -5.6387314    4442.1403            2 
   92700    1.3859431   -5.6448357    4460.1086            1 
   92800    1.4003937    -5.610329    4446.1448            3 
   92900    1.3899141   -5.6311703    4424.9727            3 
   93000     1.363697   -5.6300119    4435.3355            2 
   93100     1.387476   -5.6210074    4446.6412            4 
   93200    1.3829748   -5.6095616    4461.4279            3 
   93300    1.4019328   -5.6058378    4471.4077            4 
   93400    1.3642609   -5.6070236    4462.6639            2 
   93500    1.4159845   -5.6487459    4427.1848            3 
   93600    1.3688812    -5.614835    4423.8862            2 
   93700    1.3876325   -5.6015537    4468.6132            2 
   93800    1.3553545   -5.5736952    4461.9979            2 
   93900    1.4271636   -5.6190626    4433.2712            2 
   94000    1.3973971   -5.6270521    4429.3044            4 
   94100    1.3615676   -5.6041517    4441.2512            4 
   94200    1.3616532   -5.6062647    4442.4579            2 
   94300    1.3867041   -5.6235651    4460.8333            2 
   94400    1.4131775   -5.5860845    4452.9477            3 
   94500    1.4115763   -5.5921003    4466.7605            2 
   94600    1.3883129   -5.6327362    4450.9957            3 
   94700    1.3862529   -5.6272415    4450.9104            2 
   94800    1.3926342   -5.5707905    4467.6252            3 
   94900    1.3942688   -5.6359539    4451.7344            2 
   95000    1.3645198   -5.6213018    4434.7255            1 
   95100    1.4080621   -5.6304863    4448.7562            3 
   95200    1.3771072   -5.5746276    4462.1709            3 
   95300      1.40033   -5.5293467    4490.1794            2 
   95400    1.3787864   -5.5518912    4470.1609            1 
   95500    1.3895632   -5.6051803     4441.571            2 
   95600    1.3628516   -5.5516716    4439.0351            2 
   95700    1.4108926   -5.6141992    4447.3983            2 
   95800    1.3983122   -5.6311341    4451.5635            1 
   95900    1.3694196   -5.6214652      4458.36            1 
   96000    1.3667624   -5.6298494    4441.7468            2 
   96100     1.402485   -5.6388528    4416.3698            4 
   96200    1.4246327   -5.6350038    4436.4079            4 
   96300    1.3842557   -5.6461896     4454.172            1 
   96400    1.3795092   -5.6600987    4444.7795            2 
   96500    1.3900936    -5.609048    4446.9569            2 
   96600    1.4141529   -5.6137532    4459.0383            1 
   96700    1.3743263   -5.6365928     4455.881            2 
   96800    1.3860471   -5.6881063    4436.5181            3 
   96900    1.3685287   -5.6295553    4432.9706            2 
   97000    1.3906254   -5.6141294    4456.9269            2 
   97100    1.3762576     -5.60452    4448.9874            2 
   97200    1.3880102   -5.6701554     4429.239            3 
   97300    1.3816863   -5.6480606    4435.4483            3 
   97400    1.3797075   -5.6395856    4446.8517            3 
   97500    1.4064761   -5.5968779    4435.8525            3 
   97600    1.3760199   -5.6228618    4427.9287            4 
   97700    1.3742483    -5.636234    4421.5855            2 
   97800    1.4005326   -5.6237665    4449.2782            1 
   97900    1.3943865   -5.6511695    4456.5401            2 
   98000     1.373944   -5.6221324    4455.4651            3 
   98100    1.3921336   -5.6163478    4459.0791            3 
   98200     1.372456    -5.588145    4440.7386            1 
   98300    1.4047541   -5.6059389    4455.6954            3 
   98400    1.3758459   -5.6053771    4436.6388            2 
   98500    1.3953561   -5.6299813    4437.6638            1 
   98600    1.3919632   -5.6530329     4475.796            1 
   98700    1.3828618   -5.6344628     4473.557            2 
   98800    1.3919425   -5.6343603    4441.3158            2 
   98900    1.4095383   -5.6584861    4442.8164            6 
   99000    1.3851665   -5.6413062    4440.6886            2 
   99100    1.3828347   -5.6429529    4443.8588            2 
   99200    1.3923515   -5.6429688    4454.8255            3 
   99300    1.4302331    -5.652518    4461.7153            2 
   99400    1.4009821   -5.6326207    4447.6169            1 
   99500     1.391856    -5.659067    4434.9355            3 
   99600    1.3832336   -5.6440459    4474.3487            2 
   99700    1.3864423   -5.6188907    4478.5143            1 
   99800    1.3862715   -5.6605987    4439.8415            2 
   99900    1.3865777   -5.6275012    4429.7853            2 
  100000    1.4117904   -5.6189917    4442.7019            2 
  100100    1.3550711   -5.6215477    4443.1943            2 
  100200    1.3836978    -5.636801    4448.3495            3 
  100300     1.394182   -5.5888744    4477.3249            3 
  100400    1.3676932   -5.5950322    4455.6096            2 
  100500    1.3927177    -5.626537    4446.8982            4 
  100600    1.3706231   -5.6046374    4448.7673            3 
  100700    1.3976465   -5.6299373    4424.4186            2 
  100800     1.392366   -5.6614491    4438.7996            2 
  100900    1.3740572   -5.6145973    4465.8896            3 
  101000    1.4049202    -5.598367    4451.5736            3 
  101100    1.3862275   -5.5923383    4434.7264            2 
  101200    1.3599987   -5.5535071    4458.9811            2 
  101300    1.4087261   -5.5905636    4472.8273            2 
  101400    1.3959003   -5.6434998    4473.7206            4 
  101500    1.3812707   -5.6416674     4456.354            3 
  101600    1.4100439   -5.5899578    4433.5768            2 
  101700    1.4090462   -5.6234798    4432.8138            5 
  101800    1.3823268   -5.6172052    4447.0884            2 
  101900    1.4140439   -5.6558208    4468.1217            1 
  102000    1.3709312   -5.6420912    4451.9821            2 
  102100    1.4014034   -5.6457399    4443.7552            2 
  102200    1.3956492   -5.6261224    4444.4372            5 
  102300    1.4142841   -5.6058192    4457.8031            3 
  102400    1.3847072   -5.5783964    4459.7123            1 
  102500    1.3861642   -5.6224883    4437.5484            5 
  102600    1.3784732   -5.6066275      4434.34            1 
  102700    1.3983565   -5.5844775     4466.621            3 
  102800      1.39219   -5.6301564    4480.5192            3 
  102900    1.3300174    -5.590719    4463.0952            1 
  103000    1.3948072   -5.5947459    4439.1105            1 
  103100    1.3894082   -5.6120602    4430.2082            1 
  103200    1.3967033   -5.6285965     4445.168            2 
  103300    1.3870817   -5.6464537    4453.6711            3 
  103400    1.3651818   -5.6116462    4444.0732            2 
  103500    1.3885169   -5.5725449    4443.5194            2 
  103600     1.377406    -5.617748    4442.1269            2 
  103700    1.4079797   -5.6546748    4448.4047            4 
  103800    1.4044022   -5.6221843    4455.5252            2 
  103900     1.382666   -5.6474035       4450.3            2 
  104000    1.4126677   -5.6479671    4449.8451            1 
Loop time of 100.211 on 64 procs for 100000 steps with 4000 atoms

Performance: 172435.431 tau/day, 997.890 timesteps/s
99.9% CPU use with 64 MPI tasks x no OpenMP threads

MPI task timing breakdown:
Section |  min time  |  avg time  |  max time  |%varavg| %total
---------------------------------------------------------------
Pair    | 6.9061     | 6.9829     | 7.1271     |   1.9 |  6.97
Neigh   | 1.2292     | 1.2437     | 1.2853     |   0.8 |  1.24
Comm    | 10.811     | 11.436     | 12.19      |   8.7 | 11.41
Output  | 5.6058     | 5.6075     | 5.6216     |   0.1 |  5.60
Modify  | 72.322     | 73.372     | 74.21      |   4.7 | 73.22
Other   |            | 1.57       |            |       |  1.57

Nlocal:        62.5000 ave          70 max          57 min
Histogram: 4 3 13 14 9 7 7 2 2 3
Nghost:        1380.73 ave        1405 max        1362 min
Histogram: 4 5 7 12 13 10 5 4 1 3
Neighs:        6411.08 ave        7302 max        5685 min
Histogram: 4 3 7 16 12 7 8 2 1 4
FullNghs:      12822.9 ave       14638 max       11432 min
Histogram: 2 5 12 11 14 7 6 3 2 2

Total # of neighbors = 820666
Ave neighs/atom = 205.16650
Neighbor list builds = 7013
Dangerous builds = 0

#clear
#
#next RN
#
#jump SELF
Total wall time: 0:01:41
