
units lj                  # Use reduced LJ style units
atom_style atomic         # Uncharged point particles
atom_modify map hash      # Needed for indexing of clusters etc
                          # Used to be able to find where atoms are in relation to each other.

# Define a lattice with which to populate the simulation cell. With units
# set to 'lj' the second argument to the lattice command is the reduced
# density rho* and the spacings are multiples of that required to acheive
# that density. Also define a simulation cell called 'box' in lattice units
# and fill it with atoms. Here we're creating a box which is ten lattice
# constants in each direction.
lattice fcc 1.0 spacing 1 1 1                 # All equal sizes - gives the right reduced density.
Lattice spacing in x,y,z = 1.5874011 1.5874011 1.5874011

region box block 0 10 0 10 0 10 units lattice # Defines a region, "box", in lattice units
create_box 1 box                              # Creates a simulation box as specified above,
Created orthogonal box = (0.0000000 0.0000000 0.0000000) to (15.874011 15.874011 15.874011)
  4 by 4 by 4 MPI processor grid
                                              # with one type of atom
create_atoms 1 box                            # Creates particles on lattice points
Created 4000 atoms
  using lattice units in orthogonal box = (0.0000000 0.0000000 0.0000000) to (15.874011 15.874011 15.874011)
  create_atoms CPU = 0.002 seconds


# Set the mass of the first (and only) atom type.
mass 1 1.0

# Lennard-Jones interactions between particles, 3.5 sigma cut-off. Apply
# long range tail corrections to energy and pressure and set all coefficients
# to unity since we work in reduced units here. Note that this doesn't shift
# the potential such that it goes to zero at the cutoff. That would require
# pair_modify('shift', 'yes').
pair_style lj/cut  3.5      # non-GPU version
pair_modify tail  yes
pair_coeff 1  1  1.0  1.0   # Intearaction between 1 and 1 set with epsilon = 1 and sigma = 1

write_data data.*
System init for write_data ...
Neighbor list info ...
  update every 1 steps, delay 10 steps, check yes
  max neighbors/atom: 2000, page size: 100000
  master list distance cutoff = 3.8
  ghost atom cutoff = 3.8
  binsize = 1.9, bins = 9 9 9
  1 neighbor lists, perpetual/occasional/extra = 1 0 0
  (1) pair lj/cut, perpetual
      attributes: half, newton on
      pair build: half/bin/atomonly/newton
      stencil: half/bin/3d
      bin: standard

#############################
#   M E L T   S Y S T E M   #
#############################

velocity all create 2.4 3143649 mom yes dist gaussian # Assign velocities
                                                    # Temperature 2.4, random number seed, zero linear momentum
						                                                        # Gaussian distribution

timestep 0.002   # simulation timestep
thermo 100       # output thermodynamic data every 100 steps

# Define a fix  in this case with index 1 applied to all
# particles in the simulation. This fix is for simulations
# in the anisotropic NPT ensemble. Note that we use the MTK
# correction.
fix 1 all npt temp 2.4 2.4 0.1 iso 5.68 5.68 0.5 mtk yes tchain 5 pchain 5 # Use NPT ensemble
                                                                         # Set temperature and pressure and damping
                                                                         # Numbers of thermostats in chain and in barostat
run 1000         # run for 10000 steps
Per MPI rank memory allocation (min/avg/max) = 3.630 | 3.630 | 3.630 Mbytes
Step Temp E_pair E_mol TotEng Press Volume 
       0          2.4   -8.3859253            0   -4.7868253   -2.2405722         4000 
     100    1.2648744   -6.5290671            0   -4.6322298    5.3798688    4090.0656 
     200    1.4689665   -6.3033458            0   -4.1004469    5.9766879    4141.9478 
     300    1.5757287   -6.0115718            0   -3.6485695    5.8461614    4272.4316 
     400    1.6979232   -5.7228765            0   -3.1766284    5.8923806    4398.0373 
     500    1.7905817    -5.427445            0   -2.7422439      5.78902    4550.9794 
     600    1.8981736   -5.1583052            0   -2.3117566    5.7628382       4700.9 
     700    2.0060053   -4.8956622            0   -1.8874064    5.8620002    4837.8597 
     800     2.161964   -4.7200774            0   -1.4779421    5.9239068    4947.9616 
     900    2.2454811   -4.5521004            0   -1.1847209    5.7904219    5078.3833 
    1000    2.3595505   -4.4432956            0   -0.9048547    5.8626198    5147.5374 
Loop time of 0.264307 on 64 procs for 1000 steps with 4000 atoms

Performance: 653785.635 tau/day, 3783.482 timesteps/s
99.7% CPU use with 64 MPI tasks x no OpenMP threads

MPI task timing breakdown:
Section |  min time  |  avg time  |  max time  |%varavg| %total
---------------------------------------------------------------
Pair    | 0.059286   | 0.063283   | 0.06887    |   0.7 | 23.94
Neigh   | 0.014079   | 0.014842   | 0.015867   |   0.3 |  5.62
Comm    | 0.13932    | 0.15082    | 0.16229    |   1.9 | 57.06
Output  | 0.0002998  | 0.00030521 | 0.00036945 |   0.0 |  0.12
Modify  | 0.024247   | 0.033165   | 0.043849   |   4.0 | 12.55
Other   |            | 0.001895   |            |       |  0.72

Nlocal:        62.5000 ave          69 max          52 min
Histogram: 1 1 2 2 11 13 10 14 5 5
Nghost:        1247.56 ave        1267 max        1229 min
Histogram: 3 8 10 4 3 9 13 6 5 3
Neighs:        5551.38 ave        6501 max        4539 min
Histogram: 2 2 2 11 13 13 12 4 3 2

Total # of neighbors = 355288
Ave neighs/atom = 88.822000
Neighbor list builds = 87
Dangerous builds = 20

# Equilibrate just above the melting temperature to avoid step fn in T

fix 1 all npt temp 1.25 1.25 0.1 iso 5.68 5.68 0.5 mtk yes tchain 5 pchain 5
run 1000
Per MPI rank memory allocation (min/avg/max) = 3.631 | 3.631 | 3.631 Mbytes
Step Temp E_pair E_mol TotEng Press Volume 
    1000    2.3595505   -4.4432956            0   -0.9048547    5.8626198    5147.5374 
    1100    1.9293476   -4.6486671            0   -1.7553692    5.7282766    4999.4388 
    1200    1.7345312   -4.9601095            0   -2.3589631    5.7791767    4797.9679 
    1300    1.5644489   -5.2082186            0   -2.8621319    5.5594876    4679.9578 
    1400     1.466305   -5.4051147            0   -3.2062071    5.7438096    4550.8751 
    1500    1.3912389   -5.5752414            0   -3.4889048    5.6991581    4468.1976 
    1600    1.3078898   -5.6911598            0   -3.7298155    5.4640743    4431.8167 
    1700    1.2563777   -5.7616223            0   -3.8775269    5.4245998    4398.8172 
    1800    1.2347894   -5.7874194            0   -3.9356984    5.5426245    4376.1587 
    1900     1.276485   -5.8164585            0   -3.9022097    5.4174286    4378.1985 
    2000    1.2569289   -5.8154156            0   -3.9304936    5.6265703     4360.924 
Loop time of 0.265763 on 64 procs for 1000 steps with 4000 atoms

Performance: 650203.978 tau/day, 3762.755 timesteps/s
99.9% CPU use with 64 MPI tasks x no OpenMP threads

MPI task timing breakdown:
Section |  min time  |  avg time  |  max time  |%varavg| %total
---------------------------------------------------------------
Pair    | 0.057987   | 0.062484   | 0.069113   |   0.8 | 23.51
Neigh   | 0.012197   | 0.012908   | 0.013753   |   0.3 |  4.86
Comm    | 0.14096    | 0.15374    | 0.16804    |   2.1 | 57.85
Output  | 0.00031308 | 0.00032007 | 0.00036301 |   0.0 |  0.12
Modify  | 0.023757   | 0.03347    | 0.045006   |   4.3 | 12.59
Other   |            | 0.002841   |            |       |  1.07

Nlocal:        62.5000 ave          69 max          56 min
Histogram: 2 4 6 10 11 5 14 8 3 1
Nghost:        1404.88 ave        1424 max        1383 min
Histogram: 2 2 8 5 15 6 7 13 2 4
Neighs:        6547.39 ave        7241 max        5694 min
Histogram: 2 2 6 5 13 12 3 12 6 3

Total # of neighbors = 419033
Ave neighs/atom = 104.75825
Neighbor list builds = 75
Dangerous builds = 6


# Small amount of linear quench

fix 1 all npt temp 1.25 ${temp} 0.1 iso 5.68 5.68 0.5 mtk yes tchain 5 pchain 5
fix 1 all npt temp 1.25 2 0.1 iso 5.68 5.68 0.5 mtk yes tchain 5 pchain 5
run 2000
Per MPI rank memory allocation (min/avg/max) = 3.631 | 3.631 | 3.631 Mbytes
Step Temp E_pair E_mol TotEng Press Volume 
    2000    1.2569289   -5.8154156            0   -3.9304936    5.6265703     4360.924 
    2100    1.2785112   -5.8095403            0    -3.892253    5.6884572    4358.5557 
    2200    1.3042736   -5.7764315            0   -3.8205101    5.5619775    4384.6904 
    2300    1.3132923   -5.7097241            0   -3.7402781    5.7604311    4396.4407 
    2400    1.3924624   -5.7022609            0   -3.6140894    5.9469626    4389.5327 
    2500    1.3948933   -5.6338552            0   -3.5420384    5.8991407     4424.813 
    2600     1.419373   -5.5729108            0   -3.4443835    5.8041686    4459.1853 
    2700      1.44776   -5.5229428            0   -3.3518456    5.5240747    4510.5269 
    2800    1.5094161   -5.5031098            0   -3.2395516    5.4207773    4538.1294 
    2900    1.5584144   -5.4472186            0   -3.1101814    5.6027352    4547.9935 
    3000    1.5890524   -5.3841699            0   -3.0011872    5.7114596    4570.6461 
    3100     1.603132   -5.2977572            0   -2.8936605    5.7947603     4603.267 
    3200    1.6547037   -5.2514962            0   -2.7700613    5.7290576    4637.7417 
    3300    1.6900936   -5.1930892            0   -2.6585827    5.6578752    4684.0281 
    3400    1.7577474   -5.1446763            0   -2.5087144    5.8483586    4692.6905 
    3500    1.7785575   -5.0614466            0   -2.3942773    6.0322541     4718.686 
    3600    1.8609145   -5.0744147            0   -2.2837408    5.8281569    4740.1699 
    3700    1.8403966   -5.0283982            0   -2.2684934    5.5703734    4791.5745 
    3800    1.8701781   -4.9734474            0   -2.1688815    5.4864192     4830.378 
    3900    1.9260578   -4.9072602            0   -2.0188957    5.7247126    4847.7988 
    4000    1.9885653   -4.8636418            0   -1.8815395    5.8382767    4867.9449 
Loop time of 0.536612 on 64 procs for 2000 steps with 4000 atoms

Performance: 644040.927 tau/day, 3727.089 timesteps/s
100.0% CPU use with 64 MPI tasks x no OpenMP threads

MPI task timing breakdown:
Section |  min time  |  avg time  |  max time  |%varavg| %total
---------------------------------------------------------------
Pair    | 0.11878    | 0.12421    | 0.13067    |   0.7 | 23.15
Neigh   | 0.025533   | 0.0264     | 0.027876   |   0.3 |  4.92
Comm    | 0.28163    | 0.30805    | 0.33065    |   2.9 | 57.41
Output  | 0.0006319  | 0.00064366 | 0.00073915 |   0.0 |  0.12
Modify  | 0.053346   | 0.072286   | 0.097835   |   6.0 | 13.47
Other   |            | 0.005021   |            |       |  0.94

Nlocal:        62.5000 ave          69 max          57 min
Histogram: 4 8 4 6 8 20 6 4 2 2
Nghost:        1296.73 ave        1313 max        1281 min
Histogram: 2 6 7 6 9 15 7 5 5 2
Neighs:        5856.16 ave        6576 max        5244 min
Histogram: 3 3 11 12 9 9 9 1 5 2

Total # of neighbors = 374794
Ave neighs/atom = 93.698500
Neighbor list builds = 152
Dangerous builds = 3

#############################
# F R E E Z E  S Y S T E M  #
#############################

# Define solid atoms. This closely follows ten Wolde  Ruiz-Montero and Frenkel  Faraday Discuss  1996  104  93-110
# Compute components of the per-atom q6 vector
compute q6 all orientorder/atom degrees 1 6 components 6 nnn NULL cutoff 1.3 # compute the Q6 parameter.
                                                                             # Use all neighbours within 1.3 unit cell.

# get number of connections
compute coord_number all coord/atom orientorder q6 0.5

# An atom is solid if it has 8 or more connections (of a possible 14)
variable is_solid atom c_coord_number>=8
group solid dynamic all var is_solid    # Must be dynamic to update
dynamic group solid defined

# do clustering
compute cluster solid cluster/atom 1.3 # Create a cluster where all atoms within are solid and max 1.3 units from another member

# define chunks one chunk per cluster
compute clus_chunks solid chunk/atom c_cluster nchunk every compress yes  # Says which atoms are in which chunk

# count the size of each chunk
compute size_chunks solid property/chunk clus_chunks count


# Find the maximum entry in the vector of chunk sizes
variable max_n equal max(c_size_chunks)


# Thermo style which includes this variable
thermo_style custom step temp pe vol v_max_n

thermo ${N}  # Print the thermo information every 100 steps
thermo 100  

# Reset the npt fix at a lower temperature (below freezing)
fix 1  all npt temp  ${temp} ${temp}  0.1  iso  5.68  5.68  0.5  mtk yes tchain  5  pchain  5
fix 1  all npt temp  2 ${temp}  0.1  iso  5.68  5.68  0.5  mtk yes tchain  5  pchain  5
fix 1  all npt temp  2 2  0.1  iso  5.68  5.68  0.5  mtk yes tchain  5  pchain  5

dump dmp2 all dcd ${N} traj_${rand}.dcd
dump dmp2 all dcd 100 traj_${rand}.dcd
dump dmp2 all dcd 100 traj_462431.dcd


# fix rnuntil all halt ${N} v_max_n >= 3980 error soft message no   # Stop when solidified


run 100000 # 5000000  # Run for this many steps
Neighbor list info ...
  update every 1 steps, delay 10 steps, check yes
  max neighbors/atom: 2000, page size: 100000
  master list distance cutoff = 3.8
  ghost atom cutoff = 3.8
  binsize = 1.9, bins = 9 9 9
  4 neighbor lists, perpetual/occasional/extra = 1 3 0
  (1) pair lj/cut, perpetual
      attributes: half, newton on
      pair build: half/bin/atomonly/newton
      stencil: half/bin/3d
      bin: standard
  (2) compute orientorder/atom, occasional
      attributes: full, newton on
      pair build: full/bin/atomonly
      stencil: full/bin/3d
      bin: standard
  (3) compute coord/atom, occasional
      attributes: full, newton on
      pair build: full/bin/atomonly
      stencil: full/bin/3d
      bin: standard
  (4) compute cluster/atom, occasional
      attributes: full, newton on
      pair build: full/bin/atomonly
      stencil: full/bin/3d
      bin: standard
Per MPI rank memory allocation (min/avg/max) = 9.290 | 9.294 | 9.298 Mbytes
Step Temp PotEng Volume v_max_n 
    4000    1.9885653   -4.8636418    4867.9449       -1e+20 
    4100    1.9844884   -4.7900103    4905.0506            1 
    4200    2.0120642   -4.8009514    4944.7344            2 
    4300    1.9819259   -4.7759883    4933.7528            2 
    4400    2.0105591   -4.8151436    4884.3985            1 
    4500    1.9686686   -4.7795596    4956.9362            2 
    4600    2.0084061   -4.7824433    4947.9605            1 
    4700    2.0077725   -4.7759554     4873.541            1 
    4800    1.9532824    -4.817492     4912.324            1 
    4900    1.9994401   -4.8507137    4903.8952       -1e+20 
    5000    2.0281406   -4.7992879    4891.7828            1 
    5100    1.9909823   -4.7910864    4946.4686            1 
    5200    1.9901776   -4.8272736    4930.5075            1 
    5300    1.9958106   -4.8051904    4878.0366            1 
    5400    2.0290303   -4.8077579    4943.1424       -1e+20 
    5500    2.0171274   -4.8408883    4908.2472       -1e+20 
    5600    1.9731486    -4.751438    4919.7633            1 
    5700    2.0018318   -4.7374372    4949.2096            1 
    5800    2.0177483   -4.7713174    4967.4905            1 
    5900    2.0346515   -4.8068832    4905.7735            1 
    6000    1.9629673   -4.7955075    4911.0114            2 
    6100    2.0098722   -4.8105938    4914.7906            1 
    6200    2.0068133   -4.7891189    4931.3521            1 
    6300    1.9725276   -4.8102563    4944.9004            1 
    6400    2.0288853    -4.763586    4901.1424            1 
    6500    2.0138873   -4.7952859    4926.5301       -1e+20 
    6600    1.9659088   -4.8264789    4926.3387            1 
    6700    2.0304678   -4.8306795    4891.5092            1 
    6800    2.0077334   -4.7489366    4942.6763            1 
    6900    1.9962162   -4.7618247     4959.548            1 
    7000     2.019384   -4.8363929    4898.0902            4 
    7100    1.9743442   -4.8385311    4912.6145            1 
    7200    2.0203788   -4.7930284    4901.7588            1 
    7300    1.9894307   -4.8125608    4914.2353            1 
    7400    2.0479381   -4.8251932    4933.3712            1 
    7500     2.007135   -4.7732486      4950.49            1 
    7600    2.0072413   -4.7898867    4908.3022            1 
    7700    1.9738166    -4.804792    4916.4059       -1e+20 
    7800    2.0302461   -4.8406938    4913.2147       -1e+20 
    7900     2.012861   -4.8141466    4909.7378            1 
    8000    1.9885166   -4.8220759    4938.7198            1 
    8100    2.0379902   -4.7758859    4892.1338       -1e+20 
    8200    1.9679445   -4.7745768    4950.7345            1 
    8300    1.9973914   -4.8026038    4927.7719       -1e+20 
    8400    2.0306408   -4.7941187    4897.8086            1 
    8500    1.9730972   -4.8498009    4929.5698       -1e+20 
    8600    1.9900918   -4.7899203    4910.8818            1 
    8700    2.0127877   -4.7890843    4917.9067            2 
    8800    2.0103039   -4.8293558    4932.2065            1 
    8900    1.9652223   -4.8346551    4898.3157            1 
    9000    2.0300582   -4.8645196    4893.8702            1 
    9100    1.9911938   -4.8667435    4926.0698            1 
    9200    2.0112268   -4.7906858    4881.3955       -1e+20 
    9300    1.9720211   -4.7498193    4933.5979            1 
    9400    2.0030337   -4.8068727    4970.1581       -1e+20 
    9500    2.0127501   -4.7801366    4910.4469            1 
    9600    1.9861934   -4.7849815    4902.6342            2 
    9700    2.0233599   -4.7971587    4924.5871            2 
    9800    1.9676009   -4.8115245    4923.1779            2 
    9900    2.0347163   -4.8102991    4922.0673            1 
   10000    1.9877331   -4.7673814    4943.1543            1 
   10100    2.0199745   -4.7864735    4938.3178            1 
   10200    2.0092807   -4.8267939    4914.5353            1 
   10300    2.0149707   -4.7638554    4911.9073            1 
   10400     1.972529   -4.8041171    4938.8852            1 
   10500    2.0368732   -4.8026556    4900.9964            1 
   10600    2.0136641   -4.8051686    4942.3211            2 
   10700    1.9646181   -4.7667703    4942.9933            1 
   10800    2.0696478   -4.8196713    4896.1499            1 
   10900    1.9532384   -4.7970392    4922.9907            1 
   11000    2.0077708   -4.8310855    4913.8463            1 
   11100    1.9897013   -4.7704247     4918.516            1 
   11200    1.9974209   -4.7730303    4919.1499            1 
   11300    1.9816052   -4.8555579    4915.5641            2 
   11400    2.0537655    -4.848069    4894.9784            1 
   11500    1.9851672   -4.8272205    4916.6482            1 
   11600     2.014028   -4.8363046     4935.341            2 
   11700    2.0517753   -4.8294472    4882.2676            1 
   11800    1.9537443   -4.8287295    4933.5655            1 
   11900    2.0051526   -4.8008572    4909.8325            2 
   12000    2.0170266   -4.7945984    4933.6793            1 
   12100    2.0037449   -4.8443465    4909.2496            2 
   12200    1.9930716   -4.8183528    4898.0602            1 
   12300    2.0179189   -4.7787949    4929.6869       -1e+20 
   12400    1.9873296     -4.77547     4932.867            1 
   12500     2.023841   -4.8024636    4929.6207            2 
   12600    2.0143184   -4.7512139    4932.9848            1 
   12700    1.9775948   -4.8134603    4929.4954       -1e+20 
   12800    1.9708022   -4.7845726     4921.893            1 
   12900    2.0418459   -4.7563059    4922.8967            2 
   13000    2.0047122   -4.7981616    4945.9254            1 
   13100    1.9712728   -4.7967242    4923.4236            1 
   13200    2.0372102   -4.7921496     4926.583            1 
   13300    1.9631598   -4.7807441    4949.8274            1 
   13400     2.047423   -4.7904392    4916.1252            1 
   13500    1.9974674   -4.8181716    4918.3669            1 
   13600    2.0307885   -4.7790645    4936.6059            1 
   13700    2.0251795   -4.8009806    4943.0196            1 
   13800    2.0050498   -4.7956387    4924.5659            1 
   13900    2.0002949   -4.7981714    4933.6366       -1e+20 
   14000    2.0104179   -4.7745371    4925.1432       -1e+20 
   14100    2.0242265    -4.826235      4894.39            2 
   14200    1.9428143   -4.8128962    4909.6192       -1e+20 
   14300    2.0198272   -4.8459219    4905.1623       -1e+20 
   14400    2.0230999   -4.8206246    4918.2531            1 
   14500    1.9918971   -4.8176273    4924.1633            1 
   14600    2.0341778   -4.8255029     4917.854            1 
   14700    1.9374448   -4.7733367    4904.2662            1 
   14800    2.0252718   -4.8167991    4892.1081            2 
   14900    1.9344045   -4.8225649     4915.652            1 
   15000     2.004408   -4.8307683    4910.7775            2 
   15100    1.9885741   -4.7659011    4916.8579            2 
   15200    1.9926256   -4.7851241    4923.4857            1 
   15300    1.9841757   -4.7897075    4926.6834       -1e+20 
   15400    2.0283071   -4.7701179    4950.8361            1 
   15500    1.9914221   -4.8049063     4930.569            1 
   15600    2.0043826    -4.834249     4898.283            2 
   15700    2.0403677   -4.7513002    4890.1246            1 
   15800    1.9777353   -4.8260506    4958.8902            1 
   15900     1.957326   -4.7650477    4916.0774            1 
   16000    2.0361862   -4.7494648    4906.1916            1 
   16100    1.9956071   -4.8267426    4930.6208            1 
   16200    2.0265592   -4.8647003    4896.7834            1 
   16300    1.9812559   -4.8107672     4897.914            1 
   16400    1.9879577   -4.8123994    4920.1429            1 
   16500    2.0250444   -4.7986234    4928.8888       -1e+20 
   16600     1.992525   -4.7878668    4950.1554       -1e+20 
   16700    2.0586679   -4.7861169    4945.0825            1 
   16800    1.9971585   -4.7953118    4937.1219            1 
   16900    1.9680732   -4.8138395    4901.5778       -1e+20 
   17000    2.0206372   -4.8089637    4915.1586       -1e+20 
   17100    1.9520826   -4.7761148    4940.9773            1 
   17200    2.0784578   -4.7952679    4906.4819       -1e+20 
   17300    1.9837437   -4.7734668    4941.0804            1 
   17400    1.9962989   -4.8208255    4960.7104            1 
   17500    2.0308908   -4.7527629    4897.3212            1 
   17600    1.9764852   -4.7751659     4955.119            1 
   17700    1.9907646   -4.8337291     4904.937            1 
   17800    1.9846382   -4.7829244    4895.3997            1 
   17900    1.9942764   -4.8016842    4935.1828            1 
   18000    2.0155035   -4.7797995     4923.155            1 
   18100    1.9570893   -4.7912953    4919.6137            1 
   18200    2.0379232   -4.8143351     4925.372            1 
   18300    2.0345237   -4.8119101    4894.2811            1 
   18400    1.9359165   -4.7863776    4927.6069            2 
   18500     2.032147   -4.8209941    4925.5599            1 
   18600    2.0153078   -4.8182121    4953.4168            3 
   18700    1.9987503   -4.7923108    4924.6285       -1e+20 
   18800     1.993828   -4.7694682    4889.4745            2 
   18900    1.9582858   -4.7981021    4938.0198            7 
   19000    2.0298142    -4.812289    4919.5687            1 
   19100    1.9982857   -4.7859418     4894.486            2 
   19200    1.9659515   -4.7998312    4930.1693            1 
   19300    2.0420551   -4.8002433    4915.8374            2 
   19400    2.0067685   -4.7992279    4944.9848       -1e+20 
   19500    1.9810385    -4.804337    4902.7871            2 
   19600    2.0096821   -4.8025229    4903.4291       -1e+20 
   19700    1.9707462     -4.79806    4953.8728            1 
   19800    2.0401579   -4.7654758    4915.8213            3 
   19900    1.9856964   -4.7637105    4914.7059            1 
   20000    1.9721778   -4.7932246    4935.8719            1 
   20100    2.0316547    -4.778586    4912.1414            1 
   20200    1.9363047   -4.8139165    4920.6984            1 
   20300    2.0078334   -4.8028295    4922.0238            1 
   20400    1.9969767   -4.7812406    4917.8277            1 
   20500    2.0063691   -4.7924828    4928.0303       -1e+20 
   20600    2.0129108   -4.7822938    4933.3729            2 
   20700     1.989535   -4.7680659     4945.311       -1e+20 
   20800    2.0330561   -4.7757056    4922.9848            1 
   20900    1.9501654   -4.7696533     4926.559       -1e+20 
   21000     2.013063   -4.7483585    4906.2541            2 
   21100    1.9853564   -4.7560272    4952.2826            1 
   21200    1.9836719   -4.7858311    4937.3416            2 
   21300    2.0456663   -4.8139849    4908.9284            1 
   21400    1.9781442   -4.8384436     4917.049            1 
   21500    1.9924742   -4.8342611    4898.6952            1 
   21600    2.0307878   -4.7935398    4903.3795            1 
   21700    1.9431415   -4.7728458    4954.8746            1 
   21800    2.0512746   -4.7569501    4911.1212            1 
   21900    2.0025184   -4.7642915    4905.0054            1 
   22000    1.9639359   -4.8399736    4923.6305            1 
   22100    1.9948033   -4.7869363    4911.9125            1 
   22200    2.0226464   -4.7973515    4927.8571            1 
   22300    1.9941953   -4.8159492    4926.8196            1 
   22400    1.9868915   -4.8040111    4896.0414            1 
   22500    2.0259405   -4.7946703     4936.686            1 
   22600    1.9775836   -4.8270441    4908.5821            1 
   22700    2.0280518   -4.8653432     4898.973            1 
   22800    1.9917163   -4.8344896    4913.9311       -1e+20 
   22900    2.0182831   -4.7794228    4900.9354            1 
   23000     1.969692   -4.8330309    4922.4741            1 
   23100    1.9803774   -4.7922218    4916.5663            1 
   23200    2.0636352   -4.7847194    4900.2216            1 
   23300     1.959651   -4.8176884    4955.9723            1 
   23400    2.0004747   -4.7804239    4914.9973            1 
   23500    2.0138316   -4.8066466    4915.5742            1 
   23600    1.9936851   -4.7877359     4942.996            1 
   23700    1.9951007   -4.8298584    4876.9288            1 
   23800    2.0183574   -4.8091599    4915.0761            1 
   23900    2.0078561   -4.8226911    4916.7239            1 
   24000    1.9844747   -4.8020616    4923.7147            2 
   24100    2.0166181   -4.8132653    4926.2041       -1e+20 
   24200        1.999   -4.8295683    4913.7833            1 
   24300    2.0297116    -4.865919    4913.9008            1 
   24400     1.998778   -4.8299093    4933.9547            1 
   24500    2.0258487   -4.8100922      4874.11            1 
   24600    1.9771714   -4.8435663    4927.7014            1 
   24700    2.0255979   -4.8268164    4918.9797            1 
   24800    1.9842777    -4.832366    4900.4922            1 
   24900    1.9647995   -4.8308042    4895.3123            1 
   25000    1.9694732   -4.7554182    4937.7909            1 
   25100     2.044009   -4.7786329    4928.6893       -1e+20 
   25200    1.9898701   -4.8081197     4964.343            2 
   25300     2.055672   -4.8176165    4914.3463            1 
   25400    1.9915607   -4.7997967    4916.6845            1 
   25500      2.01757    -4.817541    4940.8642       -1e+20 
   25600    1.9702179   -4.7715961    4911.4677            1 
   25700     2.006443   -4.7966396    4901.1446            1 
   25800    1.9896639   -4.7828662    4940.3908            2 
   25900    1.9902634   -4.7361503    4939.6974            1 
   26000    2.0391974   -4.7797927     4947.096            1 
   26100    2.0106727   -4.8239272    4917.5386            1 
   26200    1.9843301   -4.8098923    4939.5927            1 
   26300    2.0302188   -4.7754631    4927.5942            1 
   26400     1.995689   -4.7643724    4905.5978       -1e+20 
   26500    1.9835488   -4.8119956    4942.0834            1 
   26600    2.0096078   -4.8089685    4940.2061            1 
   26700    2.0326802   -4.7334671    4906.9137            1 
   26800    1.9793961   -4.7966131    4928.5159            1 
   26900    1.9973886   -4.8089975    4943.9471            1 
   27000    1.9943889    -4.734838    4933.0019            1 
   27100    1.9833359   -4.7951039    4937.0665            3 
   27200    1.9679234   -4.7847092    4902.9082       -1e+20 
   27300    2.0184715   -4.7659245    4944.2024            1 
   27400    1.9796958   -4.7876263    4925.2023            2 
   27500    1.9923035   -4.7818718    4920.8231            1 
   27600    1.9917895   -4.7747079    4946.5482            1 
   27700    2.0427176   -4.7367596    4954.7313            1 
   27800    1.9870353   -4.6878952    4984.6087       -1e+20 
   27900     2.015755   -4.7796837    4909.2174            1 
   28000    1.9708199   -4.7939985    4915.1164            1 
   28100    1.9974837   -4.8313708    4908.0035            1 
   28200    1.9889738   -4.8037623    4883.1388            1 
   28300    2.0051062   -4.8241055    4929.8729            1 
   28400    2.0070754   -4.8165401     4915.284            1 
   28500     1.951803   -4.8146387    4889.3971            1 
   28600    1.9936773   -4.8269934    4904.3013            1 
   28700    2.0153394   -4.7714824    4928.0016            1 
   28800    2.0130174   -4.7631413    4962.0088            1 
   28900    1.9779283   -4.7847674    4952.3304            1 
   29000    2.0171396   -4.7946386    4894.9649            1 
   29100     1.990431   -4.8477431    4893.1142            1 
   29200    2.0240937   -4.8355259    4917.3728            1 
   29300     1.992803   -4.7685757    4926.8265            3 
   29400    1.9893851    -4.779487    4922.8032            3 
   29500     1.984999   -4.7652389    4924.3734            2 
   29600    2.0083557   -4.7889071    4928.8839            1 
   29700    1.9893904   -4.8132645    4932.5007       -1e+20 
   29800    2.0467687   -4.8079656    4914.3876            1 
   29900    1.9593164   -4.7661045    4925.5496            1 
   30000    1.9932744   -4.7867297    4930.5964            3 
   30100    1.9706373   -4.7924242    4899.5298            2 
   30200    2.0365484   -4.7964061    4944.5597       -1e+20 
   30300    1.9992831   -4.8108805    4915.7644            1 
   30400    1.9887074   -4.8234935    4911.3015       -1e+20 
   30500     2.010017   -4.7542123    4911.5292       -1e+20 
   30600    1.9720391   -4.8071536    4934.6644            2 
   30700    2.0176968    -4.847096    4918.4782            1 
   30800    1.9992253   -4.7469354    4918.3026            2 
   30900    1.9637562   -4.8120171    4928.5838            1 
   31000    2.0067765   -4.7966015    4924.3526            2 
   31100    2.0164066   -4.7828731    4904.4895            1 
   31200    1.9743031   -4.8489909     4916.015            1 
   31300    2.0297267   -4.8431447    4888.0553            1 
   31400    2.0289092   -4.8352363    4921.8166       -1e+20 
   31500    1.9877872   -4.8298657     4936.391            2 
   31600    2.0253145   -4.7825859    4914.2728            1 
   31700    2.0152714   -4.7579614    4945.4173       -1e+20 
   31800      2.00144   -4.7758418    4961.6725            1 
   31900    2.0021617   -4.7624394    4920.5648       -1e+20 
   32000    1.9756206   -4.7969593    4915.6375       -1e+20 
   32100    1.9565606   -4.8431607    4885.1917       -1e+20 
   32200    1.9942411   -4.8033966    4888.9165            1 
   32300    1.9828513   -4.7918768    4921.9303            1 
   32400    2.0155532   -4.7925982    4947.7967            1 
   32500    1.9573578   -4.7590979    4924.6156            1 
   32600    2.0440569   -4.7646782    4932.6979            1 
   32700    1.9774104   -4.7799013    4939.6962            1 
   32800    2.0255534   -4.7788194    4923.9474            1 
   32900    1.9494005   -4.7705538    4906.4734            1 
   33000    2.0262629   -4.8279514    4949.6904            1 
   33100    2.0436189   -4.8190461     4911.133            2 
   33200     1.986608   -4.8017931    4937.5396            1 
   33300    2.0212365   -4.8114597    4913.4488            1 
   33400    1.9816596   -4.7912184    4911.4028            2 
   33500    2.0141329   -4.7968277    4944.4797            2 
   33600    2.0381905   -4.7381525    4928.8054            2 
   33700    2.0006986   -4.7679159    4912.5409            1 
   33800    1.9666751   -4.8455912    4937.6735       -1e+20 
   33900    2.0456953   -4.8171789    4909.4652       -1e+20 
   34000    1.9946028   -4.7616471    4931.1669            1 
   34100     2.004141   -4.8318762    4946.4318            1 
   34200    2.0221217   -4.8076127    4921.6224            1 
   34300    2.0258852   -4.7918024    4943.4966            2 
   34400    2.0063946   -4.8369717     4890.733       -1e+20 
   34500    2.0003321   -4.8181772    4920.6757            1 
   34600    2.0330827   -4.8338078    4916.3499            1 
   34700    1.9704765   -4.7891014    4906.1274       -1e+20 
   34800    1.9884896   -4.7788737     4906.421            1 
   34900    1.9988878   -4.7655723    4940.8886            1 
   35000    2.0225482   -4.7590466    4936.9611            1 
   35100    1.9686512    -4.772561    4918.0567            2 
   35200    2.0307122   -4.7845352    4913.5624       -1e+20 
   35300    2.0014978   -4.7645952     4981.405            1 
   35400    2.0137317   -4.7690191    4918.9297            2 
   35500    2.0014612    -4.827442    4900.2856            1 
   35600    1.9855077     -4.83802    4932.1718            1 
   35700    2.0374629   -4.8123181     4891.355            1 
   35800    1.9634815   -4.8014676     4899.757            1 
   35900    1.9791519    -4.793942    4930.8782            1 
   36000    2.0292806   -4.7666833    4944.2521       -1e+20 
   36100    1.9697996   -4.7760494    4932.8896            1 
   36200    1.9970581   -4.8243271    4897.9853            1 
   36300    1.9901302    -4.803452    4900.2075            1 
   36400    2.0048579   -4.7860191    4950.9151            1 
   36500    1.9866959    -4.804769    4936.4542            1 
   36600    2.0353204   -4.8024655    4894.8143            1 
   36700    1.9832476   -4.7590541    4957.7908       -1e+20 
   36800    2.0255561   -4.7748143    4946.1094            1 
   36900    2.0030481   -4.7609645     4914.308            1 
   37000    1.9773514   -4.7766591    4912.5856            1 
   37100     2.000386     -4.83389    4912.3486            1 
   37200    1.9915999    -4.745264    4914.5981            1 
   37300    2.0224367   -4.7952008    4934.7087            1 
   37400    1.9505198   -4.8179243    4932.9549            2 
   37500    2.0429084   -4.8101717    4910.0907            1 
   37600    2.0279476   -4.8290899    4926.5149            1 
   37700    1.9700963   -4.8369971    4923.9597            1 
   37800    2.0261142   -4.8208571     4899.127            1 
   37900    1.9962953   -4.8103903    4907.1065            1 
   38000    2.0110926   -4.8268472    4918.3167            2 
   38100    1.9636157   -4.8211273    4876.8707       -1e+20 
   38200    1.9933896   -4.8106781    4909.7885            1 
   38300    1.9746612   -4.8310699    4913.6153            1 
   38400    1.9888895   -4.7856412    4883.9752            2 
   38500    1.9976576   -4.7391801    4931.2515            2 
   38600    1.9964435   -4.7798592    4922.6424            1 
   38700    1.9836984   -4.7905405    4928.2466            1 
   38800    2.0453876   -4.7669861    4942.0765       -1e+20 
   38900    2.0074311   -4.7879131    4930.6031            1 
   39000    1.9937714    -4.811272     4925.036            2 
   39100    2.0422739   -4.8126996     4925.612            1 
   39200    1.9846307   -4.7901737    4933.4192            1 
   39300     1.999731    -4.822999    4904.0719            3 
   39400    2.0232811   -4.8063921      4937.02            1 
   39500     1.998762   -4.7799823    4925.4318            2 
   39600    1.9921097   -4.8172302    4906.1135            1 
   39700    2.0091567   -4.7877133    4937.6591            1 
   39800    2.0492526   -4.8097701    4923.9502       -1e+20 
   39900    1.9834614   -4.7876381    4939.1708            1 
   40000     2.020357   -4.7895832     4940.409       -1e+20 
   40100    2.0125046   -4.8004233     4902.886            1 
   40200    1.9547022    -4.815416    4962.3783            1 
   40300    2.0364773   -4.8204563    4915.6855            2 
   40400    2.0088401   -4.8120268    4920.9342            1 
   40500    2.0052321   -4.8273564    4942.0931            1 
   40600    1.9956342   -4.7770546    4928.3574            2 
   40700    2.0428611   -4.7604063    4948.9174            2 
   40800    1.9834857   -4.7741527     4924.033            1 
   40900    1.9869872   -4.8303491    4908.3381            1 
   41000    2.0193912   -4.8736459     4888.288            1 
   41100    1.9688846   -4.8032016    4918.2514            1 
   41200     2.028137   -4.7793662    4920.2068       -1e+20 
   41300    1.9990659   -4.8172916    4945.6314       -1e+20 
   41400    1.9438082   -4.8334442    4903.5353            1 
   41500      2.00621   -4.8035518    4895.2109            1 
   41600    2.0083773   -4.7895931    4930.8192            1 
   41700    1.9902374   -4.7952742    4966.6189            1 
   41800    2.0106709   -4.8134876     4873.311            1 
   41900    1.9729408   -4.8509276    4898.6008       -1e+20 
   42000    2.0303914   -4.8509117    4899.2323            1 
   42100    1.9916869   -4.7735132    4906.0212            3 
   42200    1.9750462   -4.7714348    4926.9542       -1e+20 
   42300    1.9858688   -4.8564302    4871.5447            1 
   42400    1.9868866   -4.8533388    4903.7562            1 
   42500    1.9836105    -4.780445    4906.3946       -1e+20 
   42600    2.0297488   -4.7594439    4926.8775            1 
   42700    1.9677744   -4.7873601    4923.7168            1 
   42800    2.0352311   -4.8183974    4896.2926            1 
   42900     1.982445   -4.8465836     4894.228            1 
   43000    1.9966557   -4.8150905    4922.1937            1 
   43100    2.0186537   -4.7879422    4936.3702       -1e+20 
   43200    1.9781256   -4.8026638    4912.4841            1 
   43300    2.0054863   -4.8105303    4902.5348            1 
   43400    1.9958533   -4.7741204    4966.9901            1 
   43500    2.0467064   -4.7788625    4935.9943       -1e+20 
   43600     1.995053    -4.801188    4913.0321            1 
   43700    2.0054193    -4.795406    4915.8053            1 
   43800    1.9953724   -4.7891801    4947.7853            1 
   43900    1.9741289   -4.8054659    4894.1009            1 
   44000    1.9888739   -4.8340144    4894.6559            1 
   44100    1.9909815   -4.8008747     4904.475            1 
   44200    2.0417541   -4.8279766     4933.871            1 
   44300     1.997185   -4.7842692    4927.6649            1 
   44400    2.0206979   -4.8200376    4920.3305       -1e+20 
   44500    2.0043934   -4.7972997    4938.3784            1 
   44600     2.016422    -4.771946    4949.7136            2 
   44700    2.0125404   -4.7919427    4932.5916            1 
   44800    1.9766618   -4.8167434    4903.0734            1 
   44900    2.0155751   -4.8306936     4887.675            1 
   45000    1.9739299   -4.7972686    4921.7476            1 
   45100    2.0058005   -4.7758164    4942.5289       -1e+20 
   45200    2.0120053   -4.7501622    4937.7205       -1e+20 
   45300    1.9840002   -4.8176026    4907.8589            2 
   45400    1.9952301   -4.7918665    4937.4039            1 
   45500    2.0168409   -4.7578676    4949.4873            1 
   45600     2.010941   -4.8060351    4914.4727            1 
   45700    1.9822289   -4.7903132    4887.4329            1 
   45800    1.9739881   -4.8790371     4880.141            1 
   45900    1.9517166   -4.7636677    4926.0062            1 
   46000    2.0345636   -4.7752371    4905.9258            1 
   46100    1.9721843   -4.8013201     4926.827       -1e+20 
   46200    1.9849445   -4.7895304    4908.9605            1 
   46300    2.0033885    -4.788816      4895.32            3 
   46400    1.9691622   -4.7919711    4965.9771            1 
   46500    2.0337113   -4.7506617    4934.6063            2 
   46600    2.0098977   -4.7768915    4903.2217            2 
   46700    1.9957612   -4.8466483    4910.6419       -1e+20 
   46800    1.9728205   -4.8635283     4912.419            1 
   46900     2.004617   -4.7876009    4927.9602            1 
   47000    2.0109061    -4.802405    4937.3919            1 
   47100    2.0219334   -4.8146985    4938.3843            1 
   47200    2.0034407   -4.8417482    4897.3882            1 
   47300    1.9376361   -4.8587675    4878.6993            1 
   47400    1.9945339   -4.8599494    4902.8796            1 
   47500    2.0185919   -4.7833874     4898.524       -1e+20 
   47600    1.9691128   -4.7774105    4945.9697       -1e+20 
   47700    2.0427874   -4.8249333    4934.1253            1 
   47800    1.9933376   -4.7781784    4913.5573       -1e+20 
   47900    2.0083994   -4.7618176    4910.2392            1 
   48000    1.9840508   -4.7903586    4957.8886       -1e+20 
   48100      1.98845   -4.7842601    4877.6558            1 
   48200    1.9738253   -4.7796627    4914.4524            1 
   48300    2.0155445   -4.8178897    4947.2231            4 
   48400    2.0500859    -4.778554    4939.9792            1 
   48500    2.0145464   -4.7833519    4955.4436       -1e+20 
   48600    2.0023176   -4.8066517    4926.3861            1 
   48700    2.0316241    -4.802887    4931.5923            1 
   48800    1.9921465   -4.8108249    4909.4653            1 
   48900    1.9964001    -4.802831    4920.5831            1 
   49000    2.0093425   -4.7507413    4940.0632            1 
   49100    1.9637394   -4.7892316    4943.2977       -1e+20 
   49200    2.0333874   -4.8355449    4892.1121            1 
   49300    1.9969623   -4.8297709    4904.8601            1 
   49400     1.985297   -4.8401232    4921.9312            1 
   49500    2.0033677   -4.7550564    4897.1974            1 
   49600    2.0034249   -4.7374117    4955.4391            1 
   49700    1.9779051   -4.7937765    4953.2204       -1e+20 
   49800    2.0423118   -4.8420439    4922.1663            1 
   49900     2.013582   -4.8208542    4938.4305            1 
   50000    1.9931668   -4.8192963    4899.5119            1 
   50100    1.9924643   -4.8047372    4903.3798            1 
   50200    2.0050552   -4.7987478    4930.7704            2 
   50300    1.9937578   -4.8445923    4927.2371            1 
   50400    2.0219451   -4.8122667    4891.1024            1 
   50500    1.9986512   -4.7616361    4945.2187            1 
   50600    2.0016705   -4.7553033    4930.5793            1 
   50700    1.9893797   -4.7766085    4905.8807            1 
   50800    2.0157713   -4.7516029    4957.8692       -1e+20 
   50900    2.0277433    -4.787731    4947.1405            1 
   51000    1.9892451    -4.765276    4927.6332       -1e+20 
   51100    2.0011186   -4.7826307    4931.9672       -1e+20 
   51200    1.9681741   -4.7707322    4914.4949       -1e+20 
   51300    2.0312815   -4.8257395    4908.1671            1 
   51400    2.0016986   -4.7964106    4964.3284            1 
   51500    2.0075478   -4.7820887    4911.8261            3 
   51600    1.9822375   -4.7680576    4931.4195       -1e+20 
   51700    1.9991024   -4.7900321    4939.1249       -1e+20 
   51800    1.9575673   -4.8142592    4884.9251            1 
   51900    1.9764849   -4.8261988    4895.3916            3 
   52000    2.0193005   -4.8246148    4918.7384            1 
   52100    1.9745627   -4.8461006    4937.0176            1 
   52200    2.0610167   -4.7899274       4892.3            2 
   52300     1.962432   -4.7622227    4948.5937            1 
   52400    1.9842682   -4.7476092     4922.336            1 
   52500    2.0194471   -4.7566947    4929.1352            1 
   52600    1.9776576   -4.7642165    4935.0758            1 
   52700    2.0269402   -4.8192647    4926.8441            2 
   52800    1.9539929   -4.8061828     4885.983       -1e+20 
   52900    2.0005194   -4.8253723    4922.1701            1 
   53000    2.0184781   -4.8113518    4910.0224            2 
   53100    1.9830797    -4.819368    4902.7575            1 
   53200    1.9995344   -4.8160768    4901.3852            1 
   53300    2.0044008   -4.7776411     4946.019            1 
   53400    1.9844523   -4.7518714    4918.5573            1 
   53500    2.0073103   -4.8060089    4914.0265            1 
   53600    1.9828478   -4.7922913    4952.6859            1 
   53700    2.0482265   -4.8024141    4901.3521       -1e+20 
   53800    1.9690599   -4.7950443    4928.3385            1 
   53900    2.0133592   -4.7743894    4934.8247            1 
   54000      2.00805   -4.7694557     4941.654            1 
   54100     1.999705   -4.8054833    4927.1221       -1e+20 
   54200    2.0304144    -4.832799    4900.0436            1 
   54300    1.9551004   -4.8192242    4906.5592            1 
   54400    2.0455047   -4.8473748    4900.5695            1 
   54500    1.9597433   -4.7720449    4905.0215            1 
   54600    2.0377217   -4.7989638      4935.27            1 
   54700    1.9916109   -4.7678013    4940.8715            1 
   54800    2.0120442   -4.8057741    4883.9825       -1e+20 
   54900    1.9739181   -4.8248506    4903.4498       -1e+20 
   55000    1.9750753    -4.790976    4898.0706            1 
   55100    2.0058681   -4.7887386    4917.9674            2 
   55200    1.9897753    -4.752144    4939.3647       -1e+20 
   55300    1.9778506   -4.7943289    4898.6944            1 
   55400    2.0198562   -4.7957372    4919.0884            1 
   55500    1.9612546   -4.7372273    4951.9932            1 
   55600    2.0448712    -4.754247    4931.4347            1 
   55700    1.9779655   -4.7797526    4947.2344            1 
   55800    2.0119585   -4.8683665    4919.0847            1 
   55900    1.9751764   -4.8221086    4875.5112            1 
   56000    1.9953868   -4.7955078    4924.9154            1 
   56100    2.0158805   -4.7734795    4950.8282            1 
   56200    1.9753612   -4.7743792    4918.2648            1 
   56300    1.9994955   -4.7731503    4924.4681            1 
   56400      1.98768   -4.8281007    4939.3024       -1e+20 
   56500    1.9969516   -4.7884697    4882.2247            1 
   56600    2.0012817   -4.8363813    4888.9189            1 
   56700    2.0112665   -4.8381703     4937.922            1 
   56800    2.0237335   -4.7506043    4932.2781            1 
   56900    1.9987281   -4.7929273    4921.0301            1 
   57000    1.9891502   -4.7346148     4942.502            1 
   57100    2.0269871   -4.7451167    4963.0163            1 
   57200    2.0054085   -4.8045623    4927.2143       -1e+20 
   57300     1.998602    -4.827976    4890.0838            2 
   57400    2.0170832   -4.8167029    4903.1788            1 
   57500    1.9942019   -4.8231202    4916.4149            1 
   57600    2.0208958   -4.8280271    4914.4839            2 
   57700    1.9917412   -4.7703118    4933.5483            1 
   57800    2.0162646   -4.7742162    4931.9008            1 
   57900    1.9674231   -4.7627394    4943.7092            1 
   58000    1.9567651   -4.8023237    4896.2802            1 
   58100    2.0012902   -4.7995212    4904.8593            1 
   58200    1.9840698   -4.8464623    4909.0819            1 
   58300    2.0455055    -4.830308    4891.0305            2 
   58400     2.036439   -4.7751747    4937.0688            1 
   58500    1.9756776   -4.7987674     4935.274            1 
   58600    2.0099794   -4.8205741    4895.0912            1 
   58700    1.9894613    -4.821378    4901.4143            1 
   58800    1.9965646   -4.8105937     4918.693            2 
   58900    2.0066579    -4.768589    4946.6854            1 
   59000    2.0304894   -4.7684063    4936.8686            1 
   59100    2.0096163   -4.7891118    4966.9082            1 
   59200    2.0081132   -4.7907262    4923.0531            1 
   59300    1.9998489   -4.7805902    4913.4171            1 
   59400    1.9835335   -4.8475008    4915.5799            2 
   59500    2.0187366   -4.7852509    4922.0129            1 
   59600    1.9997348    -4.732462    4956.5539            2 
   59700    1.9839388   -4.7689846     4936.478            1 
   59800    2.0227071   -4.7863288    4932.9556            3 
   59900     1.977724   -4.8221436    4920.4671            1 
   60000    1.9861684   -4.7744271    4928.3364            1 
   60100    2.0178626   -4.7743324    4958.6822            1 
   60200    1.9931385   -4.7960516    4921.4415            1 
   60300    2.0073531   -4.8311601    4897.3784            2 
   60400    1.9328738   -4.8040959    4913.6542       -1e+20 
   60500    1.9935664   -4.7791852    4932.8401            1 
   60600    2.0617808   -4.7741102    4930.2539            1 
   60700    1.9806776   -4.8165442     4950.403            1 
   60800    2.0026539   -4.8029087    4888.0122            1 
   60900    2.0167071   -4.8359279    4886.6802            1 
   61000    1.9915005   -4.8287871    4941.2173            1 
   61100    2.0250725    -4.797365    4903.2718            1 
   61200    2.0202763   -4.8316646    4905.4881       -1e+20 
   61300    1.9486613   -4.7419988    4942.8883            1 
   61400    2.0308447   -4.7612553    4930.0985            1 
   61500     2.000571   -4.7972287    4930.4932            1 
   61600     1.996009   -4.8003962    4897.8345       -1e+20 
   61700    2.0006667   -4.7981905    4915.6563            1 
   61800    2.0112547   -4.7820408    4951.5844            1 
   61900    1.9739396   -4.7819289    4922.4327            1 
   62000    1.9809996   -4.8090273    4899.3034            1 
   62100    2.0312562   -4.8000023    4929.5076            1 
   62200    1.9938381   -4.8206056    4915.5491       -1e+20 
   62300    1.9897585   -4.8187203    4880.4308            1 
   62400    2.0107021   -4.7980423    4942.4999            1 
   62500    2.0121034   -4.8047458    4947.9213            1 
   62600    1.9918424   -4.8264156    4896.0663            1 
   62700    1.9883737    -4.807108    4909.4946            1 
   62800    1.9838748   -4.7911678     4933.886       -1e+20 
   62900    2.0273095   -4.7811615    4903.0695       -1e+20 
   63000    1.9426657   -4.7640365    4936.2945            1 
   63100    2.0392091   -4.7998922    4915.9767            1 
   63200     1.979967   -4.8021337     4908.152            1 
   63300    1.9861798   -4.7981959    4921.3019            1 
   63400    2.0181085   -4.8132635    4935.6144            1 
   63500    2.0102006   -4.7490218    4907.1719            1 
   63600    2.0132248   -4.8396218    4877.9098       -1e+20 
   63700    1.9550114   -4.8693702    4906.9178            1 
   63800    2.0106529   -4.8280632    4915.4595            2 
   63900    2.0420652    -4.821064      4900.57            1 
   64000     1.968612   -4.8422683     4928.339            1 
   64100    2.0108537   -4.8274584    4920.8338            1 
   64200    2.0693774   -4.8351704    4909.9432            1 
   64300    1.9586376   -4.7893877    4949.5142            1 
   64400    2.0190755   -4.8001153    4901.1892       -1e+20 
   64500    1.9940326   -4.8051934    4898.4371       -1e+20 
   64600    1.9352965    -4.853086    4894.3505            1 
   64700    1.9776733   -4.8153809    4910.0029            1 
   64800     2.014306   -4.7839553    4919.0071            1 
   64900    1.9542118   -4.8112728    4926.0161            2 
   65000    1.9912739   -4.8520526     4869.959            1 
   65100    2.0154259   -4.8368132    4892.2011            1 
   65200      1.98384   -4.8158126    4931.9692            1 
   65300    2.0494588   -4.7716655    4925.7538       -1e+20 
   65400    2.0027387   -4.7997366    4940.7901            1 
   65500    1.9821382   -4.8263599    4900.0888            1 
   65600    1.9887974   -4.8027058    4900.2406            1 
   65700     1.974314   -4.7325662     4931.857            2 
   65800    1.9886773   -4.7726496    4932.0875            1 
   65900    1.9793727   -4.7923258    4901.0996            1 
   66000    2.0068289   -4.7983259    4961.3933            1 
   66100     2.003439   -4.8159379    4911.5085            1 
   66200    2.0413543    -4.825356    4895.8876            1 
   66300    2.0091459   -4.7274808    4964.1609            1 
   66400    1.9922205   -4.7350763     4950.725            2 
   66500    1.9592681   -4.7640565    4915.3734            1 
   66600    2.0252314    -4.833944    4889.6821            1 
   66700    1.9515254   -4.8149296    4902.4559       -1e+20 
   66800    1.9933802   -4.8151919    4928.9463            1 
   66900    2.0320645    -4.784154    4926.9547            2 
   67000    1.9965245   -4.8298736    4902.0132            1 
   67100    1.9588303   -4.8104496    4922.3683            2 
   67200    2.0096676   -4.7655461    4896.2786            1 
   67300    2.0041899   -4.8056006    4928.7195            1 
   67400    1.9714885   -4.8067596    4925.2232            1 
   67500    2.0237943   -4.8563759    4861.0452            2 
   67600    1.9967908   -4.8416678     4913.487            1 
   67700    1.9861141   -4.8268892     4920.175            1 
   67800    2.0336793   -4.7704326     4920.944            1 
   67900    2.0461124   -4.8102228    4968.1821            1 
   68000    1.9638588   -4.8010809    4960.4345            1 
   68100    2.0364223   -4.8105493    4892.1893            1 
   68200    1.9847706   -4.7928872    4920.5812            2 
   68300     2.037795   -4.7613952    4935.8492       -1e+20 
   68400    2.0147589   -4.7633344    4965.5905       -1e+20 
   68500    2.0079967   -4.7742513    4916.4088            1 
   68600    2.0096705    -4.811266    4959.1043            1 
   68700    2.0014367    -4.802089    4926.6996            2 
   68800    2.0112974   -4.7854211    4912.9548       -1e+20 
   68900     2.008506   -4.8217644    4949.4193            1 
   69000     2.017184   -4.7714439    4932.8982            1 
   69100    2.0099515   -4.7952271    4907.6282            1 
   69200    1.9539143   -4.7980753    4920.8598       -1e+20 
   69300    2.0166884   -4.7778411    4923.3159            2 
   69400    2.0044808   -4.7945705    4917.7134       -1e+20 
   69500    2.0382766   -4.8777826    4917.9582       -1e+20 
   69600    1.9859045   -4.8376941    4917.6904            1 
   69700    1.9998086   -4.7973917    4919.6676       -1e+20 
   69800    1.9871502   -4.7984714    4940.6424            1 
   69900    2.0240983   -4.7899649    4916.7337            1 
   70000    1.9698681   -4.7963088    4907.6321            1 
   70100    1.9974881   -4.8051121    4947.5043            1 
   70200    2.0197172   -4.8017966     4915.865            1 
   70300    2.0039608   -4.8183595    4918.5907            1 
   70400    1.9946557   -4.7543684    4937.5333            1 
   70500    2.0231786   -4.7472218    4929.2079            1 
   70600    2.0168385   -4.8456654    4911.2482            2 
   70700    1.9660158   -4.8600137    4898.9435            2 
   70800    2.0177678     -4.82008     4888.516            1 
   70900    1.9774982    -4.779267    4943.0844            1 
   71000    1.9868244   -4.7541743    4923.3755       -1e+20 
   71100    2.0140902   -4.8073087    4894.2154            1 
   71200    1.9694437   -4.8639676    4907.6279       -1e+20 
   71300     1.967127   -4.8022056    4938.3504            1 
   71400    2.0278416   -4.7489195    4912.6947            1 
   71500    1.9862003    -4.800637    4933.2567            1 
   71600    1.9835301    -4.810364    4929.8699            1 
   71700    2.0327168   -4.8061119    4889.0118            1 
   71800     1.936467   -4.8085582    4943.0202            2 
   71900     2.053507   -4.8363111    4914.0463            1 
   72000    1.9919058   -4.7662847    4933.2769            1 
   72100    1.9918739   -4.7655445    4941.3331            1 
   72200    2.0326849   -4.8330034    4893.1966       -1e+20 
   72300    1.9459824   -4.8463575    4900.9104            1 
   72400    1.9982261   -4.8366093     4900.565            1 
   72500    2.0163603   -4.8155887     4920.459            1 
   72600    2.0137833   -4.8391081    4932.4741            1 
   72700    1.9748387   -4.7922662    4913.1195            2 
   72800    2.0278669   -4.8070073    4932.7908            1 
   72900    1.9856368   -4.7852165    4931.5463            1 
   73000    1.9900635   -4.8064629     4906.457       -1e+20 
   73100    1.9615419   -4.7895912    4878.8555            1 
   73200    2.0159976   -4.8223725    4906.2225            2 
   73300    2.0052396   -4.8602658    4928.2897            2 
   73400    1.9989547   -4.8168683     4888.768            1 
   73500     1.986514   -4.7434973    4924.2602            1 
   73600    2.0084597   -4.7289226    4930.4364            1 
   73700    1.9588214   -4.7766109    4959.2184            1 
   73800    1.9951363   -4.7689253    4881.3885       -1e+20 
   73900    2.0014633   -4.8178365    4927.8521            1 
   74000    2.0084071   -4.8560776    4924.0044       -1e+20 
   74100    1.9961091   -4.8283031     4900.656            1 
   74200    2.0187294   -4.8206945    4935.8208            2 
   74300    1.9976629   -4.8172235    4931.7161            1 
   74400    2.0240815     -4.82316    4900.4644            1 
   74500    1.9718221   -4.7718301    4937.0322            1 
   74600    2.0198447   -4.7877978    4921.0229            1 
   74700     1.953735   -4.7750755    4918.0791            1 
   74800    2.0492361   -4.7995229    4890.4591            1 
   74900    1.9888407   -4.7675467     4961.241            1 
   75000    2.0013708   -4.7785748    4934.8176       -1e+20 
   75100     2.010555   -4.7875557    4902.6533            1 
   75200    1.9560673   -4.8245421    4925.4626            1 
   75300     1.984652   -4.7749473    4904.5422            2 
   75400    2.0068044   -4.7380691    4950.6439            1 
   75500    2.0015443   -4.7627205    4947.8376            1 
   75600    1.9974657   -4.8182191    4920.9831            1 
   75700    1.9968652   -4.7622889    4925.0279            1 
   75800    2.0260463   -4.7466409    4966.9228            2 
   75900    1.9767078   -4.7358363    4959.3833            1 
   76000    1.9911355   -4.7810024    4901.2428            1 
   76100    1.9466106   -4.8247145    4893.9357            1 
   76200    2.0322201   -4.8341367     4910.657            2 
   76300    2.0002712   -4.7725428    4931.2608            1 
   76400     2.029301   -4.8035103    4943.7998            1 
   76500    2.0119867   -4.8283124    4912.4343            1 
   76600    1.9956075    -4.819391    4911.2854            1 
   76700    2.0132027   -4.8103195    4888.5097            1 
   76800     1.947274   -4.8561822    4912.2338            1 
   76900    1.9859457   -4.8289604    4905.5391            1 
   77000    2.0030935   -4.7520567    4897.1169            1 
   77100    1.9768434   -4.8060467    4940.0965            3 
   77200    2.0343832   -4.8173941    4949.1529            1 
   77300    2.0324378   -4.7951488    4914.9007            1 
   77400    1.9456722   -4.8095165    4932.2331            1 
   77500     2.026996   -4.7900197    4910.8292            1 
   77600    1.9895614   -4.7768107    4924.4696            1 
   77700    2.0196549   -4.7944112    4940.3003            1 
   77800    2.0151547   -4.8161121    4918.1563       -1e+20 
   77900    2.0519029   -4.8136635    4963.2142            2 
   78000    1.9881163   -4.7686586    4915.4337            1 
   78100    2.0213205   -4.7842098    4909.4012       -1e+20 
   78200    1.9567899   -4.8233056    4918.4174            2 
   78300    1.9822704    -4.773613    4922.1641            1 
   78400    2.0044677   -4.7275199    4943.6677            1 
   78500    2.0161222   -4.7851421    4923.0839            1 
   78600    1.9949098   -4.8120208    4931.6502            1 
   78700    2.0221342   -4.7748322    4934.7065       -1e+20 
   78800    2.0308985   -4.7608652    4961.7926       -1e+20 
   78900    2.0211393   -4.8095248    4955.3496            1 
   79000    2.0099408   -4.8278662    4915.7614            1 
   79100    2.0159788   -4.7812865    4911.3593       -1e+20 
   79200    1.9807267   -4.8204105    4939.9202            1 
   79300    2.0111224    -4.785994    4890.4955            1 
   79400    1.9689727   -4.7785423    4928.1499            2 
   79500    2.0113806   -4.8364074    4928.5106       -1e+20 
   79600     1.993419   -4.7820279    4914.4016            1 
   79700    1.9901995   -4.7494338    4931.4384       -1e+20 
   79800     1.993904    -4.789023    4949.8421            1 
   79900    2.0388062   -4.7883293    4919.9004            1 
   80000    2.0269437   -4.8312153    4896.4872            1 
   80100    1.9401903   -4.8013349    4926.3622            1 
   80200    2.0548382   -4.8492128     4926.735            2 
   80300    1.9767588   -4.7894762    4914.4196            1 
   80400    2.0392581   -4.8145103    4933.6894            1 
   80500    2.0124609   -4.8238742    4940.2255            1 
   80600    1.9675714    -4.776879    4905.2386            1 
   80700     2.007401   -4.7992417    4885.9844            2 
   80800    1.9582129   -4.8316594     4908.456            1 
   80900    2.0000205   -4.8009823     4936.192            1 
   81000    2.0220383   -4.7612345    4924.0803       -1e+20 
   81100    1.9891884   -4.8198134    4902.8735            1 
   81200    1.9998683   -4.8376321    4922.1768            1 
   81300    1.9866264   -4.7763816    4901.0561       -1e+20 
   81400     2.037771    -4.799594    4916.2222            1 
   81500    1.9689456   -4.8060514    4949.3828            1 
   81600    2.0380484   -4.7923779    4906.3212            1 
   81700    1.9681445   -4.7475982    4927.5487            1 
   81800    1.9828168   -4.7518813    4937.3053       -1e+20 
   81900    2.0017385   -4.7954876    4916.2793            1 
   82000    1.9910192   -4.8152095     4910.127            1 
   82100    1.9733229   -4.7594308    4937.0897            1 
   82200    2.0368293   -4.7449003    4956.5521            1 
   82300    2.0278769   -4.7825816    4925.3891            1 
   82400    1.9858686   -4.8214852     4923.411            1 
   82500    2.0131126   -4.7853375    4903.5178            1 
   82600    2.0357465   -4.7851316    4957.6977            1 
   82700    1.9745378   -4.8246069    4934.0924            1 
   82800    1.9898246    -4.808876    4902.8963            1 
   82900    2.0289286   -4.7660119    4908.9384            1 
   83000     1.949404   -4.7618651    4950.1308       -1e+20 
   83100    2.0207914   -4.7312571    4937.5564            1 
   83200    1.9902358   -4.7654081    4918.0529            1 
   83300    1.9884969   -4.8077137    4921.0207            2 
   83400    2.0303754   -4.8208521    4912.4764            1 
   83500    1.9626085   -4.7998725    4897.6459            1 
   83600     2.036769   -4.8012736    4921.7241            1 
   83700    1.9949776   -4.7846933    4936.7411            1 
   83800    1.9765006   -4.7958739    4919.4741       -1e+20 
   83900    2.0023109   -4.7439912    4927.4047       -1e+20 
   84000    2.0112323   -4.7755521    4927.6829            1 
   84100    1.9654944    -4.769949      4957.02            1 
   84200    2.0207716   -4.7971343    4882.7781            1 
   84300    1.9896593   -4.8185843    4907.5507            1 
   84400    1.9838522    -4.799787    4948.8785            1 
   84500     2.041591   -4.7693566    4912.8315            1 
   84600     1.992495   -4.8119122    4927.4631            1 
   84700    1.9734982   -4.8233803    4921.3443            1 
   84800    2.0102632   -4.7577728    4909.6471            1 
   84900    2.0072623   -4.7669241    4936.6932            1 
   85000    1.9776058   -4.7629517    4948.7168            3 
   85100    2.0382752   -4.7917868    4905.9797            1 
   85200    1.9477797   -4.8002433    4951.5019            2 
   85300    2.0308056   -4.7852866    4908.7102       -1e+20 
   85400    1.9508803   -4.7640165    4907.6793            1 
   85500    1.9642609   -4.7697006    4914.9992            1 
   85600    2.0171855   -4.7485048    4933.1762            1 
   85700    2.0037085   -4.7871558    4895.3534            1 
   85800    2.0313456   -4.8654409    4939.1523            2 
   85900     1.981432   -4.8097856    4955.6652            2 
   86000    2.0039339   -4.7650325     4877.248            1 
   86100    2.0051515   -4.7727138    4947.4598            1 
   86200    1.9948896   -4.7789655     4947.763            1 
   86300    2.0008088   -4.8125608    4903.3409       -1e+20 
   86400    1.9954224   -4.8528196     4897.415            1 
   86500    1.9631009   -4.8701014    4885.2416            1 
   86600     2.033079   -4.8526917     4912.161            1 
   86700    1.9844326   -4.7791486    4921.2174            1 
   86800     2.004823   -4.7604178    4935.1458       -1e+20 
   86900    1.9913557   -4.8175064    4883.9127       -1e+20 
   87000    1.9776759   -4.8366087    4907.6875            2 
   87100    2.0110473   -4.7927285     4916.719            1 
   87200    2.0078541   -4.7705917    4942.2776            1 
   87300    1.9705438   -4.7800361    4955.0844            1 
   87400    2.0379131   -4.7781759    4903.4152            1 
   87500    2.0052807   -4.8269286    4930.1482            1 
   87600    1.9786368   -4.8433027    4913.7524            1 
   87700    2.0079479   -4.8072696     4900.829            1 
   87800    1.9792579   -4.7745527    4932.0974            1 
   87900    1.9972972   -4.7930084    4924.1418            1 
   88000    2.0292876   -4.7909174    4924.2928            1 
   88100    1.9921121   -4.7789891    4968.7497            1 
   88200    1.9930977   -4.7740453    4920.0006       -1e+20 
   88300    1.9792409   -4.7541097    4909.2756            2 
   88400    2.0282518    -4.754491    4966.5734            1 
   88500    1.9960762   -4.7297494    4949.5092            1 
   88600    1.9733453    -4.788562    4920.6734       -1e+20 
   88700    1.9967699   -4.8060546    4918.6018            1 
   88800    2.0200248   -4.8264025     4929.308            3 
   88900    1.9954644    -4.773537    4925.9384            1 
   89000    2.0064156   -4.7868627     4910.613            2 
   89100    1.9530964   -4.8016219    4914.9015            1 
   89200    2.0249379   -4.8023969    4930.4592       -1e+20 
   89300    1.9706754   -4.7657379    4929.5247            1 
   89400     2.051732   -4.7589594    4942.9879            1 
   89500    2.0188132   -4.7685388    4944.8931            1 
   89600    1.9807218   -4.7971331     4917.167            1 
   89700    2.0270463   -4.8006618     4942.287            1 
   89800    1.9943261   -4.8270165    4938.8404       -1e+20 
   89900    1.9861933    -4.833981    4883.3385            1 
   90000    2.0135771   -4.8460803    4875.1832            2 
   90100    1.9869874   -4.8613211    4921.3896       -1e+20 
   90200    2.0284723   -4.8084283    4906.1139            1 
   90300    2.0092557   -4.8246718    4923.6308            1 
   90400    1.9902712   -4.8253788    4928.2131            3 
   90500    1.9901249   -4.7797936     4901.586            1 
   90600    2.0311394   -4.8235569    4932.7988            1 
   90700    1.9706435   -4.8222088     4889.229            1 
   90800    2.0046122   -4.8463964     4869.583            1 
   90900    1.9780921   -4.8048766    4932.2066            1 
   91000    2.0015933    -4.758276    4924.4984            1 
   91100     1.991349   -4.8193227    4898.3523            1 
   91200    1.9686722    -4.827001     4917.156            1 
   91300     1.997758   -4.7665067    4923.7228            1 
   91400    2.0436007   -4.8052497    4958.2931       -1e+20 
   91500    1.9790132   -4.7715763    4936.3804            1 
   91600    1.9743893   -4.7642956    4899.2164            1 
   91700    2.0454051   -4.7775643    4913.6664            1 
   91800    1.9854378    -4.771149    4955.9651            2 
   91900    1.9760124   -4.8023348    4910.8444            1 
   92000    2.0126396   -4.8095575    4924.4267            1 
   92100    2.0363832   -4.8678645    4938.0724            1 
   92200    1.9760984   -4.8230619    4902.2077       -1e+20 
   92300    2.0001199   -4.7713759    4923.8382            1 
   92400    1.9934596   -4.7557991    4957.3825            1 
   92500    2.0394074   -4.8022303     4929.803       -1e+20 
   92600    1.9915829   -4.8155321    4927.6791            1 
   92700    2.0693111   -4.8011767    4909.8207            1 
   92800    1.9513583    -4.786606    4939.4047       -1e+20 
   92900    1.9739043   -4.7690955    4938.5897       -1e+20 
   93000    2.0158998   -4.7468725    4906.4601            1 
   93100    1.9973087   -4.7657086    4955.3788       -1e+20 
   93200    1.9996356   -4.7890337    4942.9077            1 
   93300      1.99141   -4.7776105    4926.5233            2 
   93400    1.9879493   -4.7664391    4930.2558            1 
   93500    2.0828204   -4.7843817    4943.8948            1 
   93600    2.0003987   -4.7684103    4954.6109            1 
   93700    1.9853829   -4.7774935    4931.5879            1 
   93800    1.9806299   -4.8161112    4898.5254            1 
   93900    2.0076337   -4.8363389    4916.0716            1 
   94000    2.0091344   -4.7715513    4956.8137            1 
   94100    2.0168532   -4.7946566    4905.3918       -1e+20 
   94200    2.0063688   -4.7733919    4920.4889            1 
   94300    1.9521603   -4.8139131    4937.4344            1 
   94400    2.0086792   -4.8084545    4917.6514            3 
   94500    2.0032169   -4.8067576    4896.3795       -1e+20 
   94600     1.992199   -4.8649266    4907.2531            1 
   94700    2.0128498   -4.8399265    4901.2691            1 
   94800    2.0041517    -4.818047    4923.9091            1 
   94900    2.0170088   -4.7933244    4941.8259       -1e+20 
   95000    1.9841923   -4.7966925    4943.5491            1 
   95100    2.0563896    -4.815863     4917.539            1 
   95200    1.9518982   -4.7656919    4920.5128            1 
   95300    1.9977343   -4.7972545    4929.9646            1 
   95400    1.9837266   -4.7955291    4892.4994            1 
   95500    2.0029956   -4.8375844    4900.2173            1 
   95600    1.9585922   -4.7698596    4946.6029       -1e+20 
   95700    2.0626448   -4.7612196    4914.2252            2 
   95800    1.9696711   -4.7700822    4919.6417            1 
   95900    1.9899996   -4.8318686    4919.7842            1 
   96000    1.9997911   -4.8278609    4895.3278            1 
   96100    1.9851985   -4.7931368    4941.0598            1 
   96200    1.9843826   -4.7717625     4913.387            1 
   96300    2.0042101    -4.815814    4893.4698            1 
   96400    2.0066618   -4.8501996    4930.8715       -1e+20 
   96500    1.9727361    -4.732396    4914.1984            1 
   96600    2.0332416    -4.766942    4932.6293       -1e+20 
   96700    1.9705506   -4.7833139    4941.6654       -1e+20 
   96800    2.0263922   -4.8505457    4899.8602            2 
   96900     2.004808   -4.8361641    4895.7847       -1e+20 
   97000    1.9581426    -4.846724    4906.9741            1 
   97100      2.01455    -4.804934    4890.2542            1 
   97200    1.9785453   -4.8217371    4892.9943            2 
   97300    2.0110475   -4.8590024    4900.9814            1 
   97400    2.0100524   -4.7858865    4908.0238            2 
   97500    1.9210359   -4.8087977    4910.5163            1 
   97600    2.0127129   -4.8628677     4900.061            1 
   97700     2.013626   -4.8077781    4902.7993            1 
   97800    1.9950964   -4.8228442    4931.4796            1 
   97900    2.0069865   -4.8055289    4905.0585            2 
   98000    2.0431456   -4.8015508    4954.6287       -1e+20 
   98100    1.9940395   -4.8197344    4936.1196            1 
   98200    2.0363209   -4.8264468    4918.9203            1 
   98300    1.9399003   -4.7749923    4932.3572            1 
   98400    2.0330296   -4.7889451    4911.1149            1 
   98500    1.9656661    -4.781372    4921.3159       -1e+20 
   98600     1.998779   -4.8106479    4910.5891            2 
   98700    2.0411979   -4.8200352    4935.7841            2 
   98800    1.9829607    -4.804523    4927.8773            1 
   98900    1.9976184   -4.8018192    4907.0226            1 
   99000     2.006083   -4.7726915    4946.8757            1 
   99100    1.9857521   -4.7467942    4909.2679            2 
   99200    2.0052477   -4.8154783    4909.2807            1 
   99300    1.9879775   -4.7573921    4947.7856            2 
   99400    2.0208179   -4.7209022    4964.6316       -1e+20 
   99500    1.9950569   -4.7591064    4927.9289            1 
   99600    1.9716173   -4.7569779    4936.1259            1 
   99700    2.0170192   -4.7726255    4936.2006            1 
   99800     1.996191   -4.7420173    4931.8092            1 
   99900    1.9620344   -4.8062261    4936.3607            2 
  100000    2.0343455   -4.7911258     4933.483            1 
  100100    2.0348403   -4.7750363     4927.125            1 
  100200    1.9701783   -4.7999276    4943.8811       -1e+20 
  100300    2.0163013   -4.7730552    4917.2262            1 
  100400    2.0265499   -4.8134637    4924.8133            1 
  100500    1.9765941   -4.8344121     4923.012            1 
  100600    2.0610666   -4.7995146    4889.1136            1 
  100700     1.974314   -4.7794645    4920.3181       -1e+20 
  100800    1.9937881   -4.7894967    4954.1556       -1e+20 
  100900    1.9589907   -4.7945757    4903.0019            1 
  101000    2.0187296   -4.7894542    4921.8691       -1e+20 
  101100    2.0295937   -4.8389846    4928.5276            1 
  101200      1.95798    -4.831228    4911.3959            1 
  101300    2.0189125   -4.7982401    4921.7846            3 
  101400    2.0077124   -4.8005487     4907.411            1 
  101500    1.9770682   -4.8667405    4906.2122            1 
  101600    1.9987475    -4.827064    4906.4886            1 
  101700    2.0231093   -4.8011844    4928.5229       -1e+20 
  101800    2.0168519   -4.8059359     4953.613            1 
  101900    1.9730043   -4.7738632    4892.0704            1 
  102000    1.9796263   -4.7856457    4906.8378            1 
  102100    2.0075598   -4.8206884    4963.1642            1 
  102200    2.0110721   -4.8113677    4939.5783            1 
  102300    2.0006737   -4.8378553    4893.3428            1 
  102400     1.992805   -4.8633701    4904.8415            1 
  102500    2.0189652   -4.8252962    4926.6528            1 
  102600    2.0109386   -4.7416642    4931.9328            1 
  102700    1.9540456   -4.7718715     4931.057            1 
  102800     1.993512   -4.8126362    4902.8957            1 
  102900    1.9912169   -4.8321916    4888.0313       -1e+20 
  103000    1.9995403   -4.7899659    4927.0451            1 
  103100    2.0040329    -4.746836    4943.4096            3 
  103200    1.9792931   -4.7920247    4928.0266            1 
  103300    2.0249788   -4.8232695    4941.2143            1 
  103400    2.0234619   -4.8390822    4903.0511            1 
  103500    1.9559889    -4.797649    4893.4456       -1e+20 
  103600     2.002528   -4.8015648    4931.9241            1 
  103700    2.0287768   -4.7906791    4947.4277            1 
  103800    1.9911415   -4.8244529    4919.2288            1 
  103900     2.017727   -4.7997709    4918.0819       -1e+20 
  104000    1.9841169   -4.8017719    4916.1244            1 
Loop time of 120.768 on 64 procs for 100000 steps with 4000 atoms

Performance: 143083.884 tau/day, 828.032 timesteps/s
99.9% CPU use with 64 MPI tasks x no OpenMP threads

MPI task timing breakdown:
Section |  min time  |  avg time  |  max time  |%varavg| %total
---------------------------------------------------------------
Pair    | 6.1226     | 6.2822     | 6.4182     |   3.0 |  5.20
Neigh   | 1.3833     | 1.414      | 1.4708     |   1.5 |  1.17
Comm    | 13.728     | 15.868     | 18.88      |  35.7 | 13.14
Output  | 4.8055     | 4.8069     | 4.8161     |   0.1 |  3.98
Modify  | 86.753     | 90.883     | 93.808     |  21.7 | 75.25
Other   |            | 1.514      |            |       |  1.25

Nlocal:        62.5000 ave          70 max          54 min
Histogram: 1 3 2 14 4 14 15 1 8 2
Nghost:        1292.53 ave        1317 max        1261 min
Histogram: 1 2 8 5 7 8 14 12 4 3
Neighs:        5805.80 ave        6804 max        4742 min
Histogram: 1 1 4 9 18 13 7 8 2 1
FullNghs:      11599.4 ave       12955 max        9916 min
Histogram: 1 0 6 7 10 12 14 7 4 3

Total # of neighbors = 742360
Ave neighs/atom = 185.59000
Neighbor list builds = 8355
Dangerous builds = 314

#clear
#
#next RN
#
#jump SELF
Total wall time: 0:02:01
