
units lj                  # Use reduced LJ style units
atom_style atomic         # Uncharged point particles
atom_modify map hash      # Needed for indexing of clusters etc
                          # Used to be able to find where atoms are in relation to each other.

lattice fcc 1.0 spacing 1 1 1
Lattice spacing in x,y,z = 1.5874011 1.5874011 1.5874011
region box block 0 10 0 10 0 10 units lattice
create_box 2 box
Created orthogonal box = (0.0000000 0.0000000 0.0000000) to (15.874011 15.874011 15.874011)
  3 by 4 by 4 MPI processor grid
create_atoms 1 box
Created 4000 atoms
  using lattice units in orthogonal box = (0.0000000 0.0000000 0.0000000) to (15.874011 15.874011 15.874011)
  create_atoms CPU = 0.002 seconds
set type 1 type/fraction 2 0.96 78393
Setting atom values ...
  3848 settings made for type/fraction
mass 1 1.0
mass 2 1.0
pair_style lj/cut  3.5
pair_modify tail  yes
pair_coeff 1  1  1.0  1.0   # Intearaction between 1 and 1 set with epsilon = 1 and sigma = 1
pair_coeff 1  2  1.5  0.8
pair_coeff 2  2  0.5  0.88

write_data data.0
System init for write_data ...
Neighbor list info ...
  update every 1 steps, delay 10 steps, check yes
  max neighbors/atom: 2000, page size: 100000
  master list distance cutoff = 3.8
  ghost atom cutoff = 3.8
  binsize = 1.9, bins = 9 9 9
  1 neighbor lists, perpetual/occasional/extra = 1 0 0
  (1) pair lj/cut, perpetual
      attributes: half, newton on
      pair build: half/bin/atomonly/newton
      stencil: half/bin/3d
      bin: standard
WARNING: Not all mixed pair coeffs generated from mixing. Use write_data with 'pair ij' option to store all pair coeffs. (../write_data.cpp:312)


#############################
#   M E L T   S Y S T E M   #
#############################

velocity all create 2.4 2750902 mom yes dist gaussian # Assign velocities
                                                    # Temperature 2.4, random number seed, zero linear momentum
                                                                                # Gaussian distribution

timestep 0.002   # simulation timestep
thermo 1000       # output thermodynamic data every 1000 steps bf 100

# Define a fix  in this case with index 1 applied to all
# particles in the simulation. This fix is for simulations
# in the anisotropic NPT ensemble. Note that we use the MTK
# correction.
fix 1 all npt temp 2.4 2.4 0.1 iso 5.68 5.68 0.5 mtk yes tchain 5 pchain 5 # Use NPT ensemble
                                                                         # Set temperature and pressure and damping
                                                                         # Numbers of thermostats in chain and in barostat
run 10000          # run for 10000 steps
Per MPI rank memory allocation (min/avg/max) = 3.642 | 3.644 | 3.648 Mbytes
Step Temp E_pair E_mol TotEng Press Volume 
       0          2.4   -2.8820212            0   0.71707882   -2.0430313         4000 
    1000    2.4246928   -1.7234958            0    1.9126341    5.6913745    4162.9156 
    2000    2.4562557   -1.7232009            0    1.9602616    5.7045839    4177.6293 
    3000    2.4454412   -1.7452016            0    1.9220432    5.6072234    4161.3877 
    4000    2.3976647   -1.7083036            0    1.8872943    5.7276089    4167.2998 
    5000     2.379753   -1.7247258            0    1.8440113    5.6385055    4176.2871 
    6000    2.3749655   -1.6989435            0    1.8626142     5.757975    4189.0422 
    7000    2.4536705   -1.7149489            0    1.9646367    5.7270211    4164.9183 
    8000     2.398941   -1.7138173            0    1.8836946    5.3997452    4240.0271 
    9000    2.3724598   -1.7168571            0    1.8409429    5.7189868    4161.0695 
   10000    2.3564935    -1.736607            0    1.7972495     5.452692    4185.1452 
Loop time of 2.51273 on 48 procs for 10000 steps with 4000 atoms

Performance: 687697.486 tau/day, 3979.731 timesteps/s
99.6% CPU use with 48 MPI tasks x no OpenMP threads

MPI task timing breakdown:
Section |  min time  |  avg time  |  max time  |%varavg| %total
---------------------------------------------------------------
Pair    | 1.036      | 1.1064     | 1.2257     |   2.8 | 44.03
Neigh   | 0.20431    | 0.21176    | 0.23458    |   1.2 |  8.43
Comm    | 0.75234    | 0.85683    | 0.98866    |   5.2 | 34.10
Output  | 0.00023738 | 0.00024358 | 0.00038678 |   0.0 |  0.01
Modify  | 0.25775    | 0.32271    | 0.41483    |   7.3 | 12.84
Other   |            | 0.01478    |            |       |  0.59

Nlocal:        83.3333 ave          92 max          76 min
Histogram: 4 6 4 6 7 5 8 1 4 3
Nghost:        1596.17 ave        1624 max        1567 min
Histogram: 1 5 4 5 7 9 5 6 3 3
Neighs:        9112.44 ave       10373 max        7769 min
Histogram: 1 4 2 6 11 8 8 2 3 3

Total # of neighbors = 437397
Ave neighs/atom = 109.34925
Neighbor list builds = 911
Dangerous builds = 233

# Equilibrate just above the melting temperature to avoid step fn in T

fix 1 all npt temp 1.25 1.25 0.1 iso 5.68 5.68 0.5 mtk yes tchain 5 pchain 5
run 2000
Per MPI rank memory allocation (min/avg/max) = 3.643 | 3.645 | 3.649 Mbytes
Step Temp E_pair E_mol TotEng Press Volume 
   10000    2.3564935    -1.736607            0    1.7972495     5.452692    4185.1452 
   11000    1.2297361   -2.6064654            0   -0.7623225    5.7518372     3259.703 
   12000     1.270977   -2.6222869            0  -0.71629805    5.6775505     3248.708 
Loop time of 0.593285 on 48 procs for 2000 steps with 4000 atoms

Performance: 582519.214 tau/day, 3371.060 timesteps/s
99.6% CPU use with 48 MPI tasks x no OpenMP threads

MPI task timing breakdown:
Section |  min time  |  avg time  |  max time  |%varavg| %total
---------------------------------------------------------------
Pair    | 0.25807    | 0.27663    | 0.32687    |   2.3 | 46.63
Neigh   | 0.038768   | 0.040925   | 0.04843    |   0.8 |  6.90
Comm    | 0.17274    | 0.22543    | 0.246      |   2.8 | 38.00
Output  | 5.126e-05  | 5.2987e-05 | 7.0175e-05 |   0.0 |  0.01
Modify  | 0.038974   | 0.04566    | 0.052901   |   1.7 |  7.70
Other   |            | 0.004582   |            |       |  0.77

Nlocal:        83.3333 ave          92 max          76 min
Histogram: 2 5 6 8 5 8 8 2 3 1
Nghost:        1885.90 ave        1908 max        1860 min
Histogram: 1 4 3 8 8 2 7 5 7 3
Neighs:        11761.9 ave       13159 max       10190 min
Histogram: 1 5 1 6 12 6 6 3 3 5

Total # of neighbors = 564573
Ave neighs/atom = 141.14325
Neighbor list builds = 146
Dangerous builds = 21

#############################
# L I N E A R  Q U E N C H  #
#############################

# Define solid atoms. This closely follows ten Wolde  Ruiz-Montero and Frenkel  Faraday Discuss  1996  104  93-110
# Compute components of the per-atom q6 vector
compute q6 all orientorder/atom degrees 1 6 components 6 nnn NULL cutoff 1.3 # compute the Q6 parameter.
                                                                             # Use all neighbours within 1.3 unit cell.

# get number of connections
compute coord_number all coord/atom orientorder q6 0.5

# An atom is solid if it has 8 or more connections (of a possible 14)
variable is_solid atom c_coord_number>=8
group solid dynamic all var is_solid    # Must be dynamic to update
dynamic group solid defined

# do clustering
compute cluster solid cluster/atom 1.3 # Create a cluster where all atoms within are solid and max 1.3 units from another member

# define chunks one chunk per cluster
compute clus_chunks solid chunk/atom c_cluster nchunk every compress yes  # Says which atoms are in which chunk

# count the size of each chunk
compute size_chunks solid property/chunk clus_chunks count


# Find the maximum entry in the vector of chunk sizes
variable max_n equal max(c_size_chunks)


# Thermo style which includes this variable
# thermo_style custom step temp pe vol v_max_n

thermo ${N}  # Print the thermo information every 100 steps
thermo 1000  

# Reset the npt fix at a lower temperature (below freezing)
fix 1  all npt temp  ${temp} ${temp}  0.1  iso  5.68  5.68  0.5  mtk yes tchain  5  pchain  5
fix 1  all npt temp  0.45 ${temp}  0.1  iso  5.68  5.68  0.5  mtk yes tchain  5  pchain  5
fix 1  all npt temp  0.45 0.45  0.1  iso  5.68  5.68  0.5  mtk yes tchain  5  pchain  5

dump dmp2 all dcd ${N} traj.dcd
dump dmp2 all dcd 1000 traj.dcd


compute msd all msd com yes
variable twopoint equal c_msd[4]/6/(step*dt+1.0e-6)
fix 9 all vector 10 c_msd[4]
variable fit equal slope(f_9)/6/(10*dt)
thermo_style custom step temp pe c_msd[4] v_twopoint v_fit v_max_n

fix 1 all npt temp 1.25 ${temp} 0.1 iso 5.68 5.68 0.5 mtk yes tchain 5 pchain 5
fix 1 all npt temp 1.25 0.45 0.1 iso 5.68 5.68 0.5 mtk yes tchain 5 pchain 5
run 5000000 # 5000000  # Run for this many steps
Neighbor list info ...
  update every 1 steps, delay 10 steps, check yes
  max neighbors/atom: 2000, page size: 100000
  master list distance cutoff = 3.8
  ghost atom cutoff = 3.8
  binsize = 1.9, bins = 8 8 8
  4 neighbor lists, perpetual/occasional/extra = 1 3 0
  (1) pair lj/cut, perpetual
      attributes: half, newton on
      pair build: half/bin/atomonly/newton
      stencil: half/bin/3d
      bin: standard
  (2) compute orientorder/atom, occasional
      attributes: full, newton on
      pair build: full/bin/atomonly
      stencil: full/bin/3d
      bin: standard
  (3) compute coord/atom, occasional
      attributes: full, newton on
      pair build: full/bin/atomonly
      stencil: full/bin/3d
      bin: standard
  (4) compute cluster/atom, occasional
      attributes: full, newton on
      pair build: full/bin/atomonly
      stencil: full/bin/3d
      bin: standard
Per MPI rank memory allocation (min/avg/max) = 9.814 | 9.819 | 9.824 Mbytes
Step Temp PotEng c_msd[4] v_twopoint v_fit v_max_n 
   12000     1.270977   -2.6222869            0            0 8.3333333e+20            1 
   13000    1.2947754   -2.6349235    1.1218889  0.007191595   0.09601284            1 
   14000    1.2463778   -2.6216503    2.3986818  0.014277867   0.10212268            2 
   15000    1.2295189   -2.6184948    3.7514172  0.020841206   0.10560972            3 
   16000    1.2366305   -2.6281826    5.0881846  0.026500961    0.1079821       -1e+20 
   17000    1.2496373   -2.5980727    6.5049062  0.031886794   0.10962406            1 
   18000    1.2436375    -2.637016    7.6537988  0.035434253   0.10979553            1 
   19000    1.2240805    -2.621573    8.7999457  0.038596252   0.10837531            2 
   20000    1.2373491   -2.5861981    10.094392  0.042059967   0.10707278            1 
   21000    1.2790757   -2.6537886    11.333767  0.044975266   0.10624307            1 
   22000     1.247625   -2.6490102    12.557186  0.047565098   0.10567153            1 
   23000    1.2335658   -2.6248734    13.831216  0.050113102   0.10532731            1 
   24000    1.2367922   -2.6360162    15.082307  0.052369122   0.10520279            1 
   25000    1.2177271   -2.6273839    16.524064  0.055080211   0.10530045            2 
   26000    1.2413391   -2.6010133    17.850758  0.057213968   0.10567199            1 
   27000    1.2612619   -2.6352217    19.109211  0.058979045   0.10590539            1 
   28000    1.2919277   -2.6275824    20.460173  0.060893371   0.10633704            1 
   29000    1.2355907   -2.6329571    22.012913  0.063255495   0.10683676            2 
   30000    1.2285792   -2.6545122    23.073374  0.064092705   0.10722895            1 
   31000    1.2411749   -2.6506318    24.424037  0.065656011   0.10733627            1 
   32000    1.2374558   -2.6131842    25.579225  0.066612565   0.10725364            2 
   33000    1.2590415    -2.630887    26.781814  0.067630842   0.10719842            4 
   34000    1.2391681   -2.6182477    27.970596  0.068555382   0.10717831            1 
   35000    1.2459681   -2.6518379    29.353169  0.069888496   0.10718393            3 
   36000    1.2521334   -2.6359797    30.629128  0.070900759   0.10717796            1 
   37000    1.2435486   -2.6341176    31.681966  0.071355778   0.10700978            1 
   38000    1.2338762   -2.6127502    33.125766  0.072644224   0.10681845            1 
   39000    1.2763716   -2.6268623     34.32929  0.073353183   0.10667877            2 
   40000    1.2520123   -2.6270507     35.58085   0.07412677   0.10659759            1 
   41000    1.2391002   -2.6350907    36.673026  0.074538669   0.10645808            2 
   42000    1.2486035   -2.6489286    37.807779  0.075015434   0.10622518            1 
   43000    1.2444209   -2.6178862    39.013819  0.075608175   0.10604394            1 
   44000    1.2471706   -2.6541877    40.291784  0.076310197   0.10584125            1 
   45000     1.249284     -2.65035    41.698716  0.077219843   0.10565537            2 
   46000    1.2180917   -2.6588395    42.766647   0.07747581   0.10546562            1 
   47000    1.2546404   -2.6233051    44.046662  0.078096917   0.10533125            1 
   48000    1.2501464   -2.6185515    45.598269  0.079163661   0.10527765            4 
   49000    1.2122877   -2.6364268    46.898021  0.079758538   0.10527159            1 
   50000    1.2585702   -2.6499667      47.9762  0.079960332   0.10524991            2 
   51000    1.2467948   -2.6361186    49.500016  0.080882379   0.10526309            3 
   52000    1.2477711   -2.6418771    50.364022  0.080711573   0.10523377            2 
   53000    1.2566315   -2.6573636    51.911784  0.081622301   0.10523708            2 
   54000    1.2208875    -2.627721    53.286721  0.082232593   0.10526168            3 
   55000    1.2318317   -2.6420396    54.476519  0.082540179   0.10530749            1 
   56000     1.238613   -2.6493486    55.740133  0.082946626   0.10530357            2 
   57000    1.2524531   -2.6544542    57.242826  0.083688341   0.10535163            4 
   58000    1.2637259   -2.6668337    58.764725  0.084432076   0.10545051            2 
   59000    1.2494438   -2.6432662    59.647388  0.084247723   0.10550517            3 
   60000    1.2330459   -2.6254017    61.013857  0.084741467   0.10557728            2 
   61000    1.2201747   -2.6297858    62.058431  0.084779277   0.10560092            2 
   62000     1.234802   -2.6270164    63.218282  0.084970809   0.10556522            3 
   63000    1.2491757   -2.6463147    64.136665  0.084836858    0.1055034            1 
   64000    1.2408854   -2.6524569    65.454933  0.085227776   0.10542752            3 
   65000     1.258934   -2.6421675    67.216578    0.0861751   0.10539621            1 
   66000    1.2316124   -2.6426204    68.366177   0.08632093   0.10542649       -1e+20 
   67000    1.2478542    -2.628875    70.102618  0.087192311   0.10548684            1 
   68000    1.2362487   -2.6679031     71.67897  0.087841874   0.10556599            3 
   69000    1.2450825   -2.6378639    72.600674  0.087681973   0.10564897            2 
   70000    1.2439621   -2.6486316    74.092847   0.08820577   0.10572906            2 
   71000    1.2416504   -2.6635891    75.125297   0.08817523   0.10578524            1 
   72000     1.260005   -2.6488372    76.979243  0.089096345   0.10588901            1 
   73000    1.2574468   -2.6285438    78.317579  0.089403628   0.10600356            1 
   74000    1.2458007   -2.6672881    78.880955  0.088829904   0.10605972            3 
   75000    1.2269077   -2.6577583    79.916745  0.088796383   0.10606671            2 
   76000    1.2232442   -2.6432197    81.222579  0.089059845   0.10607674            1 
   77000    1.2355913   -2.6665653    82.735445  0.089540524   0.10606716            3 
   78000    1.2415287   -2.6387489     83.94766   0.08968767   0.10604893            2 
   79000    1.2551948   -2.6386068    85.191081  0.089864009   0.10602892            1 
   80000    1.2431992   -2.6394523     86.78014  0.090395979   0.10606212            2 
   81000    1.2234157   -2.6492149     88.43187   0.09097929   0.10611001            1 
   82000    1.2405461   -2.6394343    89.795244  0.091255328    0.1061777            1 
   83000    1.2293643   -2.6638334    91.061079  0.091426786   0.10626601            2 
   84000    1.2345958   -2.6453741    92.108793   0.09137777   0.10632101            3 
   85000    1.2466028   -2.6552504    92.933672  0.091111442   0.10633227            2 
   86000    1.2234196   -2.6268493    93.484826  0.090586071   0.10630213            2 
   87000    1.2505818   -2.6741145    94.528657   0.09054469   0.10624328            1 
   88000    1.2440554    -2.647352    95.645245  0.090573148   0.10616751            2 
   89000    1.2468553   -2.6534948    96.646862  0.090493316   0.10608753            1 
   90000    1.2144215   -2.6280842    98.054995  0.090791661   0.10602704            1 
   91000    1.2501693    -2.658453    98.586458  0.090280639   0.10594326            3 
   92000    1.2321573    -2.654754    100.44002   0.09097828   0.10584505            4 
   93000    1.2433052   -2.6525837    101.10703  0.090597696   0.10574946            3 
   94000    1.2210821   -2.6506792    103.25458  0.091537749   0.10566834            1 
   95000     1.219041   -2.6557096    104.62657  0.091777695   0.10561217            1 
   96000    1.2297221   -2.6732812    105.29584  0.091402642   0.10553573            2 
   97000    1.2251914   -2.6560214    106.47875  0.091476587    0.1054533            2 
   98000    1.2593167   -2.6437985    107.44614  0.091365766   0.10537483            1 
   99000    1.2190729   -2.6140608    108.98025  0.091734217   0.10529529            2 
  100000    1.2555377    -2.660853    109.30711  0.091089259    0.1052111            2 
  101000    1.2508484   -2.6640712    111.38834  0.091904567   0.10513092            1 
  102000    1.2319894   -2.6463537    112.89326  0.092233057   0.10506249            2 
  103000    1.2436879   -2.6254947    114.21957  0.092410658   0.10500683            1 
  104000    1.2361739   -2.6689089    115.09503  0.092223584   0.10497343            2 
  105000    1.2204296   -2.6623021    116.30534  0.092305827    0.1049231            1 
  106000    1.2302352   -2.6726246    117.95653  0.092733118   0.10488672            3 
  107000    1.2361936   -2.6277268    119.07774  0.092739676   0.10486633            2 
  108000    1.2536531   -2.6558252    120.54406   0.09301239   0.10484178            2 
  109000    1.2103797   -2.6437963    121.79716  0.093117094   0.10482241            2 
  110000    1.2529444   -2.6348694    123.10215  0.093259201   0.10480317            3 
  111000    1.2287595   -2.6448882    124.11692  0.093180872   0.10477133            3 
  112000     1.260471   -2.6452056    125.56642  0.093427396   0.10475025            3 
  113000    1.2427607   -2.6569434    125.85078  0.092810307     0.104724            2 
  114000    1.2419188   -2.6272535    128.15643  0.093681598   0.10468654            3 
  115000    1.2210892   -2.6112415    129.41678  0.093780273   0.10465248            2 
  116000    1.1989605   -2.6787393    130.12863   0.09348321    0.1046069            2 
  117000    1.2400655   -2.6467042    131.74966  0.093838786   0.10456313            1 
  118000    1.2067338    -2.671115    132.52707   0.09359256   0.10450975            1 
  119000    1.2215644   -2.6147459    134.54774  0.094221105    0.1044633            1 
  120000    1.1904043   -2.6530145    133.78562  0.092906681   0.10440307            1 
  121000     1.246033   -2.6824823    135.92917  0.093615129   0.10434631            3 
  122000    1.2208604   -2.6530299    136.48656  0.093228524   0.10429086       -1e+20 
  123000    1.2378998   -2.6559308    138.56271  0.093877177   0.10423703            1 
  124000    1.2447603   -2.6414246    139.53266  0.093771948   0.10419256            1 
  125000    1.2202021   -2.6564959    141.45663  0.094304418   0.10415347            1 
  126000    1.2602799   -2.6780338    141.90161   0.09385027   0.10413498            1 
  127000    1.2041199     -2.62317     143.3473  0.094059909   0.10410625            1 
  128000    1.2306205    -2.639245    144.35737  0.093982665   0.10405499            2 
  129000    1.2253449   -2.6614788    146.30608  0.094512974   0.10402026            2 
  130000    1.2419181   -2.6250198     147.8932  0.094803333   0.10399137            2 
  131000    1.2545836   -2.6306565    148.62065  0.094542398   0.10396886            1 
  132000    1.2336247   -2.6547519    149.96526  0.094675035   0.10395055            2 
  133000    1.2545934   -2.6459582    151.66375  0.095027415   0.10392436            2 
  134000    1.2281066   -2.5976654    152.03682  0.094550264   0.10390399            1 
  135000    1.2455899   -2.6489537    153.48402  0.094743222   0.10388287            1 
  136000     1.228473   -2.6295143     154.3519  0.094578368   0.10386815            2 
  137000    1.2227604   -2.6909383    156.39338  0.095129792   0.10384037            1 
  138000    1.2140901   -2.6606217    157.48624  0.095100388   0.10381852            1 
  139000    1.2173377   -2.6275218    157.62896  0.094501776   0.10379105            2 
  140000    1.2494335   -2.6478211    159.45511  0.094913758   0.10377684            1 
  141000    1.2521423   -2.6406629    161.34375  0.095356824   0.10376165            2 
  142000    1.2076847    -2.664051     162.0524   0.09510117   0.10374363            2 
  143000    1.2436571   -2.6488891     163.2199  0.095116494   0.10371171            1 
  144000    1.2121417   -2.6441301    163.91986  0.094861031   0.10368163            2 
  145000    1.2049405   -2.6357737    165.93348  0.095364069   0.10365405            2 
  146000    1.2515654    -2.655013    166.52081  0.095046124   0.10361667            1 
  147000    1.2404402   -2.6555103    167.99765  0.095236761   0.10358985            1 
  148000    1.2171982   -2.6585037    169.59097  0.095490412   0.10357753            2 
  149000    1.2096703   -2.6009945    170.12452  0.095147942   0.10354714            1 
  150000     1.225372   -2.6395725    171.70643  0.095392458   0.10351653            1 
  151000    1.2119384   -2.6468366    172.12178  0.094989943   0.10348601            2 
  152000    1.2327737    -2.664495    174.33019  0.095575763   0.10346649            1 
  153000    1.2239322   -2.6199709    175.67708  0.095684681   0.10344951            1 
  154000    1.2179437   -2.6806626    175.64038  0.095043494   0.10342453            3 
  155000    1.2428101   -2.6562913    177.60383   0.09548593   0.10340026            1 
  156000    1.2246451   -2.6626907     178.2853  0.095237873   0.10336986            2 
  157000    1.2360079   -2.6690377    179.40831  0.095227338   0.10333643            2 
  158000    1.2106125   -2.6478608    180.67833   0.09529448   0.10329648            4 
  159000    1.2126601   -2.6873603    181.54189   0.09514774   0.10325946            1 
  160000    1.2306659   -2.6299779    182.78963   0.09520293   0.10322255            3 
  161000    1.2331149   -2.6661939    184.37622  0.095432827   0.10318676            2 
  162000    1.2097572   -2.6538057    185.06531  0.095198206   0.10315568            1 
  163000     1.221683   -2.7008422    185.93209  0.095057306   0.10312069            1 
  164000    1.2454405   -2.6438468    187.72289  0.095387648   0.10309618            4 
  165000    1.2419457   -2.6686005    189.91242  0.095915364   0.10307279            1 
  166000     1.225045   -2.6353176     190.4626  0.095613755   0.10304809            2 
  167000    1.2365796   -2.6558065    191.37146  0.095494738   0.10301763            2 
  168000     1.231161   -2.6361532    193.30079  0.095883329   0.10300242            2 
  169000    1.2471557   -2.6694269    193.84476  0.095584199   0.10298308            3 
  170000    1.2481195   -2.6679838    195.07977  0.095627336   0.10296477            1 
  171000    1.2120517   -2.6523767    197.33753  0.096168387   0.10294346            1 
  172000    1.2113845   -2.6733934    197.36491  0.095622534   0.10292589            2 
  173000    1.2436581    -2.652086     198.1892  0.095466861   0.10289877            2 
  174000    1.2163081   -2.6294302    199.59998  0.095593858   0.10287249            2 
  175000    1.2340729   -2.6611373    200.38608  0.095421944   0.10283617            4 
  176000    1.1998153   -2.6532952    201.39111  0.095355639   0.10280002            1 
  177000    1.2289576   -2.6740673    202.24648  0.095219623   0.10275369            1 
  178000    1.1892448    -2.656659    204.58764  0.095780732   0.10271791            2 
  179000    1.2132681   -2.6567633    205.50108  0.095670894   0.10268705            1 
  180000    1.2265677   -2.6544021    207.52429  0.096076059   0.10267309            2 
  181000    1.2124151    -2.638348    208.86313  0.096161662   0.10265406            2 
  182000    1.2334401   -2.6520037    210.73574  0.096490721   0.10264044            2 
  183000    1.1971284   -2.6711688    211.96158  0.096521666   0.10263649            2 
  184000    1.2153243   -2.6993522    212.39684  0.096194219   0.10262843            1 
  185000    1.1989066   -2.6674421     214.0288  0.096409368    0.1026245            2 
  186000    1.2436857   -2.6679986    215.38944  0.096500645   0.10262303            1 
  187000    1.2294423   -2.6639521    217.08587  0.096740584   0.10261983            1 
  188000    1.2432624   -2.6503204    218.95671  0.097055278   0.10262286            2 
  189000    1.2315702   -2.6497413    219.07824  0.096595343   0.10263064            2 
  190000    1.2323526   -2.6695595    220.59108  0.096750474   0.10264063            2 
  191000    1.2035692    -2.678074    223.89903  0.097687184   0.10265164            2 
  192000    1.2193663   -2.6396795    224.05473  0.097245975   0.10266224            1 
  193000    1.2317076   -2.6825042    223.94079  0.096692915    0.1026593            2 
  194000    1.2012157   -2.6827716    224.45817   0.09641674   0.10265091            2 
  195000    1.2199506   -2.6667161    225.48221   0.09635992   0.10263647            1 
  196000    1.2348458   -2.6648567    226.76017  0.096411635   0.10262282            2 
  197000    1.2004879   -2.6556998    227.99408  0.096444196   0.10260796            2 
  198000    1.2200166   -2.6494838    230.10897  0.096847211     0.102585            2 
  199000    1.2228299   -2.6140829    228.99523  0.095894148   0.10255903            2 
  200000    1.2307501   -2.6397917    231.39835  0.096415978   0.10252697            4 
  201000    1.2294388   -2.6681702    232.44922  0.096371983   0.10249751            2 
  202000    1.2088652   -2.6512736     233.5062  0.096330941   0.10247354            1 
  203000    1.2216383   -2.6486474    235.05889  0.096493799   0.10245139            1 
  204000    1.2306952   -2.6414225    235.37067  0.096148149   0.10241682            1 
  205000       1.2271   -2.6795837    235.20796   0.09561299   0.10238069            1 
  206000    1.2390205   -2.6373981    236.66524  0.095738364   0.10235241            3 
  207000    1.2241973   -2.6803555    239.74035  0.096513827   0.10231853            1 
  208000    1.2290439   -2.6820467     240.6094  0.096397995   0.10228708            2 
  209000    1.2095086   -2.6518921    242.36954  0.096638572   0.10226595            1 
  210000    1.2057939    -2.674798    242.19037   0.09610729   0.10224865            2 
  211000    1.2320885   -2.6910144    245.05225  0.096782089   0.10223093            3 
  212000    1.2093728   -2.6780724    246.53172  0.096907122   0.10221846            4 
  213000    1.2292474   -2.6316292    249.23977  0.097511647   0.10220741            1 
  214000    1.2095204   -2.6853451    249.01195  0.096967269   0.10219716            2 
  215000    1.1952019   -2.6744695     249.7122  0.096787673   0.10218791            2 
  216000    1.2116698   -2.6405786    251.60916  0.097071434   0.10218442            3 
  217000    1.2183064   -2.6630179    253.43322  0.097324585   0.10218659            1 
  218000     1.224927   -2.6637653    253.31823  0.096834184   0.10218489            2 
  219000    1.2235957   -2.6769003     254.8609  0.096979032   0.10218096            1 
  220000      1.20467   -2.6393568    256.70143   0.09723539   0.10217247            3 
  221000    1.2144595    -2.686869    257.96924  0.097273469   0.10217211            1 
  222000    1.2349701   -2.6502116     259.5142  0.097415241   0.10217792            2 
  223000    1.2057001   -2.6449176    261.36539  0.097670174    0.1021861            1 
  224000    1.2232033   -2.6657384    262.59956  0.097693288   0.10219445            3 
  225000    1.2238005   -2.6519908    262.79817  0.097332656   0.10220064            2 
  226000    1.2073946   -2.6503581    265.03786  0.097727826   0.10220258            1 
  227000    1.2142619    -2.665297    264.89493  0.097244835   0.10220254            2 
  228000    1.2062412   -2.6586507    266.13628  0.097272033   0.10220021            2 
  229000    1.2045474   -2.6991364    266.66464  0.097039533   0.10219939            1 
  230000    1.2131915   -2.6666059    270.37445  0.097961759   0.10220011            1 
  231000    1.2276242   -2.6639768    270.32321  0.097519195   0.10220055            1 
  232000     1.212145   -2.6603566    272.27868  0.097801249   0.10219974            1 
  233000    1.2096394   -2.6621225    272.65903  0.097517536   0.10220375            2 
  234000    1.1940652   -2.6632393    274.05052   0.09759634   0.10220734            1 
  235000    1.2078313   -2.6884122    276.25311  0.097962095   0.10221542            1 
  236000    1.2233719   -2.6654528    278.14191   0.09821395    0.1022239            1 
  237000    1.1984939   -2.6707466    278.03219  0.097760968   0.10223142            1 
  238000    1.1978335   -2.6488494    279.41561  0.097834598   0.10223926            1 
  239000    1.1929797   -2.6510996    280.91568  0.097948285   0.10224961            1 
  240000    1.2169245   -2.6655697    281.71272  0.097816918   0.10225237            2 
  241000    1.2325213   -2.6738731    282.92413  0.097829921   0.10225641            1 
  242000      1.20716   -2.6840428    284.33728  0.097912288   0.10225606            1 
  243000     1.209933   -2.6897623    286.79713  0.098352925   0.10225947            3 
  244000    1.2255211   -2.6710648    287.66374  0.098245813   0.10226245            2 
  245000    1.2239033   -2.6669516    287.79925  0.097890901   0.10226277            2 
  246000    1.1990982   -2.6748286    288.92214  0.097873353   0.10225873            3 
  247000      1.22157   -2.6689126    289.54372  0.097686814   0.10224744            2 
  248000    1.2087304   -2.6602883    291.69919  0.098017202    0.1022452            2 
  249000    1.1985068   -2.6683333    293.44835  0.098208951   0.10224109            1 
  250000     1.210495   -2.6599603    294.52936  0.098176453   0.10224152            1 
  251000    1.2152025   -2.6753719    295.36459  0.098062612   0.10224063            2 
  252000    1.2187891   -2.6717479    295.64935  0.097767642    0.1022339            2 
  253000    1.2140396   -2.6647779    296.82739  0.097769232    0.1022273            2 
  254000    1.2018073    -2.662923    298.20909  0.097837628   0.10222153            1 
  255000    1.1975943   -2.6840361    299.66787  0.097930676   0.10221463            2 
  256000    1.2220268   -2.6914567    300.81535  0.097921663   0.10221279            1 
  257000    1.2258504   -2.6642799    302.05992  0.097944202   0.10220654            2 
  258000    1.1878889   -2.6870585    303.14684  0.097915645   0.10220205            3 
  259000    1.2282932   -2.6731511    304.24032   0.09788942   0.10220103            1 
  260000    1.2204564   -2.6755757    306.30179  0.098173649   0.10219841            1 
  261000    1.1564418   -2.6597063    306.85944  0.097975556    0.1021944            1 
  262000    1.2353416   -2.6486386    308.34796   0.09807505    0.1021871            1 
  263000    1.2207029   -2.6699829    308.69029  0.097810611   0.10217817            3 
  264000    1.2071428   -2.6992802    311.20215  0.098233001   0.10216977            1 
  265000    1.2022582   -2.6379045    311.60532  0.097989095   0.10215866            1 
  266000    1.2145869   -2.7177034    311.70449  0.097651782   0.10215328            1 
  267000    1.2125181   -2.6688938    313.32647  0.097792282   0.10214765            2 
  268000    1.2098851    -2.654116    315.03557  0.097958821   0.10214415            2 
  269000      1.19899   -2.6221278    317.20979  0.098268212   0.10214262            1 
  270000    1.1910671   -2.6672112    314.82755  0.097168998   0.10213638            2 
  271000     1.211834   -2.6933427    318.57616  0.097963148   0.10212866            2 
  272000    1.2331146   -2.6769964    319.97779   0.09803241   0.10212255            1 
  273000    1.2043485    -2.647969     321.7344  0.098209523   0.10211436            1 
  274000     1.215614   -2.6720206    321.23058  0.097697865   0.10210451            1 
  275000    1.2214448   -2.6815161    321.14218  0.097315812   0.10208982            3 
  276000    1.2107198   -2.7003323    324.02262  0.097832916   0.10207792            1 
  277000     1.191683   -2.6917007    325.87552   0.09803716    0.1020654            2 
  278000    1.2290093   -2.6646009     325.6673  0.097622093   0.10205275            2 
  279000    1.1956208   -2.6994409    326.66366  0.097569792    0.1020398            2 
  280000     1.213377   -2.6971343    328.12622  0.097656612   0.10203023            1 
  281000    1.2042404   -2.6625619    328.97272  0.097560117    0.1020133            2 
  282000     1.206479   -2.6884557    331.35922  0.097919392    0.1020003            1 
  283000    1.1950472   -2.6955578     330.6105  0.097352915   0.10198628            2 
  284000    1.2167267   -2.6907434    332.94038  0.097693772   0.10197137            1 
  285000    1.1906695   -2.6843097    334.14387  0.097702885   0.10195616            1 
  286000    1.2104726   -2.6765325    334.26268  0.097395887   0.10194091            1 
  287000    1.1860997   -2.6980677    334.35593  0.097083603   0.10192415            2 
  288000    1.1948509   -2.6895963    337.08776  0.097536969   0.10190848            5 
  289000      1.22272   -2.6437141    341.33955  0.098425475   0.10189323            1 
  290000    1.2100569   -2.6722215     340.3984  0.097815633   0.10188301            1 
  291000       1.2302   -2.6888311    341.77747  0.097874418   0.10187133       -1e+20 
  292000    1.1731842   -2.6922205    341.20659  0.097376309   0.10185992            5 
  293000     1.210399   -2.6571908    345.32086  0.098214122   0.10185037            2 
  294000    1.1974981    -2.690175    344.82269  0.097738857    0.1018389            2 
  295000    1.2054716   -2.6599045    346.32729  0.097832568   0.10182785            2 
  296000    1.2057503   -2.6764035    348.08714  0.097997506   0.10181363            2 
  297000    1.2200563   -2.6848455    346.37221  0.097186367   0.10180192            2 
  298000    1.2044763   -2.6465505    352.01609  0.098438504   0.10179265            1 
  299000    1.2213138   -2.6721943    351.60785    0.0979955    0.1017847            1 
  300000    1.1826304   -2.6664911    351.93351  0.097759308   0.10177369            2 
  301000    1.2155173   -2.6842375    354.51166  0.098148299    0.1017647            4 
  302000    1.1863866   -2.7065192    354.36267  0.097782194   0.10175619            2 
  303000    1.2056283   -2.6924471    355.30776  0.097719406   0.10174827            1 
  304000    1.2129427   -2.6496505    359.12059  0.098443145   0.10174123            1 
  305000    1.2084975   -2.6661052    359.68626  0.098274933   0.10173766            3 
  306000    1.2180767   -2.6600122    359.26137  0.097838064   0.10172922            1 
  307000    1.2065102   -2.6653092    364.09428  0.098831237   0.10172116            1 
  308000    1.2004522   -2.6863825    363.79327  0.098428915   0.10171503            1 
  309000    1.1855956   -2.6654063    364.80854  0.098384179   0.10171167            1 
  310000    1.2064248   -2.7022406    363.80909  0.097798141   0.10170768            5 
  311000    1.2114669   -2.6756164    366.25394  0.098138784   0.10170325            3 
  312000    1.2219023   -2.6887402    368.97526  0.098551083   0.10170143            2 
  313000    1.1980337   -2.6916249    368.70726  0.098164871   0.10169924            2 
  314000    1.2276334    -2.689846    370.75154  0.098394783   0.10169525            1 
  315000     1.170689   -2.6731092     373.1925  0.098728174   0.10168842            1 
  316000    1.2184066   -2.6504119    372.98958  0.098362232   0.10168301            2 
  317000    1.2217306   -2.6480451    373.28665  0.098130035   0.10167403            1 
  318000    1.2123664   -2.6830634    375.73262  0.098462427   0.10166769            1 
  319000     1.192006   -2.7149902    375.43447  0.098075881   0.10165961            1 
  320000    1.2072769   -2.6896477    375.98809  0.097913566   0.10164676            1 
  321000    1.2051896   -2.6491927    377.48094  0.097996089   0.10163543            2 
  322000    1.1744452   -2.6781079    376.74317  0.097500821   0.10162402            1 
  323000    1.1903546   -2.6786247    378.78681  0.097726214   0.10160747            2 
  324000    1.1769273    -2.694627    380.07896  0.097756934   0.10159127            1 
  325000    1.2271767   -2.6695721    382.05023  0.097961598   0.10157691            1 
  326000    1.1993529   -2.6682299    381.25901  0.097458848   0.10156015            1 
  327000     1.192243   -2.6820554    382.73757  0.097537606   0.10154358            1 
  328000     1.199585   -2.6895594    384.45142  0.097675665   0.10152994            1 
  329000    1.2117413   -2.6705837    387.22377  0.098080995   0.10151773            1 
  330000     1.210602   -2.6624523    388.48029  0.098101084   0.10150813            4 
  331000    1.1912079   -2.7200838    386.68103  0.097351719   0.10149346            1 
  332000    1.1990422   -2.6796081    389.58546  0.097787516   0.10148023            1 
  333000    1.2046526   -2.6756695    392.77317  0.098291584   0.10146627            4 
  334000    1.2009343    -2.696807    389.10142  0.097081192    0.1014519            2 
  335000    1.1917468    -2.692483    392.15109  0.097550022   0.10143236            2 
  336000    1.1932017   -2.6921144     393.7427   0.09765444   0.10141175            1 
  337000    1.2037706   -2.6761959    395.57034  0.097816601   0.10139425            3 
  338000    1.1982198   -2.6984518    398.13898  0.098160498   0.10138505            2 
  339000       1.1864   -2.6571745    398.48302   0.09795551   0.10137328            1 
  340000    1.1846344   -2.6891561    398.56012  0.097686303   0.10136034            1 
  341000    1.1992806   -2.7108903    401.41196  0.098096763    0.1013477            1 
  342000    1.1944151   -2.6886499     401.1883  0.097755433   0.10133691            1 
  343000     1.179059   -2.6688001    402.03679  0.097676577   0.10132394            4 
  344000    1.1884121     -2.69564     404.2694  0.097933477   0.10131542            1 
  345000    1.1728152   -2.6641481    406.84106  0.098270787   0.10130999            1 
  346000    1.2056088   -2.6893774    406.20073  0.097832547   0.10129997            1 
  347000    1.1969974   -2.6484195    409.76173  0.098405795   0.10129074            1 
  348000    1.1945522   -2.6786197    411.44386  0.098525828   0.10128348            2 
  349000    1.1882097   -2.6926938    410.09883  0.097922357   0.10127729            2 
  350000     1.198328   -2.7247587     412.3247  0.098172547   0.10127272            2 
  351000    1.2045936   -2.7049052    411.59076  0.097718604   0.10126411            1 
  352000    1.2236763   -2.7212605     414.1814  0.098054309   0.10125471            2 
  353000     1.192695   -2.6960142    414.93141   0.09795359    0.1012478            1 
  354000    1.2084381   -2.7251228    414.30202  0.097528723   0.10123831            1 
  355000    1.1882636   -2.6978603     416.3136  0.097726196   0.10122899            2 
  356000    1.2183675   -2.6869876    415.61179  0.097287404   0.10121674            2 
  357000    1.2109455   -2.6751736    419.93073  0.098023045   0.10120698            1 
  358000    1.1995868   -2.6598155    422.90715  0.098442073   0.10120073            4 
  359000    1.2125974   -2.7083666    422.58295  0.098092606   0.10119356            4 
  360000    1.2047349   -2.6881428    420.17335  0.097262351   0.10118076            1 
  361000    1.1815574    -2.671107    422.72623  0.097582233   0.10116553            4 
  362000    1.2028199   -2.6989408    424.58228  0.097739934   0.10115211            2 
  363000    1.1925593   -2.6794096    426.77435   0.09797391   0.10113837            2 
  364000    1.1976962    -2.719931    425.22257   0.09734949   0.10112318            1 
  365000    1.1722226   -2.6836125    427.09924  0.097511242   0.10110668            1 
  366000    1.1563726    -2.708469    430.36117  0.097987515   0.10109061            2 
  367000      1.18181   -2.6794128    430.29286  0.097705009    0.1010766            1 
  368000    1.2050411   -2.6734805    433.02325    0.0980578   0.10106376            1 
  369000    1.2150924   -2.7024432    430.93418  0.097320275   0.10104994            1 
  370000    1.1720938   -2.6582893    434.22319  0.097798016   0.10103468            2 
  371000    1.1814108   -2.6566831    434.91702  0.097690257   0.10102166            1 
  372000    1.1983851    -2.683186    436.92521  0.097877512   0.10100327            1 
  373000    1.2005994   -2.6765364    433.67829  0.096889698   0.10098346            1 
  374000     1.190479   -2.6803398    436.15086  0.097181564   0.10096289            2 
  375000    1.1893711   -2.6561414    439.27146  0.097615881    0.1009422            3 
  376000    1.2106477   -2.6637158    438.94538  0.097283994   0.10092141            2 
  377000    1.1889639     -2.67975    439.68343  0.097189088   0.10089844            4 
  378000    1.2039105   -2.6885565    440.83443  0.097185721   0.10087432            1 
  379000    1.1985959   -2.6851759    440.19852  0.096789471   0.10084933            1 
  380000    1.1888803   -2.6929377     442.8957   0.09712625   0.10082412            1 
  381000    1.2183057   -2.6679274    444.99534  0.097330565   0.10079994            1 
  382000    1.1897577   -2.6836898    443.98441  0.096855237   0.10077412            1 
  383000    1.1856038   -2.7119194    443.75307  0.096552016   0.10074634            1 
  384000    1.1790973   -2.7010823     444.3685  0.096434135   0.10071664            3 
  385000    1.1988888   -2.6920214     444.3214  0.096173464    0.1006868            1 
  386000    1.1885916   -2.6807106     448.7642  0.096883463    0.1006575            1 
  387000    1.2214667   -2.7076329    447.67972  0.096399596   0.10062754            1 
  388000     1.180127   -2.6749394    449.71635  0.096588564   0.10059935            1 
  389000    1.2018562   -2.7070688    452.04243  0.096838567   0.10057212            1 
  390000    1.1954188   -2.6871659    453.53381  0.096908933   0.10054331            1 
  391000    1.1653332   -2.6865348    454.08978  0.096779577    0.1005171            2 
  392000    1.1904097   -2.6923576    455.07779  0.096742727   0.10049045            1 
  393000    1.1944439    -2.716382    455.08727  0.096498572   0.10046398            1 
  394000    1.1908057   -2.6683255    456.51129  0.096554841   0.10043722            3 
  395000    1.1807546   -2.7103541    457.33981  0.096485191    0.1004107       -1e+20 
  396000    1.1821113    -2.695077    459.07213  0.096606089    0.1003858            1 
  397000    1.1723257   -2.7052468    463.22728  0.097234946   0.10035816            1 
  398000    1.1806127   -2.6757773    462.00832   0.09673541   0.10033203            1 
  399000    1.2093263   -2.6834576    462.38771  0.096572203   0.10030765            1 
  400000    1.1966781    -2.677569    466.07779   0.09709954   0.10028439            2 
  401000    1.2325926   -2.6768075    466.56385  0.096958405   0.10025975            1 
  402000    1.1748998   -2.6798512    467.03216  0.096814294   0.10023613            7 
  403000    1.1775599    -2.687791    467.42891  0.096656102   0.10021092            6 
  404000    1.1785804   -2.6737126    468.29259  0.096595005   0.10018666            2 
  405000    1.1736262   -2.7036241    466.66934  0.096022497    0.1001598            1 
  406000    1.1485929   -2.6972323     467.2794  0.095911206   0.10013246            2 
  407000    1.1747394   -2.7216205    471.90233  0.096622098   0.10010671            2 
  408000    1.2111215    -2.704214    473.52236  0.096716167   0.10008126            3 
  409000    1.1699616   -2.6929669    472.82433  0.096337475   0.10005746            2 
  410000    1.1817043   -2.6559258    474.01485  0.096344482   0.10003417            1 
  411000    1.1809419   -2.6857876    475.83702  0.096479526   0.10001047            2 
  412000    1.1777907   -2.6919004    477.59445   0.09660082  0.099986702            3 
  413000    1.1719671   -2.7243715    480.41521  0.096936079  0.099968323            2 
  414000    1.1835571   -2.7056525    481.70374  0.096961301   0.09994659            1 
  415000    1.2041881   -2.6847181    481.12499  0.096611443  0.099926042            2 
  416000    1.1706025   -2.6852056    482.08535  0.096571584  0.099904392            1 
  417000    1.1589054   -2.7194395    484.68246  0.096859004  0.099880388            2 
  418000    1.1918497   -2.7148278    485.69664  0.096829473  0.099859429            1 
  419000    1.1897163   -2.6804286    484.57032  0.096374367  0.099837759            1 
  420000     1.155805   -2.6955434    485.48976  0.096327334  0.099819176            4 
  421000    1.1788742    -2.697509      486.667  0.096331551  0.099795421            2 
  422000    1.1751434   -2.6861714    486.70179  0.096110147  0.099774094            3 
  423000     1.182965   -2.7164384    490.31182  0.096594133  0.099751456            1 
  424000    1.1739859   -2.7198474     489.4179  0.096190625  0.099729667            2 
  425000    1.1823198    -2.694134    493.42694  0.096750381   0.09970784            2 
  426000    1.1736458   -2.6718435    494.60128   0.09675299  0.099688527            3 
  427000    1.2074211   -2.7065047    494.62926  0.096531862  0.099667281            2 
  428000    1.2025508   -2.6897157    495.85393  0.096544768  0.099649349            2 
  429000    1.1661632   -2.7042828    495.07225  0.096167881   0.09962958            3 
  430000    1.2042426   -2.6901457    497.47034  0.096408981  0.099608934            3 
  431000    1.1878311   -2.7036587    497.25922  0.096144474  0.099590464            1 
  432000    1.1783474   -2.7221618    499.31997  0.096319438  0.099572587            2 
  433000    1.1796237   -2.7077531    503.51908  0.096905134  0.099553723            3 
  434000    1.2332489   -2.6825745    503.30373  0.096640501  0.099536045            1 
  435000    1.1716704   -2.6572364    505.61524  0.096861157  0.099519789            1 
  436000    1.1584722   -2.6980133    504.82932  0.096488784  0.099505621            3 
  437000    1.1964251   -2.6951981    509.33216  0.097126652  0.099488596            2 
  438000    1.1893143   -2.6945398    509.40667  0.096919077   0.09947208            1 
  439000    1.1786457   -2.7282085    510.65857  0.096935947  0.099455863            1 
  440000    1.1978087   -2.7037411    515.38918  0.097611588  0.099440063            1 
  441000    1.1875506     -2.68332    512.46904  0.096838443  0.099427848            3 
  442000     1.167735   -2.7464448     511.3815   0.09641431  0.099413863            2 
  443000    1.1930762   -2.7053526    513.38471  0.096573497  0.099399613            3 
  444000    1.1557281   -2.7109503    516.39847  0.096921635  0.099386189            2 
  445000    1.1840532   -2.6860531    518.49339  0.097096141  0.099372273            3 
  446000    1.1742392   -2.7167865    516.17208  0.096444709    0.0993594            2 
  447000    1.1987082   -2.7104534    516.54338  0.096298168  0.099345011            2 
  448000    1.2012795   -2.7124788    519.27544  0.096591414  0.099331462            2 
  449000    1.1637085   -2.6770555    521.25142  0.096743026  0.099317138            1 
  450000    1.1678646   -2.7310109      523.364  0.096919258  0.099303211            2 
  451000    1.1533003   -2.7056811    522.98284  0.096633932  0.099290706            3 
  452000    1.1698141   -2.6947983    523.68313  0.096549249  0.099275938            3 
  453000     1.180934   -2.7057749    527.71887  0.097078527  0.099262315            3 
  454000    1.1820603   -2.6766127    525.86751  0.096524873  0.099247901            3 
  455000    1.2021922   -2.6952282    528.04078  0.096710766  0.099232406            2 
  456000    1.1891101   -2.7174307    528.43896  0.096571447  0.099215257            1 
  457000    1.1797551   -2.6789832    530.11833  0.096666361  0.099199315            2 
  458000    1.1730951   -2.6832197    530.76737  0.096573394  0.099184573            4 
  459000    1.1669359   -2.7037599    532.23463   0.09662938  0.099168285            1 
  460000    1.2075482    -2.706692    532.38678  0.096446881  0.099152648            4 
  461000    1.1796045   -2.7002277    534.22747  0.096570402  0.099137312            2 
  462000     1.172484   -2.7086181    536.44322  0.096761043  0.099121816            1 
  463000    1.1544233   -2.7134272    536.11615  0.096493187  0.099104749            2 
  464000    1.1794601   -2.7258368     538.0788  0.096637715  0.099090879            1 
  465000    1.1678636   -2.6873385    537.16038  0.096265301  0.099076646            1 
  466000    1.1797057    -2.735659    538.46288  0.096291645  0.099061004            2 
  467000    1.1934696   -2.6739482    541.62012  0.096648843  0.099045121            2 
  468000    1.1737155    -2.679055     542.0771    0.0965237  0.099027217            2 
  469000    1.1736837   -2.7195567     542.6982  0.096428252  0.099011072            1 
  470000    1.1942224   -2.7152098    543.08557  0.096291767  0.098996161            1 
  471000    1.1797687   -2.7284719    545.85598   0.09657749  0.098979371            2 
  472000    1.1680725   -2.7348829    546.10981  0.096417692   0.09896241            2 
  473000    1.1658184   -2.7541542    544.98103  0.096014981  0.098946378            3 
  474000    1.1999777   -2.6882323    546.27772  0.096040387  0.098929849            2 
  475000     1.162085   -2.6938187    550.21312  0.096528618  0.098914199            2 
  476000    1.1755671   -2.7406036    547.15797  0.095790961  0.098897544            2 
  477000    1.1749677   -2.7264812    552.66186  0.096551688  0.098879322            1 
  478000    1.1453971   -2.7076057    551.49197  0.096145741  0.098861638            1 
  479000    1.1719501   -2.7296916    553.05519  0.096216978  0.098844209            2 
  480000    1.1887389   -2.7329323    551.78011  0.095795159  0.098826775            1 
  481000    1.1756486   -2.6982143    553.52998  0.095899165  0.098807271            1 
  482000    1.1604716   -2.7206904    556.23647  0.096168131  0.098787191            4 
  483000    1.2066902   -2.7010764     557.2554  0.096144824  0.098769154            2 
  484000    1.1548936   -2.7102945     558.4739  0.096155974  0.098749176            1 
  485000    1.1691805   -2.6736137    556.03097  0.095537967  0.098727898            2 
  486000    1.1814757   -2.7268064    557.16913  0.095536545  0.098707149            2 
  487000    1.1686391   -2.7157512    559.85259  0.095799554  0.098685877            1 
  488000    1.1668806   -2.7199676    559.67164  0.095572343  0.098665389            2 
  489000    1.1824571   -2.7133288    563.38318  0.096009403  0.098643767            2 
  490000    1.1804827   -2.7173161    562.40391  0.095646923  0.098620619            1 
  491000    1.1700782   -2.7145815     562.9721  0.095548557  0.098598449            3 
  492000    1.2022366   -2.6921535    567.01211  0.096038637  0.098575575            1 
  493000    1.1607221   -2.6967266    566.69113  0.095789575  0.098553233            1 
  494000    1.1533599   -2.7077029    567.09789  0.095664286   0.09852909            3 
  495000    1.1661624   -2.6961018    567.86617  0.095600365  0.098506271            2 
  496000    1.1743092    -2.724271    569.74808  0.095723803  0.098485977            3 
  497000     1.169217   -2.7332602    569.02557  0.095410056  0.098464162            1 
  498000    1.1661856   -2.7114207    570.17679  0.095411109  0.098440206            2 
  499000     1.175272   -2.7484937    568.44983  0.094931502  0.098417852            4 
  500000    1.1772708   -2.7385094    573.62659  0.095604432  0.098395581            1 
  501000    1.1732534   -2.6797115    574.38755  0.095540178  0.098370709            1 
  502000    1.1847468   -2.6977684    576.62203  0.095720788  0.098348294            2 
  503000    1.1522196   -2.7077025    578.28757  0.095806424  0.098327924            4 
  504000    1.1576419   -2.7311068    577.00262  0.095403871  0.098306687            2 
  505000    1.1439087   -2.7149889     580.3509  0.095767476  0.098286089            2 
  506000    1.1691222     -2.72198    582.75866  0.095974747  0.098268547            1 
  507000    1.1963721   -2.7076292    583.87042  0.095968182  0.098251395            2 
  508000    1.1824545   -2.7030438    585.45023  0.096038424  0.098234717            1 
  509000    1.1283159   -2.7066515    590.33804  0.096649973   0.09822047            2 
  510000     1.165851   -2.6852949    588.55507   0.09616913  0.098205466            1 
  511000    1.1415628   -2.7299501    583.96437  0.095232284  0.098189378            2 
  512000    1.1802622   -2.7387913    589.57717  0.095959825  0.098172228            2 
  513000    1.1436828   -2.7259714    588.90234  0.095663149  0.098157926            2 
  514000    1.1689498   -2.6936438    591.51424  0.095900494  0.098142983            2 
  515000    1.1875094   -2.6895278    595.56192  0.096369243  0.098129304            2 
  516000    1.1899675   -2.7155451    594.21952  0.095965685  0.098117292            2 
  517000    1.1898811   -2.6977969    596.90664  0.096213192    0.0981036            1 
  518000    1.1860529   -2.7282223    596.09386  0.095896695  0.098088606            1 
  519000    1.1395678   -2.7612377    597.66983  0.095964969  0.098071874            2 
  520000    1.1720386   -2.7247871    597.99862  0.095833113  0.098054534            2 
  521000    1.1694709   -2.7444305    598.00168  0.095649661  0.098040434            1 
  522000    1.1607159   -2.7315985    599.50373  0.095706215  0.098023625            1 
  523000    1.1601205   -2.7177337    603.60123  0.096176104  0.098008071            1 
  524000    1.1657264    -2.700401    602.05566  0.095746766  0.097996209            1 
  525000     1.178062    -2.747017    602.77737  0.095678947  0.097981529            2 
  526000    1.1573357   -2.7185007    605.11987  0.095868167  0.097965575            1 
  527000    1.1625484   -2.7231585     606.5459  0.095911749  0.097949694            2 
  528000    1.1561553   -2.7078375    607.84914  0.095935786  0.097935793            4 
  529000    1.1611214   -2.7204799    607.07347  0.095632242  0.097920656            1 
  530000    1.1490856   -2.7396026    607.52086  0.095522148  0.097905238            2 
  531000    1.1841164   -2.7197225     610.1205  0.095750235  0.097888962            1 
  532000    1.1657311    -2.719986    613.33164  0.096073252  0.097875372            1 
  533000    1.1744872   -2.7085615    613.94963  0.095989624  0.097860978            2 
  534000    1.1757286   -2.7289805    614.76477  0.095937074   0.09784513            2 
  535000    1.1422375   -2.7193167    614.46957  0.095711771  0.097829715            2 
  536000    1.1754046   -2.7188771    616.68751  0.095878034  0.097814061            1 
  537000    1.1685783   -2.7101279     619.6746  0.096163036  0.097801441            2 
  538000    1.1886639   -2.7336514    619.87724  0.096015681  0.097787235            1 
  539000    1.1508469    -2.717214    620.41249  0.095920298  0.097773025            2 
  540000    1.1933383   -2.7349125     620.6363  0.095777207  0.097759272            3 
  541000    1.1850826    -2.721919    622.75091  0.095925895  0.097744172            1 
  542000    1.1599243   -2.7181986    622.78582  0.095754277  0.097729741            1 
  543000    1.1717657   -2.7340767    623.53227  0.095692491  0.097715248            1 
  544000    1.1833254   -2.7272352    624.98039  0.095738418  0.097700915            2 
  545000     1.155671   -2.7422841    625.53497  0.095647549   0.09768713            1 
  546000    1.1677012     -2.70637    625.64487  0.095489143  0.097671073            1 
  547000    1.1811722   -2.7135276    632.39973  0.096343652  0.097657695            1 
  548000    1.1740388   -2.7037947    630.66117  0.095903463  0.097645011            3 
  549000    1.1574929   -2.7419982    629.11158   0.09549356  0.097633379            4 
  550000    1.1560825   -2.7206865    629.37385  0.095359674  0.097619217            1 
  551000    1.1678702   -2.7471268    632.63077  0.095679185  0.097605679            4 
  552000    1.1555822   -2.7203821    634.98931  0.095861913  0.097594218            2 
  553000    1.1861272   -2.7262572    634.84098  0.095666212  0.097581428            2 
  554000    1.1712065   -2.7085322    638.33385   0.09601893  0.097570315            3 
  555000    1.1732577   -2.7127466    638.55445  0.095879047  0.097559954            3 
  556000    1.1649338   -2.7646857    638.37652  0.095679934  0.097549489            3 
  557000     1.147153   -2.7489526     641.8303  0.096024881  0.097539418            1 
  558000    1.1621102   -2.7361538    641.97978  0.095875116  0.097530938            2 
  559000    1.1470339   -2.7079541    645.73124  0.096262857   0.09752302            2 
  560000    1.1374651   -2.7056789    647.85648  0.096407214   0.09751404            2 
  561000     1.172349   -2.7244592    648.29295  0.096300201  0.097507974            3 
  562000    1.1620933   -2.7279841    647.80871  0.096057045  0.097500507            1 
  563000    1.1682356   -2.7161763    649.03249  0.096067568   0.09749285            3 
  564000    1.1536615   -2.7414002    648.97281  0.095888418   0.09748431            2 
  565000    1.1733493   -2.7316434    647.95005  0.095567854  0.097475392            5 
  566000    1.1580326   -2.7158652    653.54337  0.096222523  0.097466338            1 
  567000    1.1528695   -2.7373479    654.52089  0.096196486  0.097456676            1 
  568000     1.126522   -2.7031457    656.05461  0.096252143  0.097447339            2 
  569000    1.1673975   -2.7002158    655.40424  0.095987732  0.097438518            1 
  570000    1.1651951   -2.7398776    656.96575  0.096047623  0.097428502            2 
  571000    1.1672272   -2.7408606    656.76203  0.095849683  0.097419493            1 
  572000    1.1404491   -2.7558073    659.60864  0.096096829  0.097410186            3 
  573000    1.1906503   -2.7187271    660.00986  0.095987472  0.097401432            1 
  574000     1.159518   -2.7073718    661.30762  0.096008655  0.097391951            1 
  575000    1.1617749   -2.7359672    662.17674  0.095967643  0.097384115            1 
  576000    1.1544322    -2.718755     663.1765  0.095945675  0.097375362            2 
  577000     1.178093   -2.7457402    663.92966  0.095888165  0.097367533            3 
  578000    1.1571379   -2.7232986    667.98923  0.096307559  0.097359195            2 
  579000     1.167392   -2.7556112    670.30907  0.096475111   0.09735296            1 
  580000    1.1389186   -2.7238593    667.54281  0.095911323  0.097344307            4 
  581000    1.1420778   -2.7031728    668.59945  0.095897798  0.097335072            3 
  582000    1.1670232   -2.7204987    669.69499  0.095889889  0.097327369            3 
  583000    1.1691691   -2.7521492    673.85563  0.096320131  0.097319194            3 
  584000    1.1309067   -2.7350725    677.02302  0.096607166  0.097311807            1 
  585000    1.1681223   -2.7467945    670.91404    0.0955718  0.097304054            2 
  586000    1.1779672   -2.7366095    674.78724  0.095959505  0.097296498            2 
  587000     1.161146   -2.7361989    677.22782  0.096142507  0.097290151            2 
  588000    1.1461503   -2.7479839     677.8273   0.09606396  0.097283217            3 
  589000    1.1505019    -2.726238    676.11112  0.095658053  0.097276103            1 
  590000    1.1866187   -2.7298317    680.18161  0.096070849   0.09726977            1 
  591000    1.1653694   -2.7277077     685.1255    0.0966054  0.097263847            1 
  592000    1.1630381   -2.7347664     682.9532   0.09613643  0.097257955            2 
  593000    1.1601862   -2.7281922    682.06593  0.095849625  0.097250418            2 
  594000    1.1391297   -2.7307403    683.66436  0.095912509   0.09724229            2 
  595000    1.1531608    -2.741643    687.52335  0.096291786  0.097234792            1 
  596000    1.1767724   -2.7306282    686.75191  0.096022359  0.097228362            3 
  597000     1.161931   -2.7263309    688.16586  0.096058887  0.097222076            2 
  598000    1.1519772   -2.7500063    689.33681  0.096061429  0.097215791            2 
  599000    1.1624817   -2.7309121    688.03683  0.095720205  0.097210337            1 
  600000    1.1588373   -2.7180666    694.40935  0.096445743  0.097204662            1 
  601000    1.1504175   -2.7553404    692.04323  0.095957187  0.097199641            1 
  602000    1.1438152   -2.7085511    694.80845  0.096180571  0.097193296            1 
  603000    1.1451804   -2.6994626    696.48694  0.096253032  0.097188935            2 
  604000    1.1720286    -2.751989    693.74126  0.095714854  0.097183068            1 
  605000    1.1906406   -2.7289951    695.37798  0.095782091  0.097177503            2 
  606000    1.1291998   -2.7472574    700.75063  0.096362848  0.097172086            2 
  607000    1.1379829   -2.7404789    699.78967  0.096072168  0.097167627            1 
  608000    1.1630472   -2.7367493    701.71733  0.096178362  0.097161223            2 
  609000    1.1812356   -2.7491383    702.96763   0.09619152  0.097155217            1 
  610000     1.150384   -2.7170755    702.59586  0.095983041  0.097151705            7 
  611000    1.1569057   -2.7423217    704.14392  0.096037086  0.097147552            2 
  612000    1.1758688   -2.7506016    708.56482  0.096482138  0.097142981            2 
  613000    1.1670435   -2.7435711    703.78887  0.095675486  0.097137608            2 
  614000    1.1307237   -2.7074258    711.69812  0.096593121  0.097133682            2 
  615000    1.1556416   -2.7397535     709.8563   0.09618649  0.097130582            1 
  616000    1.1530135   -2.7320506    712.91128  0.096443626  0.097125127            2 
  617000    1.1307748   -2.7230374    714.16619  0.096456806  0.097120267            2 
  618000    1.1548471   -2.7735311    711.63591  0.095959535  0.097115061            1 
  619000     1.147395   -2.7716471    712.83061  0.095965348   0.09710885            1 
  620000    1.1194133   -2.7279082    712.91601  0.095822045  0.097103527            2 
  621000    1.1524915   -2.7307608    714.47565  0.095877033  0.097099017            2 
  622000    1.1568512   -2.7401358    719.05434  0.096336326   0.09709462            2 
  623000    1.1673912   -2.7546232    718.05398  0.096047884  0.097088948            3 
  624000    1.1800944   -2.7470603    721.08518  0.096298768  0.097083778            5 
  625000    1.1578746   -2.7031406    723.85429  0.096513905  0.097078916            2 
  626000    1.1312562   -2.7418642    723.24326  0.096278389  0.097072731            1 
  627000    1.1701844    -2.733421    722.85759  0.096073577  0.097066807            4 
  628000    1.1505186    -2.747273    728.36115  0.096650895  0.097060379            4 
  629000    1.1297421   -2.7455922    726.27856  0.096221325  0.097055898            2 
  630000    1.1477536    -2.741589     726.8613  0.096145674  0.097050577            1 
  631000     1.149845   -2.7233962    729.70022  0.096368227  0.097045436            2 
  632000    1.1379953   -2.7365703    727.83821  0.095970228  0.097041048            1 
  633000    1.1511386   -2.7031998    732.68126  0.096456195  0.097035891            1 
  634000    1.1519133    -2.749267    729.17023  0.095842564   0.09703124            1 
  635000    1.1471567   -2.7383068    731.61387  0.096012319  0.097024585            2 
  636000     1.166515   -2.7017761    735.58375  0.096381518  0.097020353            1 
  637000    1.1404198   -2.7130355    739.13215   0.09669442  0.097015496            1 
  638000    1.1650967   -2.7286013    738.54697  0.096466428  0.097011598            5 
  639000    1.1481847    -2.753087    740.30094  0.096544201  0.097007733            1 
  640000    1.1387794   -2.7463235    736.87336  0.095947052  0.097002594            2 
  641000    1.1315189   -2.7657287    737.28319  0.095850648  0.096997537            3 
  642000    1.1587635   -2.7125717    740.82148  0.096160628  0.096991789            1 
  643000    1.1264322   -2.7342759    743.12673   0.09630984  0.096987592            2 
  644000    1.1547059    -2.730728    741.35948   0.09593161  0.096983491            2 
  645000    1.1600015   -2.7475675    744.78673  0.096225675  0.096979599            3 
  646000     1.149558   -2.7286105    745.53712  0.096173519  0.096975053            2 
  647000    1.1489046   -2.7738603    745.83273  0.096062948  0.096972217            1 
  648000    1.1784252   -2.7573199    744.65148  0.095762793  0.096967614            1 
  649000    1.1532387   -2.7611024    750.08316   0.09631268  0.096962881            1 
  650000    1.1560859   -2.7304413    753.48438  0.096600561  0.096958278            1 
  651000    1.1547029   -2.7514604    749.79849   0.09598035  0.096953351            1 
  652000    1.1539866   -2.7124795    752.41519  0.096167585  0.096947505            4 
  653000    1.1421776   -2.7499583    752.78078   0.09606697  0.096941454            2 
  654000    1.1290617   -2.7617997    752.38445  0.095869578  0.096936407            3 
  655000    1.1241126   -2.7467334     751.6274  0.095626895  0.096929658            5 
  656000    1.1414176   -2.7065069     756.8509  0.096144677  0.096923778            2 
  657000    1.1751702   -2.7532274    753.34496  0.095553648  0.096916178            2 
  658000    1.1239145   -2.7161835    759.85367  0.096232735   0.09690999            2 
  659000    1.1545078   -2.7655121    757.29476  0.095763121  0.096903494            4 
  660000    1.1276035   -2.7294861    758.81668  0.095810187  0.096896579            3 
  661000    1.1154988    -2.749507    756.62863  0.095389388  0.096890333            4 
  662000    1.1596016   -2.7378113    760.00104  0.095669819  0.096883209            1 
  663000     1.131101   -2.7039339    760.07199  0.095534438  0.096876679            1 
  664000    1.1396456   -2.7279661    764.12007  0.095898603  0.096871512            1 
  665000    1.1360492   -2.7674433    764.08775  0.095750345  0.096864982            1 
  666000    1.1484469   -2.7333368    768.97582  0.096218195   0.09686021            2 
  667000    1.1392526   -2.7321485    772.66235  0.096534527  0.096856631            2 
  668000    1.1609423   -2.7435261    770.15954  0.096077786  0.096853797            1 
  669000    1.1471639   -2.7286188    770.75097  0.096007843  0.096849625            3 
  670000    1.1349062   -2.7674679    769.31051  0.095685387  0.096846468            2 
  671000    1.1341496   -2.7699499    774.57937   0.09619714  0.096841154            1 
  672000    1.1615178   -2.7270587    778.31434  0.096517155   0.09683923            2 
  673000    1.1364213   -2.7422607    775.69187  0.096049018  0.096837201            2 
  674000    1.1356533   -2.7309917    779.48371  0.096375335  0.096836449            1 
  675000    1.1665595   -2.7555777     779.9304  0.096287704  0.096834558            1 
  676000    1.1527889   -2.7244671    779.77424  0.096126015  0.096832354            2 
  677000    1.1380263    -2.753351    779.55135  0.095956592  0.096831229            2 
  678000     1.162735    -2.717061    783.81742  0.096339408   0.09682892            1 
  679000    1.1703752   -2.7131513     784.6136  0.096295238  0.096827632            3 
  680000    1.1288097   -2.7514778    787.26791   0.09647891  0.096826407            1 
  681000    1.1412993   -2.7488743     786.9959  0.096303953  0.096825998            2 
  682000    1.1311355   -2.7397613    785.71425   0.09600614  0.096823866            2 
  683000    1.1339659   -2.7291085    790.52468  0.096452499  0.096822344            2 
  684000     1.150245   -2.7149795    789.75878  0.096218175  0.096821219            3 
  685000    1.1657462   -2.7622706    792.23641  0.096379125  0.096819466            1 
  686000    1.1463075   -2.7356444    794.75504  0.096544587  0.096818084            1 
  687000    1.1298944   -2.7119919    796.33621  0.096595853  0.096816317            1 
  688000    1.1374411   -2.7647873    795.04558  0.096299125  0.096816725            1 
  689000    1.1424211   -2.7661867    796.74389  0.096364767   0.09681553            2 
  690000    1.1579792   -2.7587248    797.40829  0.096305349  0.096815798            1 
  691000    1.1486614    -2.728749    800.87658  0.096584248  0.096816914            1 
  692000    1.1261418   -2.7496022    799.35934  0.096261963  0.096815609            1 
  693000    1.1447701   -2.7294354    802.11045  0.096453878  0.096815662            2 
  694000    1.1234086   -2.7570263    805.94915  0.096775834  0.096816069            1 
  695000     1.135347   -2.7674287    802.58209  0.096232865  0.096816711            3 
  696000    1.1520058   -2.7449677     806.8779  0.096608944  0.096816825            2 
  697000    1.1278902   -2.7276805    804.06205  0.096133675  0.096816764            1 
  698000    1.1377205   -2.7386336    808.44681  0.096519438  0.096816882            2 
  699000    1.1320119   -2.7284733    806.18642  0.096111876   0.09681536            2 
  700000    1.1350962   -2.7785035    808.22357  0.096217092  0.096814049            1 
  701000    1.1339169   -2.7506527    809.12983  0.096187569  0.096812874            2 
  702000    1.1293965    -2.751004    809.76225  0.096125623  0.096812155            1 
  703000    1.1252853   -2.7898422    812.16225  0.096273382  0.096812373            2 
  704000    1.1226777   -2.7477488    813.17952  0.096257045  0.096812251            1 
  705000    1.1411008   -2.7500947    816.96132  0.096567532  0.096810877            2 
  706000    1.1470748   -2.7501743     816.2883  0.096351311  0.096809356            1 
  707000    1.1383975   -2.7649154    814.85711  0.096046335  0.096807876            1 
  708000     1.124982    -2.751102    817.73823  0.096249791  0.096806903            2 
  709000    1.1573929   -2.7669432    819.45943  0.096316341   0.09680587            2 
  710000    1.1314011    -2.771245    822.99276  0.096595395  0.096804787            1 
  711000    1.1546928   -2.7185398     822.0982  0.096354689  0.096804775            1 
  712000    1.1534573   -2.7367276    818.05553  0.095746199  0.096803407            1 
  713000    1.1313004   -2.7616492    827.19407  0.096679998  0.096802951            2 
  714000     1.137699   -2.7737059    825.48428  0.096345037  0.096803207            2 
  715000    1.1366587   -2.7755781    825.62906  0.096227163  0.096801806            1 
  716000    1.1541688   -2.7596119    828.50058  0.096426977  0.096800278            3 
  717000    1.1665095    -2.746577    833.15273  0.096833186  0.096800331            2 
  718000    1.1271754   -2.7744382    831.00376  0.096448905  0.096798776            2 
  719000    1.1381639   -2.7399419    829.93542  0.096190939  0.096797523            2 
  720000    1.1373934   -2.7331065    835.03443  0.096647504  0.096794767            2 
  721000    1.1355201   -2.7471107    833.74726  0.096364686  0.096791972            2 
  722000    1.1221458   -2.7827683    832.21774   0.09605468  0.096788025            3 
  723000    1.1517758   -2.7888734    833.74555  0.096097919  0.096784142            2 
  724000    1.1463273   -2.7432741    833.68529  0.095958252  0.096779627            2 
  725000    1.1141234   -2.7391307    837.55402  0.096270578  0.096774753            4 
  726000    1.1412708   -2.7681491    835.35502  0.095885563  0.096770308            2 
  727000    1.1151295    -2.768107    835.35282  0.095753418  0.096765466            2 
  728000    1.1373093   -2.7251764    838.34201  0.095964058   0.09675984            2 
  729000    1.1334475   -2.7340136    841.07127  0.096144407  0.096756118            1 
  730000    1.1314174   -2.7657128    842.42408  0.096167132  0.096751471            1 
  731000    1.1394845    -2.762718    841.04312  0.095878149  0.096747055            2 
  732000    1.1439816   -2.7556532     840.2085  0.095652151  0.096741436            2 
  733000    1.1466861   -2.7432236    842.00165  0.095725517  0.096735874            3 
  734000    1.1198332   -2.7473128    842.12167  0.095608728  0.096729996            2 
  735000     1.167866   -2.7719221    842.21124  0.095488802  0.096724207            3 
  736000    1.1088166   -2.7441088     848.2322  0.096040783   0.09671829            3 
  737000    1.1240393   -2.7533877    845.27331  0.095575906  0.096712462            2 
  738000    1.1238285   -2.7516448     849.5331  0.095927405  0.096707123            1 
  739000    1.1252716   -2.7476392    849.78396  0.095825886  0.096701308            3 
  740000    1.1207838   -2.7324632    849.04224  0.095612865  0.096695382            3 
  741000    1.1487543    -2.760332    849.34003  0.095517322  0.096688708            2 
  742000    1.1344567   -2.7499707    849.68389  0.095427211  0.096681572            2 
  743000    1.1263596   -2.7778991    851.37802  0.095488786  0.096673499            1 
  744000    1.1535689    -2.772617     853.9755  0.095651378  0.096666711            2 
  745000    1.1272785   -2.7401005    852.87188  0.095399539  0.096659246            2 
  746000    1.1334777   -2.7244613    853.51699   0.09534372  0.096650868            1 
  747000    1.1143109   -2.7336931    853.08815  0.095168245  0.096642526            1 
  748000    1.1276397    -2.769758     855.1528  0.095271034  0.096633065            1 
  749000     1.119011   -2.7795093    853.23438  0.094930393  0.096623969            2 
  750000    1.1129892   -2.7691961    858.30318  0.095367019  0.096613828            2 
  751000    1.1358228   -2.7563409    862.37345  0.095691683  0.096604837            1 
  752000    1.1432989   -2.7728117    859.61606  0.095258871   0.09659552            2 
  753000     1.139993   -2.7649118    859.33434  0.095101188   0.09658618            1 
  754000    1.1063868   -2.7732055    859.42706  0.094985307  0.096577127            4 
  755000    1.1246615   -2.7376387    861.90092  0.095132552  0.096568889            1 
  756000    1.1331426   -2.7666426      861.903  0.095006944    0.0965591            3 
  757000    1.1438188   -2.7394175    864.82026  0.095202583  0.096548562            1 
  758000    1.1224689   -2.7626118    866.39857  0.095250502    0.0965414            2 
  759000    1.1278166   -2.7774764    864.77823  0.094947105  0.096532564            1 
  760000    1.0946434    -2.766966    866.97601  0.095063159  0.096523404            2 
  761000    1.1544182   -2.7340162    871.44892  0.095428046  0.096515401            5 
  762000    1.1399365   -2.7386914    874.19616  0.095603255  0.096506624            3 
  763000    1.1202254   -2.7325288    871.09082  0.095138797  0.096497902            2 
  764000    1.1698376   -2.8192813    865.87999  0.094445898   0.09648798            1 
  765000    1.1466798   -2.7831057    872.74747  0.095070531  0.096477251            2 
  766000    1.1606306    -2.747586    874.50871  0.095138023  0.096467429            1 
  767000    1.1302072   -2.7646689    876.23023  0.095201025  0.096455786            2 
  768000    1.1529838   -2.7596934    870.29578  0.094433136  0.096444709            3 
  769000    1.1231739   -2.7379059    875.62415  0.094887749  0.096432861            1 
  770000    1.1390224   -2.7521743        879.5  0.095183982  0.096421127            3 
  771000    1.1302493   -2.7675379    878.86356  0.094991738  0.096408935            1 
  772000    1.1423947   -2.7796007     877.1665  0.094685503  0.096397792            4 
  773000    1.1324911   -2.7088693    883.25626  0.095219519  0.096385384            1 
  774000    1.1312874   -2.7644462    876.88104  0.094410103  0.096373502            1 
  775000    1.1098398   -2.7562916    887.52694  0.095433005  0.096362421            2 
  776000    1.1232436   -2.7782021    880.33534   0.09453773  0.096351572            2 
  777000    1.1460358   -2.7509086    881.76168  0.094569035  0.096340174            1 
  778000    1.1219147    -2.753022    885.21407  0.094817274  0.096326986            1 
  779000    1.1437013   -2.7622974    883.33639  0.094494692   0.09631537            3 
  780000    1.1292521   -2.7965093    885.56253  0.094611382  0.096303676            1 
  781000    1.1185744   -2.7735568    885.04324  0.094434831  0.096291675            2 
  782000     1.128382   -2.7735968    885.92743  0.094408294  0.096280159            1 
  783000    1.1208644   -2.7828981    891.40482   0.09487067  0.096269653            1 
  784000    1.1080597   -2.7385267    899.63574  0.095624547  0.096260126            2 
  785000    1.1267289   -2.7667412    898.02863  0.095332126  0.096250848            2 
  786000    1.1302159   -2.7759949    898.39261  0.095249428   0.09624218            1 
  787000    1.1193101   -2.7482978    901.72149  0.095480886  0.096232727            2 
  788000    1.1381102   -2.7574808    897.60847  0.094924753  0.096223932            2 
  789000    1.1235085   -2.7626622    901.40057   0.09520496  0.096214702            2 
  790000    1.1262937    -2.740938    900.33487  0.094972033  0.096206417            4 
  791000    1.0959334   -2.7898229    901.33617  0.094957455  0.096198531            1 
  792000    1.1099012   -2.7522356    905.35554  0.095260473  0.096191414            1 
  793000    1.1581788   -2.7609401    905.25341  0.095129615  0.096183357            3 
  794000    1.1131377   -2.7659141     909.0628  0.095409613  0.096176067            5 
  795000    1.1276275   -2.7788833    908.77333  0.095259259  0.096168246            2 
  796000    1.1386827   -2.7559584     911.7031  0.095446305  0.096160697            3 
  797000    1.1308896   -2.7831327    909.01229  0.095045199  0.096153814            1 
  798000    1.1002194   -2.7770441     911.4252   0.09517807  0.096146148            2 
  799000     1.114779   -2.7662689    911.83989    0.0951022  0.096138082            2 
  800000    1.1453032   -2.7532066    913.01972   0.09510622  0.096130553            3 
  801000    1.1206529   -2.7570202    918.89216  0.095598435  0.096123514            3 
  802000    1.1223339   -2.7647683    915.61592  0.095138811  0.096115764            2 
  803000    1.1314752   -2.7688701     915.6147  0.095020205  0.096109316            1 
  804000    1.1351728   -2.7474075    921.44162  0.095505972  0.096101414            1 
  805000    1.1144756    -2.773498    921.36501  0.095379401  0.096094499            3 
  806000    1.1314291   -2.7473234    919.51806  0.095070106  0.096087316            1 
  807000    1.1224501   -2.7922015    921.31408  0.095137761   0.09607963            2 
  808000    1.1375548   -2.7425631     920.5606  0.094942306  0.096071882            1 
[...]
 4800000   0.47827336   -3.7159431    2610.8124  0.045326604   0.04356591           19 
 4801000   0.48148775    -3.710059    2610.5894  0.045313292  0.043555652           17 
 4802000    0.4770375    -3.710813    2606.8925  0.045239701  0.043545406           20 
 4803000   0.47875458    -3.693793    2609.9918  0.045284056  0.043535179           29 
 4804000   0.47649571   -3.7099182    2609.3693   0.04526383  0.043524928           11 
 4805000   0.47644112   -3.7029303    2606.7052  0.045208207  0.043514669           18 
 4806000   0.47898272   -3.7221507     2605.956  0.045185809  0.043504398           23 
 4807000   0.48205539   -3.7339768    2610.8262  0.045260839  0.043494157           17 
 4808000   0.47613344   -3.7374667    2605.3595  0.045156675  0.043483883           15 
 4809000    0.4894252   -3.7113614    2602.1251  0.045091237  0.043473601           28 
 4810000   0.48124259   -3.7070433    2606.3237  0.045154603  0.043463385           26 
 4811000   0.47583869   -3.7157123    2607.5772   0.04516693  0.043453168           20 
 4812000   0.48373402   -3.7158668    2604.9381  0.045111841  0.043442947           15 
 4813000   0.48214681   -3.7221453    2610.7277  0.045202709  0.043432699           25 
 4814000   0.47577369   -3.7281677    2604.1868  0.045080092  0.043422422           25 
 4815000    0.4864402   -3.7178488    2605.5342   0.04509405  0.043412174           26 
 4816000     0.482708   -3.7079772     2604.067  0.045059299  0.043401935           10 
 4817000   0.48364478   -3.7185685    2607.3124  0.045106089  0.043391737           24 
 4818000    0.4896505   -3.7139167    2611.0153  0.045160773  0.043381539           11 
 4819000   0.48696853   -3.7194885    2612.3917  0.045175205  0.043371347            8 
 4820000   0.49543457   -3.7086484    2612.1779  0.045162136   0.04336119            9 
 4821000   0.48415222   -3.7253325    2606.7446  0.045058851  0.043350994           10 
 4822000    0.4826323   -3.7163796    2604.3304  0.045007784  0.043340775           14 
 4823000   0.48127923   -3.7197427     2608.525  0.045070928  0.043330559           14 
 4824000   0.47658961   -3.7245396    2607.8129  0.045049283  0.043320354           33 
 4825000   0.48201374   -3.7261314    2605.2006  0.044994829  0.043310156           44 
 4826000   0.47729962   -3.7257754    2611.7693  0.045098931  0.043299961           46 
 4827000   0.48017032    -3.705865      2613.78    0.0451243  0.043289804           35 
 4828000   0.46989833    -3.700332    2609.6779  0.045044151  0.043279659           19 
 4829000   0.47944755   -3.7331046    2607.8851  0.045003884  0.043269493           10 
 4830000    0.4805454   -3.7419311    2605.2183  0.044948556  0.043259285           28 
 4831000   0.48098317   -3.7082998    2611.9332  0.045055081   0.04324909           21 
 4832000   0.48426811      -3.7064    2601.9186  0.044873045  0.043238931           50 
 4833000   0.48129437   -3.7241367    2607.5131  0.044960223  0.043228734           20 
 4834000    0.4897373   -3.7183117    2606.5845  0.044934914  0.043218544           26 
 4835000   0.47340413   -3.7315649    2613.3146  0.045041617  0.043208392           19 
 4836000    0.4794454   -3.7454696    2610.0242  0.044975604  0.043198174           26 
 4837000   0.47388648   -3.7311519    2612.1364  0.045002695  0.043187942           16 
 4838000   0.46840842   -3.7147247    2616.2148  0.045063643  0.043177765           35 
 4839000   0.47750005    -3.701375    2604.9984  0.044861169  0.043167604           51 
 4840000   0.46976048   -3.7244368    2605.0784  0.044853278  0.043157402           64 
 4841000   0.47215613   -3.7329962    2603.6192  0.044818894  0.043147191           34 
 4842000   0.48410549    -3.733553    2608.2498  0.044889333  0.043136985           53 
 4843000   0.47035046   -3.7176556    2604.2163  0.044810659  0.043126785           37 
 4844000   0.47783294   -3.7139917    2608.5585  0.044876109  0.043116618           25 
 4845000   0.46803171   -3.7317259    2608.3591  0.044863417  0.043106433           18 
 4846000   0.47372198   -3.7220442    2608.0847  0.044849441  0.043096257           15 
 4847000   0.46777913   -3.7399608    2608.2957  0.044843815  0.043086087           14 
 4848000   0.47426843   -3.7201596    2604.6487  0.044771877  0.043075928           12 
 4849000   0.48105725   -3.7089822    2612.0798  0.044890352  0.043065796           11 
 4850000   0.47523989   -3.7192988    2608.0532   0.04481191  0.043055705            9 
 4851000   0.47168246   -3.7251054    2606.2547  0.044771778  0.043045585           22 
 4852000   0.46318576   -3.7369311    2613.3984  0.044885244  0.043035461           36 
 4853000   0.47315964   -3.7421588    2609.7939  0.044814099  0.043025336           13 
 4854000   0.48072577   -3.7222079    2611.0342   0.04482616  0.043015228            7 
 4855000   0.48637345   -3.7257605    2610.4639  0.044807139  0.043005093           15 
 4856000   0.46940198    -3.725305    2611.5833  0.044817121  0.042995022           39 
 4857000   0.47930416   -3.7353329    2609.9367  0.044779642  0.042984887           23 
 4858000   0.48259906   -3.7195837    2612.4461  0.044813471  0.042974746           14 
 4859000   0.47009357   -3.7165183    2611.9506  0.044795751  0.042964625           11 
 4860000   0.48399086   -3.7294901    2611.7115  0.044782432  0.042954548            6 
 4861000     0.475886   -3.7217818    2611.3705  0.044767375  0.042944448           14 
 4862000   0.46853798   -3.7158067    2608.3384  0.044706198  0.042934387           11 
 4863000   0.47248494   -3.7245582    2608.3127  0.044696565  0.042924267           17 
 4864000   0.47835169   -3.7288161    2611.3004  0.044738562  0.042914152           25 
 4865000    0.4713581    -3.730544    2605.1789   0.04462451  0.042904009           22 
 4866000   0.48339201   -3.7284755    2616.0387  0.044801321  0.042893875           29 
 4867000   0.47740565   -3.7370814    2611.8192  0.044719869   0.04288371           11 
 4868000   0.47824986    -3.726156    2611.2195  0.044700417  0.042873582           21 
 4869000   0.47456793   -3.7370476    2610.6772  0.044681953  0.042863432           31 
 4870000   0.47218652   -3.7247398    2612.2794  0.044700194  0.042853303           41 
 4871000   0.46157661   -3.7433392    2608.0062  0.044617912  0.042843139           21 
 4872000    0.4747495   -3.7250731     2611.245  0.044664153   0.04283301           57 
 4873000   0.47283174   -3.7361798    2610.6517   0.04464484  0.042822846           44 
 4874000   0.46308096    -3.746615    2599.9589   0.04445286  0.042812661           23 
 4875000   0.46486302   -3.7423603    2610.0604  0.044616417  0.042802476           49 
 4876000   0.46821205   -3.7602332    2603.4949  0.044495059  0.042792304           42 
 4877000   0.47306064   -3.7515217    2610.2521  0.044601396   0.04278214           23 
 4878000   0.46618322   -3.7376692    2608.8186  0.044567763  0.042771971           56 
 4879000   0.47114977   -3.7359052    2599.2778  0.044395673  0.042761774           19 
 4880000   0.46958509    -3.733975    2596.3859   0.04433719  0.042751586           29 
 4881000   0.46981695   -3.7416266    2608.6055  0.044536733   0.04274139           24 
 4882000   0.48669174   -3.7466831    2603.6975  0.044443834  0.042731217           16 
 4883000   0.46745259   -3.7405436    2606.6019  0.044484297  0.042721065           28 
 4884000   0.48121759   -3.7426498    2608.9544  0.044515329  0.042710935           61 
 4885000   0.47738043   -3.7396291    2609.7825  0.044520343  0.042700782           31 
 4886000   0.47470436   -3.7478266    2616.6507  0.044628371  0.042690631           14 
 4887000   0.47446939   -3.7420125    2609.3083  0.044494036  0.042680457           35 
 4888000   0.47038355    -3.740097    2608.5448  0.044471918  0.042670287           34 
 4889000   0.48183842    -3.755599     2602.422  0.044358457  0.042660133           61 
 4890000   0.47820957   -3.7506134    2600.7906  0.044321585  0.042649959           27 
 4891000   0.46074655   -3.7475936    2603.4056  0.044357078   0.04263981           40 
 4892000   0.47291916   -3.7512431    2607.3157  0.044414617  0.042629649           35 
 4893000   0.46845201   -3.7392857    2608.6818  0.044428807  0.042619459           22 
 4894000    0.4656395   -3.7540836    2605.1459   0.04435952  0.042609296           29 
 4895000   0.46827608   -3.7426213    2611.0459  0.044450901  0.042599145           25 
 4896000   0.47385899   -3.7447514    2596.9972  0.044202703  0.042588985           37 
 4897000   0.47037266   -3.7413463    2610.9188  0.044430584  0.042578824           30 
 4898000   0.48275316     -3.74913    2607.5162  0.044363621  0.042568672           50 
 4899000   0.46523828   -3.7454466    2613.4254  0.044455082  0.042558556           20 
 4900000   0.46884204   -3.7345538     2605.685  0.044314371  0.042548449           13 
 4901000   0.45181051   -3.7438789     2599.807  0.044205383   0.04253833           18 
 4902000   0.48106068   -3.7433659     2606.597  0.044311794  0.042528199           20 
 4903000   0.47030588   -3.7314027    2606.3656  0.044298824   0.04251812           11 
 4904000   0.47535511   -3.7432245     2602.846  0.044229982     0.042508           13 
 4905000   0.46006748   -3.7442282    2608.2044  0.044312001  0.042497878           11 
 4906000   0.46328524    -3.743789    2603.0934  0.044216154  0.042487775            7 
 4907000   0.46736066   -3.7537372    2604.3983  0.044229304  0.042477673           16 
 4908000   0.46879515   -3.7355682    2606.3712  0.044253791  0.042467547           21 
 4909000   0.46650746   -3.7439387    2603.8018  0.044201158  0.042457429           10 
 4910000   0.47418093   -3.7360266      2605.73  0.044224882  0.042447336           11 
 4911000   0.47789999   -3.7441667    2608.5779  0.044264201  0.042437216           32 
 4912000   0.46089833   -3.7532775    2599.3679   0.04409894   0.04242711           11 
 4913000   0.46233117   -3.7370542    2607.4831  0.044227612  0.042416987            9 
 4914000   0.46640675   -3.7380011    2607.7389   0.04422295  0.042406854           19 
 4915000    0.4741244   -3.7486426    2606.0912  0.044186015   0.04239673           42 
 4916000   0.46031695   -3.7482722    2604.1501  0.044144123  0.042386596          129 
 4917000   0.46811262   -3.7288228    2611.4744  0.044259277  0.042376519           82 
 4918000   0.46160088   -3.7496561     2609.113  0.044210265  0.042366445           27 
 4919000   0.46082016   -3.7442822      2603.47  0.044105678  0.042356367           44 
 4920000   0.44931298   -3.7519494    2608.2868    0.0441783  0.042346268           27 
 4921000   0.46357741   -3.7527458    2606.3462  0.044136459  0.042336162           36 
 4922000   0.46589968   -3.7300349    2605.9984  0.044121604  0.042326116           31 
 4923000   0.45690889   -3.7436331    2604.9374  0.044094682  0.042316032           24 
 4924000   0.46545683   -3.7460917    2599.5151  0.043993961  0.042305952           27 
 4925000   0.45914849   -3.7384495    2605.3867  0.044084377  0.042295891           21 
 4926000   0.46838197   -3.7425986    2609.4994  0.044145003  0.042285819           47 
 4927000   0.45840446   -3.7451491    2608.2613  0.044115102  0.042275742           37 
 4928000   0.45749553   -3.7604298    2604.2417  0.044038178  0.042265649           47 
 4929000   0.45965203   -3.7532152    2605.1284  0.044044235  0.042255605           44 
 4930000   0.46590345   -3.7465819    2610.7826  0.044130876  0.042245547           27 
 4931000   0.46528073   -3.7393273    2608.4288  0.044082147  0.042235494           35 
 4932000   0.46138582   -3.7495202    2605.0267  0.044015725   0.04222544           19 
 4933000   0.46323404   -3.7607938    2610.4151   0.04409783  0.042215397           43 
 4934000   0.46687998   -3.7502423    2611.0728  0.044099999  0.042205365           13 
 4935000   0.46773975    -3.766376    2611.1218  0.044091891  0.042195332           21 
 4936000   0.46900269   -3.7274796    2612.6503  0.044108764  0.042185315           20 
 4937000   0.46085781    -3.744979    2606.1157   0.04398953  0.042175275           39 
 4938000   0.46015566   -3.7475397    2604.2169  0.043948577   0.04216521           23 
 4939000   0.46196469   -3.7551358    2607.2456  0.043990781  0.042155172           20 
 4940000   0.45526897   -3.7608707    2605.5214  0.043952791  0.042145088           58 
 4941000    0.4709982   -3.7497057    2605.2091  0.043938627  0.042135028           71 
 4942000   0.46897213   -3.7329806    2602.7005  0.043887436  0.042124962           67 
 4943000   0.44905932   -3.7546292    2607.6994  0.043962834   0.04211489           69 
 4944000   0.46023879   -3.7659662    2606.4211  0.043932394  0.042104815           51 
 4945000   0.45549565   -3.7592948    2609.4547  0.043974633  0.042094715           86 
 4946000   0.46674356    -3.768077    2606.2229  0.043911291  0.042084612           70 
 4947000   0.45639429   -3.7624677      2604.48  0.043873055    0.0420745           61 
 4948000   0.46299899   -3.7648657    2600.9347  0.043804478  0.042064405           27 
 4949000   0.44343903   -3.7622157    2606.5377  0.043889972  0.042054317           18 
 4950000   0.46281753   -3.7494671     2604.792  0.043851717  0.042044252           43 
 4951000   0.46138644   -3.7559876    2603.8039  0.043826229  0.042034183           27 
 4952000    0.4564029   -3.7549745    2605.3629  0.043843613  0.042024165           31 
 4953000   0.45272282     -3.74969    2602.6605  0.043789294  0.042014156           32 
 4954000   0.46151072   -3.7651377    2600.9995  0.043752515  0.042004127           18 
 4955000   0.45682624   -3.7562416    2604.7066  0.043806031  0.041994092           14 
 4956000   0.46568735    -3.749092     2606.982  0.043835451  0.041984087           12 
 4957000   0.46398649   -3.7561846    2602.8893  0.043757806  0.041974084           19 
 4958000   0.46033567    -3.762744    2602.8898  0.043748987  0.041964031           13 
 4959000    0.4630443   -3.7547049    2601.5812  0.043718176  0.041953979           14 
 4960000   0.46102111   -3.7524672    2604.1164  0.043751955  0.041943941           24 
 4961000   0.45493908   -3.7475327    2604.7977  0.043754581  0.041933899           13 
 4962000   0.44751622   -3.7604717    2600.6678  0.043676404  0.041923849           44 
 4963000   0.44903999    -3.753359    2602.9175  0.043705378  0.041913786           17 
 4964000     0.459994   -3.7504485    2606.6969   0.04376002  0.041903783           15 
 4965000   0.45661379   -3.7569147    2600.6085  0.043649018  0.041893729           12 
 4966000   0.45935431   -3.7643214    2598.2122  0.043600016  0.041883656           13 
 4967000   0.46780652   -3.7558888    2605.0353  0.043705712  0.041873608           14 
 4968000    0.4539028   -3.7590104    2606.1237  0.043715171    0.0418636           10 
 4969000   0.44920296   -3.7718405    2600.8205  0.043617437  0.041853593           19 
 4970000   0.46554625   -3.7636994    2603.8336  0.043659181  0.041843572           15 
 4971000    0.4531655   -3.7689715    2602.8197  0.043633403  0.041833552           30 
 4972000   0.45385397    -3.757378    2601.8081  0.043607672  0.041823542           28 
 4973000   0.45670071    -3.767635    2603.1479  0.043621354  0.041813522           55 
 4974000   0.45120571   -3.7712617    2602.6955  0.043605005  0.041803487           30 
 4975000   0.46127132   -3.7779824    2607.9581  0.043684391  0.041793449           14 
 4976000   0.44590671   -3.7525832    2603.4188  0.043599592  0.041783428           43 
 4977000     0.454215   -3.7558971    2599.5522   0.04352609  0.041773424           82 
 4978000   0.45969292   -3.7612335    2603.2206  0.043578756  0.041763419           51 
 4979000   0.46571883   -3.7604237    2604.5891  0.043592908  0.041753413           33 
 4980000   0.45306382   -3.7702168    2599.5286  0.043499474  0.041743376           67 
 4981000     0.459562   -3.7653721    2598.7054   0.04347697  0.041733317           35 
 4982000    0.4582859   -3.7652624    2602.9463  0.043539179  0.041723286           31 
 4983000   0.45514428   -3.7686186    2601.6797   0.04350926  0.041713272           18 
 4984000   0.45791139   -3.7611167    2600.0329  0.043472995  0.041703256           13 
 4985000   0.45925113   -3.7497575    2605.7074  0.043559134   0.04169324           50 
 4986000   0.45737082    -3.767269    2606.0202  0.043555625  0.041683216           14 
 4987000   0.45237818   -3.7520571    2607.8894  0.043578126  0.041673221            8 
 4988000   0.45888689   -3.7518244    2604.0641  0.043505481  0.041663247           15 
 4989000   0.45793236   -3.7523787    2606.3225  0.043534485  0.041653317           29 
 4990000   0.45289257   -3.7629426    2606.4273   0.04352751  0.041643362           11 
 4991000   0.45043314   -3.7710629    2601.2674  0.043432636  0.041633381           24 
 4992000   0.46081718   -3.7627216    2602.6033  0.043446235  0.041623396           39 
 4993000   0.45137868   -3.7757124    2601.0962   0.04341238  0.041613388           38 
 4994000    0.4556549    -3.759264    2600.2326  0.043389277  0.041603355           49 
 4995000   0.44344905   -3.7743911    2604.7031  0.043455173  0.041593334           62 
 4996000   0.45208462   -3.7724401    2602.3363  0.043406997  0.041583309           53 
 4997000   0.45812661   -3.7771212    2601.5292  0.043384851  0.041573293           61 
 4998000   0.44824361   -3.7789357    2611.7018  0.043545782  0.041563255           24 
 4999000    0.4587271   -3.7594021    2611.3899  0.043531872  0.041553276           28 
 5000000   0.44996831   -3.7656068    2609.1017  0.043485028  0.041543283           28 
 5001000    0.4607697   -3.7755837    2604.8335   0.04340521   0.04153327           30 
 5002000   0.45663969   -3.7701473    2603.4163  0.043372922  0.041523265           52 
 5003000   0.45822203   -3.7626117    2605.2956  0.043395556  0.041513243           37 
 5004000   0.44922517   -3.7700789    2604.1567  0.043367917  0.041503227           61 
 5005000   0.44924774   -3.7756448     2601.108  0.043308492  0.041493206           41 
 5006000   0.45239502    -3.774421    2606.8369  0.043395207  0.041483189           75 
 5007000   0.45181645   -3.7715919    2599.4243   0.04326317  0.041473187           37 
 5008000   0.44814393   -3.7745427    2598.6721  0.043242014  0.041463165           31 
 5009000   0.45128295   -3.7826265    2603.2404  0.043309383  0.041453129           52 
 5010000    0.4495388    -3.762231    2600.0339  0.043247403  0.041443118           85 
 5011000   0.44937451   -3.7856249    2599.6848  0.043232967  0.041433113           34 
 5012000   0.44706754   -3.7817458    2603.9513  0.043295279  0.041423073           18 
Loop time of 12136.3 on 48 procs for 5000000 steps with 4000 atoms

Performance: 71191.343 tau/day, 411.987 timesteps/s
99.4% CPU use with 48 MPI tasks x no OpenMP threads

MPI task timing breakdown:
Section |  min time  |  avg time  |  max time  |%varavg| %total
---------------------------------------------------------------
Pair    | 797.47     | 846.83     | 890.33     |  81.6 |  6.98
Neigh   | 81.379     | 84.782     | 88.441     |  18.6 |  0.70
Comm    | 794.27     | 830.48     | 886.08     |  86.3 |  6.84
Output  | 13.918     | 13.923     | 14.008     |   0.3 |  0.11
Modify  | 10225      | 10251      | 10280      |  12.7 | 84.47
Other   |            | 109.2      |            |       |  0.90

Nlocal:        83.3333 ave          89 max          75 min
Histogram: 1 0 6 2 7 6 7 10 6 3
Nghost:        2192.85 ave        2215 max        2170 min
Histogram: 2 1 7 6 8 8 7 1 6 2
Neighs:        14554.4 ave       16418 max       12930 min
Histogram: 1 5 2 8 10 13 5 2 1 1
FullNghs:      29072.0 ave       31893 max       26220 min
Histogram: 2 1 5 9 4 9 11 5 1 1

Total # of neighbors = 1395457
Ave neighs/atom = 348.86425
Neighbor list builds = 271188
Dangerous builds = 2

#clear
#
#next RN
#
#jump SELF
Total wall time: 3:22:19
