
units lj                  # Use reduced LJ style units
atom_style atomic         # Uncharged point particles
atom_modify map hash      # Needed for indexing of clusters etc
                          # Used to be able to find where atoms are in relation to each other.

# Define a lattice with which to populate the simulation cell. With units
# set to 'lj' the second argument to the lattice command is the reduced
# density rho* and the spacings are multiples of that required to acheive
# that density. Also define a simulation cell called 'box' in lattice units
# and fill it with atoms. Here we're creating a box which is ten lattice
# constants in each direction.
lattice fcc 1.0 spacing 1 1 1                 # All equal sizes - gives the right reduced density.
Lattice spacing in x,y,z = 1.5874011 1.5874011 1.5874011

region box block 0 10 0 10 0 10 units lattice # Defines a region, "box", in lattice units
create_box 1 box                              # Creates a simulation box as specified above,
Created orthogonal box = (0.0000000 0.0000000 0.0000000) to (15.874011 15.874011 15.874011)
  2 by 3 by 4 MPI processor grid
                                              # with one type of atom
create_atoms 1 box                            # Creates particles on lattice points
Created 4000 atoms
  using lattice units in orthogonal box = (0.0000000 0.0000000 0.0000000) to (15.874011 15.874011 15.874011)
  create_atoms CPU = 0.002 seconds


# Set the mass of the first (and only) atom type.
mass 1 1.0

# Lennard-Jones interactions between particles, 3.5 sigma cut-off. Apply
# long range tail corrections to energy and pressure and set all coefficients
# to unity since we work in reduced units here. Note that this doesn't shift
# the potential such that it goes to zero at the cutoff. That would require
# pair_modify('shift', 'yes').
pair_style lj/cut  3.5      # non-GPU version
pair_modify tail  yes
pair_coeff 1  1  1.0  1.0   # Intearaction between 1 and 1 set with epsilon = 1 and sigma = 1

write_data data.*
System init for write_data ...
Neighbor list info ...
  update every 1 steps, delay 10 steps, check yes
  max neighbors/atom: 2000, page size: 100000
  master list distance cutoff = 3.8
  ghost atom cutoff = 3.8
  binsize = 1.9, bins = 9 9 9
  1 neighbor lists, perpetual/occasional/extra = 1 0 0
  (1) pair lj/cut, perpetual
      attributes: half, newton on
      pair build: half/bin/atomonly/newton
      stencil: half/bin/3d
      bin: standard

#############################
#   M E L T   S Y S T E M   #
#############################

velocity all create 2.4 1741580 mom yes dist gaussian # Assign velocities
                                                    # Temperature 2.4, random number seed, zero linear momentum
						                                                        # Gaussian distribution

timestep 0.002   # simulation timestep
thermo 100       # output thermodynamic data every 100 steps

# Define a fix  in this case with index 1 applied to all
# particles in the simulation. This fix is for simulations
# in the anisotropic NPT ensemble. Note that we use the MTK
# correction.
fix 1 all npt temp 2.4 2.4 0.1 iso 5.68 5.68 0.5 mtk yes tchain 5 pchain 5 # Use NPT ensemble
                                                                         # Set temperature and pressure and damping
                                                                         # Numbers of thermostats in chain and in barostat
run 1000         # run for 10000 steps
Per MPI rank memory allocation (min/avg/max) = 3.676 | 3.679 | 3.684 Mbytes
Step Temp E_pair E_mol TotEng Press Volume 
       0          2.4   -8.3859253            0   -4.7868253   -2.2405722         4000 
     100    1.2552531   -6.5115672            0   -4.6291582     5.497081    4088.0579 
     200    1.4628633    -6.289567            0   -4.0958206    6.0903972    4138.0466 
     300    1.5904925   -6.0345783            0   -3.6494359    5.7376042    4272.4771 
     400    1.6850752   -5.7072351            0   -3.1802542    5.9705826    4399.2373 
     500    1.7895599   -5.4225046            0   -2.7388358     5.865757    4546.8704 
     600    1.8965854   -5.1442855            0   -2.3001186     5.865539    4691.2751 
     700    2.0304439     -4.92263            0   -1.8777256    5.8141752    4830.4151 
     800    2.1710171   -4.7567122            0   -1.5010006    5.6106115    4968.6247 
     900    2.2247838   -4.5230698            0   -1.1867284    5.8051376    5086.8715 
    1000     2.364264   -4.4348938            0  -0.88938446    5.9115751    5144.0032 
Loop time of 0.319829 on 24 procs for 1000 steps with 4000 atoms

Performance: 540288.702 tau/day, 3126.671 timesteps/s
99.6% CPU use with 24 MPI tasks x no OpenMP threads

MPI task timing breakdown:
Section |  min time  |  avg time  |  max time  |%varavg| %total
---------------------------------------------------------------
Pair    | 0.17554    | 0.18601    | 0.20019    |   1.3 | 58.16
Neigh   | 0.033637   | 0.035295   | 0.037194   |   0.5 | 11.04
Comm    | 0.059915   | 0.074116   | 0.083918   |   2.1 | 23.17
Output  | 0.00021134 | 0.0002198  | 0.00028003 |   0.0 |  0.07
Modify  | 0.019102   | 0.021998   | 0.025326   |   1.2 |  6.88
Other   |            | 0.002186   |            |       |  0.68

Nlocal:        166.667 ave         176 max         152 min
Histogram: 1 0 2 0 3 4 6 4 3 1
Nghost:        1840.88 ave        1857 max        1826 min
Histogram: 3 1 3 4 1 2 4 4 0 2
Neighs:        14784.9 ave       15702 max       13755 min
Histogram: 2 1 1 5 1 3 5 0 4 2

Total # of neighbors = 354837
Ave neighs/atom = 88.709250
Neighbor list builds = 86
Dangerous builds = 16

# Equilibrate just above the melting temperature to avoid step fn in T

fix 1 all npt temp 1.25 1.25 0.1 iso 5.68 5.68 0.5 mtk yes tchain 5 pchain 5
run 1000
Per MPI rank memory allocation (min/avg/max) = 3.677 | 3.680 | 3.685 Mbytes
Step Temp E_pair E_mol TotEng Press Volume 
    1000     2.364264   -4.4348938            0  -0.88938446    5.9115751    5144.0032 
    1100    1.9499649   -4.6617779            0   -1.7375618    5.8205171    4978.7844 
    1200    1.7213197   -4.9482774            0   -2.3669434    5.7402188    4808.4294 
    1300    1.5721809   -5.1954201            0   -2.8377383    5.7003773    4667.9329 
    1400    1.4692769   -5.4052033            0   -3.2018389    5.6740098     4560.708 
    1500    1.3897296   -5.5637068            0   -3.4796336    5.6667574    4476.2103 
    1600    1.2963572   -5.6470084            0   -3.7029588    5.6441736    4434.9383 
    1700    1.2716936   -5.7363737            0   -3.8293102    5.7159049    4387.6158 
    1800    1.2561313   -5.8008832            0   -3.9171572    5.6027564    4366.0004 
    1900     1.242552   -5.8327759            0   -3.9694139    5.6800198    4347.3872 
    2000    1.2686809   -5.8614487            0   -3.9589031    5.5394068    4347.1855 
Loop time of 0.312349 on 24 procs for 1000 steps with 4000 atoms

Performance: 553226.634 tau/day, 3201.543 timesteps/s
99.7% CPU use with 24 MPI tasks x no OpenMP threads

MPI task timing breakdown:
Section |  min time  |  avg time  |  max time  |%varavg| %total
---------------------------------------------------------------
Pair    | 0.18074    | 0.18493    | 0.1955     |   0.8 | 59.21
Neigh   | 0.030702   | 0.031351   | 0.032186   |   0.2 | 10.04
Comm    | 0.060898   | 0.071942   | 0.077349   |   1.4 | 23.03
Output  | 0.00020337 | 0.0002104  | 0.00026456 |   0.0 |  0.07
Modify  | 0.019589   | 0.021437   | 0.02324    |   0.7 |  6.86
Other   |            | 0.002474   |            |       |  0.79

Nlocal:        166.667 ave         176 max         159 min
Histogram: 1 1 7 1 4 5 1 3 0 1
Nghost:        2035.25 ave        2048 max        2013 min
Histogram: 1 0 2 0 4 2 5 1 6 3
Neighs:        17526.7 ave       18387 max       16728 min
Histogram: 3 2 3 3 2 3 1 2 2 3

Total # of neighbors = 420641
Ave neighs/atom = 105.16025
Neighbor list builds = 76
Dangerous builds = 5


# Small amount of linear quench

fix 1 all npt temp 1.25 ${temp} 0.1 iso 5.68 5.68 0.5 mtk yes tchain 5 pchain 5
fix 1 all npt temp 1.25 0.16 0.1 iso 5.68 5.68 0.5 mtk yes tchain 5 pchain 5
run 2000
Per MPI rank memory allocation (min/avg/max) = 3.677 | 3.680 | 3.685 Mbytes
Step Temp E_pair E_mol TotEng Press Volume 
    2000    1.2686809   -5.8614487            0   -3.9589031    5.5394068    4347.1855 
    2100    1.2129506   -5.8556767            0   -4.0367057    5.6433991    4336.2668 
    2200    1.1815553   -5.9099154            0   -4.1380255    5.5470326    4322.3856 
    2300    1.1501062   -5.9701072            0   -4.2453792    5.5237146    4297.1999 
    2400    1.1136428   -6.0240314            0   -4.3539849    5.7147612    4255.0203 
    2500    1.0667094   -6.0917919            0   -4.4921277      5.79569     4220.134 
    2600    1.0113689   -6.1729089            0   -4.6562348     5.639025    4193.5896 
    2700   0.95426906   -6.2520632            0   -4.8210174    5.6001214    4165.4336 
    2800   0.90816908   -6.3366024            0   -4.9746893    5.6237982    4128.3778 
    2900    0.8587047   -6.4087247            0   -5.1209897    5.7750227    4086.8002 
    3000   0.78798554   -6.4729626            0   -5.2912798    5.7335824    4062.2047 
    3100   0.75880447   -6.5776916            0   -5.4397695    5.7431761    4024.2588 
    3200   0.70393246   -6.6616758            0   -5.6060411    5.7089987    3992.5681 
    3300   0.64978618   -6.7310646            0    -5.756629    5.8934018    3953.6709 
    3400   0.61332663   -6.8342127            0   -5.9144528    5.8754905    3919.3989 
    3500   0.56326521    -6.928872            0   -6.0841854    5.7654216     3892.466 
    3600   0.49687301   -7.0051551            0   -6.2600319     5.589733    3874.8843 
    3700   0.44118495     -7.07426            0   -6.4126481    5.6569471    3846.3176 
    3800   0.39497601    -7.155279            0   -6.5629631    5.6631915    3818.8227 
    3900   0.34041603   -7.2257714            0    -6.715275     5.661015    3794.7046 
    4000    0.2828434   -7.2891642            0   -6.8650051    5.6535226    3773.2513 
Loop time of 0.656991 on 24 procs for 2000 steps with 4000 atoms

Performance: 526034.925 tau/day, 3044.184 timesteps/s
99.7% CPU use with 24 MPI tasks x no OpenMP threads

MPI task timing breakdown:
Section |  min time  |  avg time  |  max time  |%varavg| %total
---------------------------------------------------------------
Pair    | 0.40579    | 0.417      | 0.43766    |   1.2 | 63.47
Neigh   | 0.04371    | 0.044777   | 0.046909   |   0.4 |  6.82
Comm    | 0.12499    | 0.14603    | 0.15999    |   2.2 | 22.23
Output  | 0.00042174 | 0.00043523 | 0.00055632 |   0.0 |  0.07
Modify  | 0.038066   | 0.042116   | 0.046077   |   1.1 |  6.41
Other   |            | 0.006628   |            |       |  1.01

Nlocal:        166.667 ave         175 max         161 min
Histogram: 3 2 4 3 3 4 2 1 1 1
Nghost:        2226.08 ave        2249 max        2210 min
Histogram: 2 2 4 4 5 3 1 1 1 1
Neighs:        20387.2 ave       21527 max       19596 min
Histogram: 2 2 5 5 3 2 2 1 1 1

Total # of neighbors = 489292
Ave neighs/atom = 122.32300
Neighbor list builds = 104
Dangerous builds = 0

#############################
# F R E E Z E  S Y S T E M  #
#############################

# Define solid atoms. This closely follows ten Wolde  Ruiz-Montero and Frenkel  Faraday Discuss  1996  104  93-110
# Compute components of the per-atom q6 vector
compute q6 all orientorder/atom degrees 1 6 components 6 nnn NULL cutoff 1.3 # compute the Q6 parameter.
                                                                             # Use all neighbours within 1.3 unit cell.

# get number of connections
compute coord_number all coord/atom orientorder q6 0.5

# An atom is solid if it has 8 or more connections (of a possible 14)
variable is_solid atom c_coord_number>=8
group solid dynamic all var is_solid    # Must be dynamic to update
dynamic group solid defined

# do clustering
compute cluster solid cluster/atom 1.3 # Create a cluster where all atoms within are solid and max 1.3 units from another member

# define chunks one chunk per cluster
compute clus_chunks solid chunk/atom c_cluster nchunk every compress yes  # Says which atoms are in which chunk

# count the size of each chunk
compute size_chunks solid property/chunk clus_chunks count


# Find the maximum entry in the vector of chunk sizes
variable max_n equal max(c_size_chunks)


# Thermo style which includes this variable
thermo_style custom step temp pe vol v_max_n

thermo ${N}  # Print the thermo information every 100 steps
thermo 100  

# Reset the npt fix at a lower temperature (below freezing)
fix 1  all npt temp  ${temp} ${temp}  0.1  iso  5.68  5.68  0.5  mtk yes tchain  5  pchain  5
fix 1  all npt temp  0.16 ${temp}  0.1  iso  5.68  5.68  0.5  mtk yes tchain  5  pchain  5
fix 1  all npt temp  0.16 0.16  0.1  iso  5.68  5.68  0.5  mtk yes tchain  5  pchain  5

dump dmp2 all dcd ${N} traj_${rand}.dcd
dump dmp2 all dcd 100 traj_${rand}.dcd
dump dmp2 all dcd 100 traj_462431.dcd


# fix rnuntil all halt ${N} v_max_n >= 3980 error soft message no   # Stop when solidified


run 100000 # 5000000  # Run for this many steps
Neighbor list info ...
  update every 1 steps, delay 10 steps, check yes
  max neighbors/atom: 2000, page size: 100000
  master list distance cutoff = 3.8
  ghost atom cutoff = 3.8
  binsize = 1.9, bins = 9 9 9
  4 neighbor lists, perpetual/occasional/extra = 1 3 0
  (1) pair lj/cut, perpetual
      attributes: half, newton on
      pair build: half/bin/atomonly/newton
      stencil: half/bin/3d
      bin: standard
  (2) compute orientorder/atom, occasional
      attributes: full, newton on
      pair build: full/bin/atomonly
      stencil: full/bin/3d
      bin: standard
  (3) compute coord/atom, occasional
      attributes: full, newton on
      pair build: full/bin/atomonly
      stencil: full/bin/3d
      bin: standard
  (4) compute cluster/atom, occasional
      attributes: full, newton on
      pair build: full/bin/atomonly
      stencil: full/bin/3d
      bin: standard
Per MPI rank memory allocation (min/avg/max) = 9.521 | 9.526 | 9.529 Mbytes
Step Temp PotEng Volume v_max_n 
    4000    0.2828434   -7.2891642    3773.2513           38 
    4100   0.24837945   -7.3404222    3751.2676           53 
    4200   0.21761456   -7.3849774    3738.9946           59 
    4300   0.19867188   -7.4290874    3732.7492           45 
    4400   0.18254921   -7.4483728    3721.7092           52 
    4500   0.17096183   -7.4635007    3714.0372           57 
    4600   0.16274977   -7.4748019    3711.3544           46 
    4700   0.15872305   -7.4855368    3712.5163           49 
    4800   0.15939329   -7.4864379    3707.5776           47 
    4900   0.16324335   -7.4886433    3706.8282           85 
    5000   0.15995188   -7.4970646    3709.1324           44 
    5100   0.16038315   -7.5038465    3707.6018           57 
    5200   0.15859446   -7.4972738    3703.5809           57 
    5300   0.16485243   -7.4990802    3700.9034           89 
    5400   0.16322147   -7.5166251    3706.1983           76 
    5500   0.15942155   -7.5179755     3704.346           95 
    5600   0.15799615   -7.5107077    3695.8236          109 
    5700   0.15892885   -7.5216332    3698.5439          109 
    5800   0.15603402   -7.5306358    3701.3792          104 
    5900   0.15760077   -7.5208881    3698.5852           89 
    6000   0.15984177   -7.5203736    3698.1023           81 
    6100    0.1625239   -7.5300496    3698.0953           86 
    6200   0.16029067   -7.5325367    3697.6215          138 
    6300   0.15861443    -7.521716    3697.3466          154 
    6400   0.15996376   -7.5223523    3695.3757          148 
    6500   0.16148989   -7.5321348    3699.7486          122 
    6600   0.15814948    -7.537098    3699.8675          120 
    6700   0.15889055   -7.5247747     3689.589          154 
    6800   0.16183568   -7.5251131    3694.0822          124 
    6900   0.15885967   -7.5396932    3701.6514          118 
    7000   0.15778001   -7.5337742    3696.6787          114 
    7100   0.15641252   -7.5254299    3693.9721          103 
    7200   0.15828434   -7.5383365    3693.0578          159 
    7300   0.15773124   -7.5389943    3698.2027          159 
    7400   0.16048755   -7.5372759    3695.8431          153 
    7500    0.1579583   -7.5346403     3689.775          138 
    7600    0.1587229   -7.5433372      3694.31          115 
    7700   0.15913952   -7.5442313    3698.9434          123 
    7800   0.16196967   -7.5386825    3692.6951          116 
    7900   0.15711558   -7.5400392    3691.4892          162 
    8000    0.1588687   -7.5469543    3691.4149          180 
    8100   0.15999093    -7.542397    3695.4073          243 
    8200   0.15832876   -7.5366288    3693.5994          115 
    8300   0.15894426   -7.5469523    3693.5837          191 
    8400   0.15871202   -7.5415185    3693.0406           93 
    8500   0.15943817   -7.5408677    3693.1956          200 
    8600   0.15962428   -7.5460474    3692.7487          144 
    8700   0.15846368   -7.5464187    3690.4513          162 
    8800   0.16172697   -7.5446561    3691.5225          102 
    8900   0.16020465   -7.5486281    3692.8775          116 
    9000   0.15885872   -7.5494451    3690.5724          113 
    9100   0.16353775   -7.5506013    3691.9748          252 
    9200   0.15998793    -7.546163    3690.8485          195 
    9300   0.15295679   -7.5450238    3691.9487          176 
    9400    0.1621823   -7.5547852    3694.3282          100 
    9500   0.16542801   -7.5556074    3691.6396          197 
    9600   0.16108295    -7.546242    3686.2413          226 
    9700   0.16457198   -7.5519369    3691.1271          256 
    9800    0.1631001   -7.5554448    3695.3909          219 
    9900   0.15974754   -7.5511279    3689.3692          205 
   10000   0.16281077   -7.5487707    3688.5696          321 
   10100   0.16198384   -7.5547945    3691.1559          317 
   10200   0.15874392   -7.5551032    3691.8984          338 
   10300   0.16653655   -7.5498215    3688.2483          266 
   10400   0.16120643   -7.5515432    3690.5882          339 
   10500   0.16014524   -7.5566062    3689.7681          382 
   10600   0.16011975   -7.5569812    3687.6244          362 
   10700   0.16110881   -7.5612676    3688.6006          408 
   10800   0.16171704   -7.5579048    3691.6709          445 
   10900   0.16057498   -7.5577061    3688.1789          310 
   11000   0.15982597   -7.5553156    3685.8147          445 
   11100   0.15681544   -7.5593903    3690.0549          421 
   11200   0.15996404   -7.5698374    3689.5794          320 
   11300   0.16080214   -7.5622869    3684.5291          485 
   11400   0.15994883   -7.5600836    3684.3214          522 
   11500   0.15958606   -7.5719654    3688.1876          345 
   11600   0.15593392   -7.5703807    3688.0725          278 
   11700   0.15948634   -7.5578041    3683.6135          415 
   11800   0.16150081   -7.5624428    3683.4933          469 
   11900   0.15799095   -7.5765109    3692.1161          550 
   12000   0.16144261   -7.5649838    3686.6116          559 
   12100   0.15814611   -7.5610911     3682.547          586 
   12200   0.16051054   -7.5691106    3685.3309          311 
   12300   0.16137914   -7.5696592    3689.0481          242 
   12400   0.16016042    -7.565575    3684.3239          253 
   12500   0.15841731    -7.567801    3682.3691          525 
   12600   0.16295212   -7.5711735    3686.4756          479 
   12700   0.15797207   -7.5683048     3686.127          422 
   12800   0.15807318   -7.5663077    3683.5482          460 
   12900   0.16028074    -7.567389    3686.6874          491 
   13000   0.15980169   -7.5743148    3687.1152          456 
   13100   0.16051822   -7.5716177    3683.9671          464 
   13200   0.16062945   -7.5657148    3682.5173          407 
   13300   0.15917163   -7.5740715    3683.6185          519 
   13400   0.15727566   -7.5819243    3687.8009          543 
   13500   0.15907685   -7.5675355    3684.1708          528 
   13600   0.16241151   -7.5691019    3680.0635          476 
   13700   0.15975999   -7.5784158    3685.7892          508 
   13800   0.15813381   -7.5784982    3687.1562          528 
   13900   0.16137653    -7.569489    3681.0543          372 
   14000   0.15537287   -7.5711872     3682.407          394 
   14100   0.16088349   -7.5777031    3686.5904          379 
   14200   0.16024273   -7.5731349    3685.5345          262 
   14300   0.15903098   -7.5729993    3679.7386          265 
   14400   0.15540289   -7.5701664    3686.4629          271 
   14500   0.15777328   -7.5741942    3687.0681          256 
   14600   0.15535111   -7.5714289    3684.2338          271 
   14700   0.15762138   -7.5716831    3680.7818          141 
   14800   0.16020919   -7.5729272    3686.0456          172 
   14900   0.16098965   -7.5797166     3687.273          333 
   15000   0.16069827   -7.5726266    3680.1916          506 
   15100   0.15856345   -7.5676736    3674.7831          598 
   15200   0.16095127   -7.5885224    3688.8261          504 
   15300   0.16129013   -7.5796319    3685.8855          604 
   15400   0.15807034   -7.5674988     3681.532          543 
   15500   0.15751339   -7.5750027    3683.9227          412 
   15600   0.15862138   -7.5803749    3684.8678          579 
   15700   0.15911249    -7.571433    3682.7701          322 
   15800   0.16064311   -7.5728151    3682.7947          697 
   15900   0.15945373   -7.5775236    3685.4555          648 
   16000   0.16180188   -7.5778153    3683.5969          621 
   16100    0.1592039   -7.5733539    3679.3331          653 
   16200   0.15715644   -7.5777972     3684.433          548 
   16300   0.16045374   -7.5833751    3691.7597          411 
   16400   0.16112149   -7.5721227    3681.5268          607 
   16500   0.15971768   -7.5702204    3678.2884          604 
   16600   0.15650436     -7.58047    3683.5896          432 
   16700   0.15678598   -7.5800589    3685.5572          570 
   16800   0.15983231   -7.5755783    3680.9191          604 
   16900   0.15990227   -7.5738243    3679.0957          466 
   17000   0.16134762   -7.5780763    3686.0403          477 
   17100   0.16262485   -7.5780273    3685.4887          258 
   17200   0.16069954   -7.5800775    3680.8023          179 
   17300   0.16163905   -7.5759154    3678.4085          584 
   17400   0.16287803    -7.579737     3685.614          557 
   17500   0.16150171   -7.5826586    3685.3277          517 
   17600   0.16033383   -7.5779154    3680.1976          632 
   17700   0.16302776    -7.578476    3681.9226          596 
   17800   0.16091883   -7.5822385    3683.8703          542 
   17900   0.15790128   -7.5802011    3682.4178          613 
   18000   0.16308661    -7.575445    3681.7679          512 
   18100   0.16038435   -7.5798576    3684.3661          546 
   18200   0.15858484   -7.5807772     3683.975          563 
   18300   0.16027422    -7.577079    3680.9748          636 
   18400   0.15647333     -7.58175     3680.736          359 
   18500   0.15929151   -7.5892404    3688.7274          692 
   18600    0.1601665    -7.583478    3681.5036          514 
   18700    0.1608225   -7.5711133    3675.5902          593 
   18800   0.16526177    -7.584704    3683.9766          534 
   18900   0.16095799   -7.5848237    3685.1824          574 
   19000   0.15955284   -7.5808455    3679.8097          544 
   19100   0.15568629   -7.5793172    3680.6933          508 
   19200   0.16204422   -7.5838698    3683.6838          494 
   19300   0.15908052   -7.5815238    3684.1084          520 
   19400   0.16225193   -7.5790557    3679.8325          561 
   19500   0.15798467   -7.5828827    3682.6838          538 
   19600   0.15475776   -7.5844396    3682.8001          586 
   19700   0.16211738   -7.5805044    3680.4075          529 
   19800   0.16055103   -7.5772896    3680.3892          593 
   19900   0.15949854   -7.5906322    3684.7365          618 
   20000   0.15819575   -7.5853307    3682.8161          533 
   20100   0.15997731   -7.5739351    3676.1678          675 
   20200   0.16836453   -7.5850575    3680.1074          553 
   20300   0.16214795   -7.5863405    3685.6222          540 
   20400    0.1611063   -7.5826768    3680.0237          491 
   20500   0.16000229   -7.5781407    3680.9395          568 
   20600   0.16103371   -7.5786304    3684.7178          605 
   20700   0.16006972   -7.5831554    3683.1642          625 
   20800   0.15760325   -7.5784338    3679.2552          456 
   20900   0.16388487   -7.5823273    3682.4892          576 
   21000   0.15927023   -7.5836581    3684.6401          648 
   21100    0.1598358    -7.582096    3683.6174          495 
   21200   0.16045036   -7.5756735    3678.5417          347 
   21300   0.15610754   -7.5806612    3680.9702          534 
   21400   0.15964132   -7.5883752    3691.0879          557 
   21500   0.16159544    -7.581425    3681.4136          539 
   21600   0.15835462   -7.5761058    3677.7809          564 
   21700   0.16302287   -7.5780389    3682.9074          698 
   21800   0.16009519   -7.5831948     3685.049          560 
   21900   0.16015993   -7.5824552    3680.5749          585 
   22000   0.16080011   -7.5807247    3677.5511          631 
   22100   0.16107266   -7.5841041    3682.6009          503 
   22200   0.16179911   -7.5854512      3686.07          563 
   22300   0.16237435   -7.5842741    3678.7409          663 
   22400   0.15842385   -7.5786604    3679.2504          550 
   22500   0.15960648   -7.5835714    3682.9504          649 
   22600    0.1595961   -7.5873066    3684.2126          615 
   22700   0.15824507   -7.5843748    3678.9189          651 
   22800   0.15966713   -7.5835503     3679.888          683 
   22900   0.16533756   -7.5885112    3682.5508          669 
   23000   0.16256082   -7.5849633    3680.4224          582 
   23100   0.16017826   -7.5861041     3680.084          609 
   23200   0.15915895    -7.584121    3682.5889          601 
   23300   0.15968776   -7.5816517    3682.6632          456 
   23400   0.15756099   -7.5849253    3680.7991          600 
   23500   0.15982208   -7.5825127    3683.6186          652 
   23600   0.16299529    -7.584322    3680.1909          650 
   23700   0.15971531   -7.5821752    3679.6103          624 
   23800     0.159311   -7.5869026    3684.2475          640 
   23900   0.15908709   -7.5869633    3683.6672          650 
   24000   0.15849191    -7.582294    3677.1229          621 
   24100   0.15859631   -7.5802392    3679.5623          331 
   24200   0.16399349   -7.5898652    3685.1048          684 
   24300   0.16038255   -7.5889563    3681.0494          613 
   24400   0.16259014   -7.5799427    3676.1331          665 
   24500   0.16017368   -7.5839501    3681.0209          687 
   24600   0.15848566   -7.5889397    3683.5027          660 
   24700   0.15817845   -7.5878589    3680.0966          680 
   24800   0.16287052   -7.5818543    3679.0733          651 
   24900   0.15983602   -7.5875992    3680.4454          612 
   25000   0.16369288   -7.5946953    3682.7527          627 
   25100   0.16250944   -7.5805054    3680.6798          696 
   25200   0.16161483   -7.5815394    3679.2298          763 
   25300   0.15813008    -7.584457    3682.0855          710 
   25400   0.15568511   -7.5841796    3682.8488          664 
   25500   0.15720393   -7.5857034    3679.6024          713 
   25600   0.15944852   -7.5813419    3681.2959          692 
   25700   0.15782754   -7.5853282    3682.5784          686 
   25800   0.15693722   -7.5891116    3683.6141          548 
   25900   0.15632114    -7.587298     3677.455          719 
   26000   0.15708325   -7.5798413    3679.5054          669 
   26100     0.161907   -7.5884565    3684.5779          616 
   26200   0.15755915   -7.5913708    3682.6833          580 
   26300   0.15942232   -7.5829614    3676.1613          744 
   26400   0.15953712   -7.5833334     3681.265          767 
   26500   0.16197019    -7.592236      3682.48          735 
   26600   0.16079468    -7.588842    3678.9727          687 
   26700   0.16376233   -7.5836403     3678.907          641 
   26800   0.16165223   -7.5874591    3681.5425          673 
   26900   0.15753294   -7.5903916    3680.3808          739 
   27000   0.15828999   -7.5858936    3680.2469          769 
   27100   0.15850155   -7.5843016    3680.4377          562 
   27200   0.16289755   -7.5874121    3682.0293          685 
   27300   0.15983007   -7.5894441    3678.7815          642 
   27400   0.16241798   -7.5836232    3678.4775          696 
   27500   0.16138291   -7.5879727    3680.9905          665 
   27600   0.15952182   -7.5905522    3681.2338          423 
   27700   0.15517654   -7.5863429    3682.4945          663 
   27800   0.16083116    -7.586686    3678.8562          675 
   27900   0.16446362   -7.5863232    3680.1505          747 
   28000   0.16170456   -7.5953816    3680.5793          762 
   28100   0.16047694   -7.5893255    3680.2696          694 
   28200    0.1605277   -7.5828986    3678.8056          712 
   28300   0.15888321   -7.5850564    3680.5662          767 
   28400   0.15979473   -7.5910965    3684.1278          781 
   28500   0.15797504   -7.5874398    3677.2734          769 
   28600   0.15983189    -7.580627    3677.9915          711 
   28700   0.16192959   -7.5934614    3683.1513          704 
   28800   0.16110089   -7.5959414    3681.3723          736 
   28900   0.16332194   -7.5848483    3675.8298          737 
   29000    0.1598984   -7.5854553    3680.1825          686 
   29100   0.15693896   -7.5947342    3681.8779          756 
   29200   0.15928294   -7.5868333    3678.9486          663 
   29300   0.15960914   -7.5838513    3677.1228          733 
   29400   0.16228023   -7.5886608    3682.8032          734 
   29500     0.159552   -7.5954366    3684.0315          748 
   29600   0.15708011   -7.5838843    3676.7507          799 
   29700   0.15744394   -7.5788842    3677.9898          739 
   29800   0.16176332   -7.5953619    3682.8434          724 
   29900   0.16046486    -7.594566    3680.3324          723 
   30000   0.16177822   -7.5843828    3676.4036          785 
   30100   0.15854312   -7.5870186    3680.6123          781 
   30200   0.15721979   -7.5948646    3681.5632          804 
   30300   0.16035817   -7.5877573    3679.1356          770 
   30400   0.16130595   -7.5851237    3677.7629          707 
   30500   0.15534482   -7.5927076     3682.288          665 
   30600   0.16050961   -7.5922609    3681.2648          720 
   30700    0.1609174   -7.5838292    3679.3171          736 
   30800    0.1578421   -7.5856542    3675.9808          779 
   30900   0.16108905   -7.5940287    3681.1573          797 
   31000   0.16019169   -7.5906568    3683.0913          783 
   31100    0.1593438   -7.5885782     3678.048          768 
   31200   0.16114967   -7.5904555    3677.9509          741 
   31300   0.15851199    -7.589752     3680.718          723 
   31400   0.16174784   -7.5887339    3680.7792          738 
   31500   0.15807752   -7.5863162    3678.8604          675 
   31600   0.15897554   -7.5909619    3677.0213          700 
   31700   0.15900244   -7.6015876    3680.2529          751 
   31800   0.15967415   -7.5937498    3680.1075          708 
   31900   0.16171632   -7.5827779    3675.6727          763 
   32000   0.15929715   -7.5945504    3679.9542          755 
   32100   0.16284954   -7.6012035    3683.0909          728 
   32200   0.16247741   -7.5869727    3677.5256          728 
   32300   0.15959723   -7.5858685    3674.3994          771 
   32400   0.15789192   -7.5971257    3681.6101          789 
   32500   0.16120671   -7.5918037    3682.8474          673 
   32600   0.16018169   -7.5875093    3677.2697          805 
   32700   0.15627154   -7.5915424    3678.7404          764 
   32800    0.1611863   -7.5916344    3680.6808          789 
   32900   0.16229969    -7.589646    3680.2525          646 
   33000   0.16121058   -7.5914777    3676.7191          769 
   33100   0.16069151   -7.5947848    3678.8052          807 
   33200   0.16159119   -7.5945392    3682.5367          749 
   33300    0.1584174   -7.5877435     3678.418          778 
   33400   0.15753569   -7.5893377     3677.697          791 
   33500   0.16122949   -7.5961037    3684.3155          801 
   33600   0.16108087   -7.5946991    3681.0836          796 
   33700   0.15836073   -7.5822375    3673.6514          756 
   33800   0.16357399   -7.5925861    3679.2166          789 
   33900   0.16148736   -7.6007222    3680.0964          784 
   34000   0.15887831   -7.5926945    3679.2649          822 
   34100   0.15885452   -7.5873992      3677.72          852 
   34200   0.15654542   -7.5926286    3679.1557          804 
   34300   0.16297126   -7.5972491    3680.7883          800 
   34400   0.15920705   -7.5908028     3678.943          830 
   34500   0.15860974   -7.5900353    3674.0977          801 
   34600   0.15971493   -7.5922617    3679.5141          809 
   34700   0.16116665   -7.5967416    3682.4173          810 
   34800   0.15721191   -7.5922945    3676.8184          862 
   34900    0.1630121   -7.5884385     3673.268          848 
   35000   0.16036945   -7.5963358    3681.8867          840 
   35100   0.15733078    -7.596289    3680.9233          851 
   35200   0.16247551   -7.5883397    3676.9953          852 
   35300   0.16198936   -7.5924434    3678.9616          831 
   35400   0.15773952   -7.5961608    3679.1403          854 
   35500   0.15993619   -7.5940921    3680.5142          855 
   35600     0.160069    -7.591026    3676.8436          843 
   35700   0.15962017   -7.5947179    3679.3033          847 
   35800   0.15633045   -7.5946551    3678.5569          811 
   35900   0.16120439    -7.593097    3678.9462          830 
   36000   0.16116854   -7.5888007    3678.9972          822 
   36100     0.158291   -7.5937665    3679.1367          837 
   36200   0.16127756   -7.5968941    3678.6715          886 
   36300   0.16216243   -7.5894389    3679.9749          846 
   36400   0.16116932   -7.5899088    3676.3911          821 
   36500   0.15610601   -7.5934701    3679.6513          860 
   36600    0.1610061   -7.5937569    3678.6444          790 
   36700   0.16077347   -7.5941367    3679.8611          829 
   36800   0.16034871   -7.5943447    3675.9488          841 
   36900   0.15857771   -7.5889454    3678.3977          828 
   37000   0.16188125   -7.5940802    3680.3101          848 
   37100   0.15557443   -7.5940824    3681.2463          818 
   37200   0.16307346   -7.5918097    3675.1424          815 
   37300   0.15906275   -7.5958079    3676.1339          815 
   37400   0.16363756   -7.6031349    3681.7937          830 
   37500   0.15955972   -7.5948624    3678.2912          832 
   37600    0.1628755   -7.5905912    3673.0674          850 
   37700   0.16130829   -7.5951556    3679.7555          862 
   37800   0.16027858   -7.6003248    3682.2474          896 
   37900   0.15662688   -7.5943846    3675.9349          881 
   38000   0.16106767   -7.5942858    3676.6591          873 
   38100   0.16020191   -7.5939428    3680.2914          657 
   38200   0.15492323   -7.5942975    3678.4961          808 
   38300   0.15819846   -7.5958111    3677.3711          823 
   38400   0.16483443   -7.5954133    3678.3424          832 
   38500   0.16111899   -7.5949912    3679.5013          804 
   38600   0.16164509   -7.5971215     3675.778          868 
   38700   0.15699941   -7.5943749    3678.9637          873 
   38800   0.16192151   -7.5948055    3680.9277          883 
   38900   0.16305324   -7.5951122    3677.0317          850 
   39000   0.16170713   -7.5938555      3674.59          848 
   39100   0.15944408   -7.5971695    3679.3534          844 
   39200   0.15985769   -7.5978335    3680.2235          832 
   39300   0.15843752   -7.5929763    3676.8959          859 
   39400   0.15990431   -7.5908674     3676.449          839 
   39500   0.15891343   -7.5971614    3679.5659          825 
   39600    0.1594733    -7.601676    3678.8206          835 
   39700   0.16120539    -7.595538    3675.0529          723 
   39800   0.16063754   -7.5941296     3676.323          646 
   39900    0.1544635   -7.6033355    3682.9728          845 
   40000   0.15874491   -7.5970754    3680.7561          827 
   40100   0.15703933   -7.5833864    3672.8332          863 
   40200    0.1587955   -7.5964263    3676.1087          856 
   40300   0.15417858   -7.6024164    3681.8699          863 
   40400   0.16107547   -7.5958142    3677.7668          881 
   40500   0.15944122    -7.594802    3675.1163          910 
   40600   0.15642528   -7.6021426    3676.5429          926 
   40700   0.16125215   -7.6001275    3678.9983          902 
   40800   0.15954154   -7.5939741     3678.658          872 
   40900   0.15910127   -7.5887371    3676.4806          870 
   41000   0.15759294   -7.5981307    3678.9305          875 
   41100   0.16060284   -7.6007191    3680.0146          908 
   41200   0.16107252   -7.5920117    3676.9751          908 
   41300    0.1560099   -7.5933752    3676.0262          899 
   41400    0.1600638    -7.601324    3680.8373          880 
   41500   0.15871272   -7.5948281    3681.8675          882 
   41600   0.15901427   -7.5934487    3674.7945          884 
   41700   0.15688971   -7.5949097    3675.8256          897 
   41800   0.15919401   -7.5991662    3680.0114          897 
   41900   0.15695531   -7.5989266    3681.2818          923 
   42000    0.1617547   -7.5981266    3672.7615          839 
   42100   0.15821255   -7.5919132    3676.6715          882 
   42200   0.16105563   -7.6021866    3681.3896          873 
   42300   0.16000816   -7.6011083    3677.5879          909 
   42400   0.16150042   -7.5893492    3674.5039          881 
   42500   0.16140087   -7.5983973    3677.8562          855 
   42600   0.15885542      -7.6066    3679.6412          770 
   42700   0.15844899   -7.5977547    3677.6535          867 
   42800   0.15799524   -7.5891492    3676.3812          888 
   42900   0.16059555   -7.5941939    3678.8223          908 
   43000   0.15942481   -7.6011231    3679.0917          886 
   43100   0.15985478   -7.5975794    3675.0622          925 
   43200   0.16109949   -7.5947713    3678.1322          893 
   43300   0.15724884    -7.600611     3679.659          896 
   43400    0.1618907    -7.598354    3677.7039          887 
   43500   0.15962287    -7.593067    3676.7121          899 
   43600   0.15544441   -7.5993655    3677.8977          907 
   43700   0.16059095   -7.5986068    3678.5412          870 
   43800   0.16084354   -7.5952845    3677.4853          905 
   43900   0.16284253   -7.5919041    3678.8691          903 
   44000   0.16181829   -7.5998103    3677.8985          860 
   44100   0.16001913   -7.5973213     3677.124          897 
   44200   0.16057716   -7.5940871    3680.3063          877 
   44300   0.16037808   -7.5979141    3678.2502          891 
   44400   0.16024446   -7.5936941    3673.3642          876 
   44500   0.16452036   -7.5974118     3678.625          834 
   44600   0.16117261   -7.6019331    3683.0286          861 
   44700   0.16211789    -7.595177    3674.5603          882 
   44800   0.15992668   -7.5925977    3674.8274          798 
   44900   0.15970872   -7.6038884    3678.9045          872 
   45000   0.15645804   -7.6015985    3680.0488          841 
   45100    0.1618603   -7.5949183    3675.4989          872 
   45200   0.16274821   -7.5971511    3675.8198          882 
   45300   0.15951682   -7.5998926    3681.2577          856 
   45400   0.15864908   -7.5991944    3677.2695          878 
   45500   0.16258274   -7.5932077    3674.5682          863 
   45600   0.16150636   -7.5953161    3678.2825          888 
   45700    0.1596909   -7.6030999    3679.5899          910 
   45800     0.158685   -7.5989823    3677.2553          870 
   45900   0.15997235   -7.5961072    3677.7408          912 
   46000   0.15982194   -7.5987373    3676.7861          863 
   46100   0.15860921    -7.602061    3678.0645          894 
   46200    0.1611139   -7.5961973    3677.8153          930 
   46300    0.1609803   -7.5949554    3677.2791          897 
   46400   0.16100214   -7.6013703    3678.1628          895 
   46500   0.15789393   -7.6015652    3676.0626          889 
   46600   0.15831257   -7.5947628    3676.4883          936 
   46700   0.16255209   -7.6012796     3679.501          897 
   46800   0.15591613    -7.602549    3680.3777          859 
   46900   0.15752122   -7.5979665    3673.7172          885 
   47000   0.15816933   -7.5945436    3676.4446          938 
   47100   0.16070517   -7.5998778    3682.5205          911 
   47200   0.16273793   -7.5928123    3679.0125          929 
   47300   0.15993215   -7.5944566     3674.309          862 
   47400   0.15928574    -7.596787    3678.3109          914 
   47500   0.16283042   -7.6036217    3685.4527          919 
   47600   0.15819568   -7.5955765    3676.2226          894 
   47700    0.1572049    -7.588149    3671.3614          893 
   47800   0.16398894   -7.6037736    3679.3821          866 
   47900   0.15679946    -7.601804    3681.7444          908 
   48000   0.15828971    -7.594319     3677.069          915 
   48100   0.16175779   -7.5955663    3675.3666          863 
   48200    0.1586699   -7.6000321    3677.9151          883 
   48300   0.16169453   -7.6018318    3680.1535          920 
   48400   0.15806328    -7.593203    3675.6286          889 
   48500   0.16163963    -7.597841    3676.2422          847 
   48600   0.15976364   -7.5982966    3681.3381          845 
   48700   0.15795509   -7.5996358    3678.1232          828 
   48800   0.15560391   -7.5931944    3674.6666          910 
   48900   0.15832088   -7.5939451     3678.377          929 
   49000   0.15742374   -7.6060328    3683.3496          933 
   49100   0.16303018    -7.599203    3674.3059          908 
   49200   0.16291551   -7.5909804     3673.891          935 
   49300   0.16136791   -7.6027055     3680.411          912 
   49400   0.15402809   -7.5998745    3679.3034          941 
   49500   0.16147778   -7.5991165    3675.1576          944 
   49600   0.16171029   -7.5992204     3677.855          896 
   49700   0.15658101   -7.6014253    3678.2632          905 
   49800   0.16143735   -7.6006335     3675.673          875 
   49900   0.16290574   -7.5972493    3676.3731          902 
   50000   0.15994246   -7.6018307    3680.1481          950 
   50100   0.16329592   -7.6017061    3677.3413          955 
   50200   0.16101438   -7.5889549    3676.0711          927 
   50300   0.16034364   -7.6006297    3677.9676          934 
   50400   0.15980596   -7.6049423    3680.7977          926 
   50500   0.15989544   -7.5981081    3676.4516          924 
   50600    0.1629868   -7.5909008    3671.9964          963 
   50700   0.16355893   -7.6003822    3678.9129          955 
   50800   0.15902424   -7.6056869    3679.2065          983 
   50900   0.16143709   -7.5976045    3675.5141          976 
   51000   0.16131098   -7.5967555    3676.5966          968 
   51100   0.15837094   -7.6049941    3678.6278          981 
   51200   0.16008764   -7.5996415    3674.7877          951 
   51300   0.16188032    -7.598303    3676.5114          944 
   51400   0.16007956   -7.6026823    3678.1152          935 
   51500   0.15511671   -7.6026396    3676.2887          933 
   51600   0.15991719   -7.6004284    3674.6998          965 
   51700   0.16157023   -7.6043321    3678.1369          918 
   51800   0.15859096   -7.6030929    3679.0917          949 
   51900   0.16296861   -7.5948883    3672.6653          936 
   52000   0.15844028   -7.6027967    3675.0559          951 
   52100   0.15914764   -7.6062889     3680.834          939 
   52200   0.15947016   -7.5932921    3679.2028          764 
   52300   0.16271198   -7.5965933    3675.3286          952 
   52400   0.16043425   -7.6041102    3676.6274          952 
   52500   0.16109877   -7.6038134    3678.7905          942 
   52600   0.16264912   -7.5994922    3675.6543          954 
   52700    0.1587225   -7.6001348    3675.7325          950 
   52800   0.16285909   -7.6024339    3676.6871          985 
   52900   0.16068359   -7.5999075    3678.1082          960 
   53000   0.15787269   -7.5978658    3676.7165          946 
   53100   0.15679957   -7.6015603    3673.2493          964 
   53200   0.16078631     -7.60636    3678.1538          892 
   53300    0.1590667   -7.6017141    3677.3139          956 
   53400   0.16193197   -7.5976918     3674.288          971 
   53500   0.16173286   -7.6044213    3674.3886          969 
   53600   0.16080831   -7.6112711    3679.9618         1006 
   53700   0.16093943   -7.6001338    3675.6221          980 
   53800   0.15841652   -7.5957361    3674.5264          957 
   53900   0.15895751   -7.6016421    3676.7954          983 
   54000   0.16321108   -7.6066741    3678.1206          985 
   54100   0.16055038    -7.601827    3675.9236          962 
   54200    0.1601605   -7.6047901    3674.3911          979 
   54300   0.16483379   -7.6010818    3675.8883          957 
   54400   0.16128167    -7.604417     3677.175          956 
   54500   0.15696111   -7.6068576    3676.0272          939 
   54600   0.15899607   -7.6019576    3674.3287          980 
   54700    0.1603964   -7.6002621    3675.5409          964 
   54800   0.16584124   -7.6019218    3680.6551          933 
   54900   0.16196756   -7.6005762      3677.78          974 
   55000   0.15838332    -7.596869    3672.6116          962 
   55100   0.16006594   -7.6025107    3675.2963          958 
   55200   0.16230911   -7.6051739    3681.2786          976 
   55300   0.16041744    -7.602855    3675.2288          996 
   55400   0.16148978   -7.6005677     3672.187          961 
   55500   0.15979701    -7.599599    3679.8888          965 
   55600    0.1594802   -7.6066662    3679.9316          981 
   55700     0.160742   -7.6039075    3674.2142          977 
   55800   0.16103048   -7.5940558    3673.0426          967 
   55900   0.16120382   -7.6045498    3679.0664          907 
   56000   0.15892932    -7.606945     3679.202          957 
   56100   0.16448485   -7.5988424    3674.2158          943 
   56200   0.16091169   -7.6032227    3675.6145          912 
   56300   0.16044049   -7.6059141    3678.9352          947 
   56400   0.15736215   -7.6039844    3676.1727          940 
   56500   0.15957994   -7.6019214    3673.6492          959 
   56600   0.16264498   -7.6026817    3676.4885          913 
   56700    0.1579417   -7.6085994    3677.9528         1006 
   56800   0.16254498   -7.6031874    3673.9889         1019 
   56900   0.16115538   -7.6001338    3674.6563          979 
   57000   0.15767932   -7.6019354     3677.595          976 
   57100   0.16100404   -7.6052113    3676.4042          989 
   57200   0.15621949     -7.60565    3675.0638          990 
   57300   0.15569853   -7.6003679    3675.7902          988 
   57400    0.1606626   -7.6055604    3678.8612          994 
   57500   0.16083913   -7.6082613    3678.0333         1020 
   57600   0.16129434   -7.6010575    3668.9886          954 
   57700   0.15568581   -7.5946561     3673.947          974 
   57800   0.16168176   -7.6098019    3681.4982          973 
   57900   0.15948918   -7.6051163    3677.0903          997 
   58000   0.15928309   -7.5991192    3673.8445          978 
   58100   0.15985843   -7.6040323    3675.9914          999 
   58200   0.16212616   -7.6046551    3677.8479          990 
   58300   0.15946888    -7.607205    3677.1958          844 
   58400   0.16024989    -7.603138    3672.0701          955 
   58500   0.16162461   -7.6011204    3674.8944          987 
   58600   0.16133786   -7.6071654    3679.7364          961 
   58700   0.15902634   -7.6059569    3677.3078         1020 
   58800    0.1585697   -7.5996701    3672.1344         1017 
   58900   0.15959275   -7.6035402    3675.5834         1017 
   59000   0.16096747   -7.6129391    3681.0451         1026 
   59100   0.15894739   -7.6027469     3674.224         1015 
   59200   0.16242809   -7.5961808    3670.8603         1035 
   59300   0.15623275   -7.6045615    3677.1165         1041 
   59400   0.16079001   -7.6118459      3679.55         1039 
   59500   0.16005294   -7.5980444    3674.9402         1060 
   59600    0.1570399   -7.6011306    3671.5032         1003 
   59700   0.15900957   -7.6080317    3679.8826         1025 
   59800   0.15948443   -7.6070763    3677.2177         1025 
   59900   0.15652368   -7.5998301    3673.5945         1046 
   60000    0.1607062   -7.6018741     3675.499          964 
   60100   0.15833331   -7.6074912    3679.1836         1010 
   60200   0.15581694   -7.6076077    3675.0593         1046 
   60300   0.15674958   -7.5986175    3675.2303         1012 
   60400   0.16065733   -7.6012195    3677.4027         1035 
   60500   0.15846635   -7.6076744    3675.7357         1052 
   60600    0.1628792   -7.6084528    3675.7634         1051 
   60700   0.15906502   -7.6016531    3674.3826         1046 
   60800   0.16039878   -7.6004887    3675.9409         1026 
   60900   0.16126547     -7.60534    3676.5579         1021 
   61000   0.16014796   -7.6067891    3675.4224          990 
   61100   0.16076031   -7.6022612    3673.4702         1035 
   61200   0.15967531   -7.6014295    3677.2586         1027 
   61300   0.16054657   -7.6047318    3675.7669         1009 
   61400   0.16136028   -7.6067705    3674.9226          988 
   61500   0.16023186   -7.6049319     3675.495         1044 
   61600   0.16597027   -7.6062027    3676.7939         1054 
   61700   0.16286102   -7.6056297    3673.5513         1037 
   61800   0.16147637   -7.6044099    3674.5289         1060 
   61900   0.15934108   -7.6062255    3677.7046         1047 
   62000   0.15859614   -7.6077612    3674.0474         1024 
   62100   0.16327979   -7.6055496    3673.1216         1010 
   62200   0.16209995   -7.6059648    3676.5011         1014 
   62300   0.15589612    -7.603181    3677.9993         1011 
   62400   0.15827929   -7.6040748    3673.0544         1072 
   62500    0.1611225   -7.5975751    3674.1514         1063 
   62600   0.16418274   -7.6073239    3675.7103         1043 
   62700   0.16134695   -7.6129855    3677.5185         1037 
   62800    0.1619762   -7.6040669    3674.4557         1072 
   62900    0.1610407   -7.5945461    3672.7371         1025 
   63000   0.15991508    -7.605341    3677.7379         1026 
   63100   0.15993285    -7.609596    3679.1372          999 
   63200   0.15920089   -7.6008138     3672.405         1010 
   63300    0.1615382   -7.6039381    3671.9558         1050 
   63400   0.16060693   -7.6082991    3679.2013         1023 
   63500   0.16145469   -7.6038082    3675.4988         1007 
   63600   0.16016623   -7.6014324    3672.2985         1013 
   63700   0.16322553    -7.608518    3676.5644         1042 
   63800     0.165082   -7.6081799    3675.5341         1034 
   63900   0.15733247   -7.6060848     3675.129         1040 
   64000   0.15913516   -7.6011096    3674.5925         1058 
   64100     0.160442   -7.6055854    3676.4434         1017 
   64200   0.15894215   -7.6065512    3676.3096          978 
   64300   0.15820473   -7.5984465    3677.4848         1036 
   64400   0.15780074   -7.6019164    3672.2345         1026 
   64500   0.15987966   -7.6062504    3676.4033         1061 
   64600   0.16197205   -7.6088803    3680.0149         1052 
   64700   0.15901578   -7.6017479    3673.4271         1025 
   64800   0.15968228   -7.5994278    3672.6967         1049 
   64900   0.15920623    -7.603456    3682.5289         1067 
   65000   0.16105359   -7.6055075    3676.0511          956 
   65100   0.16007316   -7.6027222    3672.1422         1007 
   65200   0.15808946   -7.6056082     3676.189          998 
   65300   0.16254127   -7.6067297    3676.9896         1009 
   65400   0.16041509   -7.5986513    3678.5881         1018 
   65500   0.16190063   -7.6034649    3675.3322         1019 
   65600   0.15886212   -7.6054918    3674.2484         1020 
   65700   0.16116024   -7.6074888    3678.2334         1027 
   65800   0.16043478   -7.6040479    3676.8029         1010 
   65900   0.15770068   -7.6029385    3674.5697          988 
   66000   0.15813012   -7.6028015    3675.2961         1005 
   66100   0.16217913   -7.6102569     3678.654         1056 
   66200   0.15655441   -7.6058566    3677.4149         1049 
   66300    0.1609473   -7.5964791    3670.3962         1033 
   66400   0.16133067   -7.6023551    3677.7665          997 
   66500     0.162408   -7.6123265    3677.8511         1062 
   66600   0.15948089    -7.606032    3673.8996         1037 
   66700   0.16060122   -7.6019412    3674.3647         1013 
   66800   0.15932209    -7.604232    3677.0023         1024 
   66900   0.16056087   -7.6087306    3677.7136         1033 
   67000   0.15913821   -7.6028902    3674.5854         1058 
   67100   0.16112609   -7.5987826    3675.5404         1065 
   67200   0.15978805   -7.6067106    3676.8124         1017 
   67300   0.16059125   -7.6091316    3676.7418         1039 
   67400   0.16165641   -7.6018737    3676.3995         1005 
   67500   0.15810713   -7.6062445    3675.9689         1032 
   67600   0.15793301   -7.6074547    3674.3586         1049 
   67700   0.16234276   -7.6048377    3675.6706         1041 
   67800   0.16056064   -7.6036349    3676.1547          986 
   67900   0.15905679   -7.6074722    3673.9297         1004 
   68000   0.16118887   -7.6076854     3674.972         1021 
   68100   0.16176985   -7.6028736    3675.6231         1035 
   68200   0.15942446   -7.6044755    3675.5466         1026 
   68300   0.16128957   -7.6081911    3675.9307         1014 
   68400   0.16269967   -7.6067621     3675.775         1025 
   68500   0.16074178   -7.5984738    3676.5833         1017 
   68600   0.15887163   -7.6033768    3672.9917         1040 
   68700   0.16363559   -7.6111513    3677.0994          993 
   68800   0.16197376   -7.6079146    3677.2976          987 
   68900   0.15553923   -7.6017773    3672.6557          985 
   69000   0.16211747   -7.6012975    3672.5653         1004 
   69100    0.1610135   -7.6085839    3680.0455         1038 
   69200   0.15676371   -7.6084325    3676.1392         1019 
   69300   0.15897413   -7.5972792     3670.378          989 
   69400   0.16146761   -7.6053311    3677.0395         1027 
   69500   0.15812432   -7.6147414    3678.9654         1020 
   69600    0.1557408    -7.604529    3676.2658         1026 
   69700   0.16065377    -7.602961    3671.8826         1045 
   69800    0.1612411   -7.6033807    3677.4307         1023 
   69900   0.15876224     -7.60343    3678.2261         1043 
   70000   0.16050975   -7.6046148    3674.0644         1053 
   70100   0.16007919   -7.5995651    3675.9949         1055 
   70200   0.15903148   -7.6036238    3677.6932         1011 
   70300   0.15792899   -7.6074768    3676.5641         1057 
   70400   0.16119256   -7.6014761    3673.3773         1051 
   70500   0.16395254   -7.5993257     3675.686         1058 
   70600    0.1589504   -7.6075854    3678.8161         1049 
   70700   0.15879048   -7.6031656    3675.5367         1032 
   70800   0.15737166   -7.5972856     3670.952         1014 
   70900   0.16278263   -7.6065032    3678.3029         1060 
   71000   0.16162754   -7.6117084    3679.5495         1064 
   71100   0.16041157   -7.6018503    3673.1236         1021 
   71200   0.16044196   -7.6008239    3673.3768         1053 
   71300   0.15602348    -7.607427    3676.9775         1046 
   71400   0.16092346   -7.6087792    3676.8216         1068 
   71500   0.15838126   -7.6021022    3674.9715         1019 
   71600   0.16306774   -7.6031548    3673.5438         1033 
   71700   0.15958283   -7.6081584    3676.0086         1013 
   71800   0.16197368   -7.6071208    3676.9862         1042 
   71900   0.15820358   -7.6071145    3674.0485         1039 
   72000   0.16152426    -7.602745    3672.9153         1012 
   72100   0.16119598   -7.6087533     3676.056         1010 
   72200   0.15475111   -7.6103525    3677.9519         1056 
   72300   0.16266649   -7.6034083    3672.4516         1035 
   72400   0.15573385   -7.6019064    3674.6864         1069 
   72500   0.16120775   -7.6069868    3675.7964         1040 
   72600   0.15914366   -7.6027579    3679.0065         1039 
   72700   0.15754139   -7.6036113    3674.3634         1042 
   72800   0.15618777   -7.6047731    3674.9744         1057 
   72900   0.16190773   -7.6073407    3677.8544         1043 
   73000   0.15931997   -7.6050699    3675.4276         1031 
   73100   0.15658719   -7.6007768    3674.7193         1056 
   73200   0.16035626   -7.6036575    3678.2688         1019 
   73300   0.16187963   -7.6100742    3676.6642         1028 
   73400   0.15817425    -7.602941    3673.2163         1009 
   73500   0.16318879    -7.601558    3674.0169         1050 
   73600   0.16005028   -7.6085268    3678.1017         1053 
   73700   0.15640788   -7.6104084    3676.1496         1030 
   73800   0.16076669   -7.6035585    3673.5522         1047 
   73900   0.15980618   -7.6002775    3676.0308         1035 
   74000   0.16091956   -7.6110584    3678.8068         1049 
   74100   0.15783103    -7.604533     3675.942         1096 
   74200   0.16036928    -7.591936    3666.7134         1056 
   74300   0.15818159   -7.6107115    3676.1422         1071 
   74400   0.16249554   -7.6134007    3680.0105         1068 
   74500    0.1607499   -7.6044624    3674.1222         1060 
   74600   0.16197691   -7.6028731    3670.9553         1034 
   74700   0.15796836   -7.6124151    3675.4222         1044 
   74800   0.16201098   -7.6102499    3676.1992         1069 
   74900   0.16381223    -7.603945    3672.9691         1062 
   75000   0.15808008    -7.605946    3673.7094         1061 
   75100   0.15956303   -7.6095344    3676.4177         1056 
   75200   0.16099087   -7.6063931    3676.0076         1061 
   75300   0.15805717   -7.6041446    3672.7476         1068 
   75400   0.15837159   -7.6081355    3676.3493         1035 
   75500   0.16161447   -7.6102255    3677.1213         1031 
   75600   0.15818559   -7.6062944     3673.938         1032 
   75700   0.15707609    -7.602618    3673.6074         1030 
   75800   0.16301212   -7.6067757    3675.6617         1060 
   75900   0.15559539   -7.6096554    3680.8256         1034 
   76000    0.1592089   -7.6049613    3673.0012         1035 
   76100    0.1589691   -7.5975901    3671.4533         1017 
   76200   0.16340044   -7.6059789    3677.6037         1048 
   76300   0.15844224    -7.611535    3679.5599         1040 
   76400   0.15719502   -7.6057125     3672.371         1055 
   76500   0.16050802   -7.6033488    3673.0135         1093 
   76600   0.15675841   -7.6038775    3678.6618         1066 
   76700   0.15781761   -7.6102198    3675.7023         1022 
   76800    0.1582232   -7.6041548    3673.4408         1046 
   76900   0.16289459   -7.6044393    3674.4497         1036 
   77000   0.15937322   -7.6110828    3678.7785          985 
   77100   0.15981141   -7.6079803    3674.5871          981 
   77200   0.16203664    -7.600585    3673.5201         1034 
   77300   0.16042012   -7.6122696    3675.7111         1036 
   77400   0.16146723   -7.6084114    3675.0131         1016 
   77500    0.1599412     -7.60352    3673.9067         1023 
   77600   0.15776709   -7.6086218    3675.9991         1020 
   77700   0.16265909    -7.612258     3677.267         1041 
   77800   0.16055855   -7.6015408    3672.3114         1037 
   77900   0.15778486   -7.6038751    3675.9346         1053 
   78000    0.1554846   -7.6097797    3679.5769          996 
   78100   0.16070858   -7.6072896     3675.082         1036 
   78200   0.15943435   -7.5982183    3671.8705         1018 
   78300   0.15900405   -7.6096069    3675.8518         1068 
   78400   0.16100944   -7.6138056    3677.7903         1038 
   78500   0.16013625   -7.6017955    3674.6505         1027 
   78600   0.16130853   -7.5980755    3673.7213         1018 
   78700   0.15968204   -7.6098612    3675.7959         1032 
   78800   0.15993952   -7.6152528    3676.8281         1076 
   78900   0.15932795   -7.5992733    3673.2633         1020 
   79000   0.16013116   -7.5971874    3671.7216          993 
   79100   0.15760283   -7.6154549    3680.5496         1047 
   79200   0.15969724   -7.6083748     3676.271         1052 
   79300    0.1604712   -7.6026228    3671.9971         1014 
   79400    0.1583946   -7.6067013    3676.4366         1003 
   79500   0.15758455    -7.611541    3676.0492         1002 
   79600   0.16188622   -7.6037362    3675.5523         1036 
   79700   0.16314708    -7.604416    3671.5003         1049 
   79800   0.15997822   -7.6112481    3675.4416         1004 
   79900   0.15623054   -7.6089946    3678.5231         1026 
   80000   0.16012369   -7.5991813    3672.6766         1028 
   80100   0.15673536   -7.6041687    3673.3001          991 
   80200    0.1544209   -7.6109714    3679.1187          998 
   80300     0.162435   -7.6092977    3674.5207         1038 
   80400   0.16478945   -7.6017724    3672.9377         1001 
   80500   0.16099951   -7.6073372    3674.3602         1023 
   80600   0.15647777   -7.6110541    3678.0583         1053 
   80700   0.15956826   -7.6055701    3676.4936         1057 
   80800   0.16007262   -7.5930976    3671.5539         1032 
   80900   0.16120765   -7.6077039    3674.3415         1016 
   81000   0.15960253   -7.6134427    3680.6072          999 
   81100     0.161949   -7.6066684    3675.3803         1028 
   81200   0.15834095   -7.6058253    3670.9396         1042 
   81300   0.16126768   -7.6072025    3675.2779         1050 
   81400   0.16110012   -7.6098312    3676.3386          993 
   81500   0.15825402   -7.6075761    3673.6059         1017 
   81600   0.15926026   -7.5995276    3674.6825         1019 
   81700   0.16163988   -7.6107103    3675.5684          997 
   81800   0.15855023   -7.6103768    3675.8052         1006 
   81900   0.15898471   -7.6029566    3673.1885         1038 
   82000   0.16324398   -7.6038624    3675.0181          997 
   82100   0.16215302   -7.6117658    3675.3819          998 
   82200   0.16038174   -7.6080681    3675.9879          971 
   82300    0.1605673   -7.6002345    3669.1275         1009 
   82400    0.1604866   -7.6117955      3671.87         1009 
   82500   0.16282045   -7.6131192    3680.0928          993 
   82600   0.16258929   -7.6071314    3672.9225         1053 
   82700   0.15728676   -7.6046879    3671.6487         1003 
   82800   0.15954367   -7.6117842    3677.4937         1028 
   82900   0.16001181   -7.6053942    3678.6309          997 
   83000   0.16263089   -7.6007479    3673.2049          996 
   83100   0.16075913   -7.6059529    3673.4911         1009 
   83200   0.15917886   -7.6131543    3677.6733         1040 
   83300   0.15923321   -7.6092292     3674.213         1041 
   83400   0.16279848   -7.6016859    3672.1706         1022 
   83500    0.1579206   -7.6032518     3675.766         1036 
   83600   0.15809479    -7.610839    3676.4193         1029 
   83700   0.16457602   -7.6106722    3674.0757         1042 
   83800   0.15899483   -7.6021717    3676.0718         1021 
   83900   0.15931493   -7.6129127    3673.2378         1000 
   84000    0.1590511   -7.6076465    3674.2928         1026 
   84100   0.16062773   -7.6034801    3674.2261         1075 
   84200    0.1585503   -7.6061885    3676.1467         1058 
   84300   0.15750553   -7.6120543    3676.4996         1034 
   84400   0.15988306   -7.6063873    3674.5972         1036 
   84500   0.16014852   -7.5990664    3669.5149         1016 
   84600   0.15464698    -7.613198    3675.1771         1036 
   84700   0.15787018   -7.6152405    3679.9409         1025 
   84800   0.15673454   -7.5994193    3673.3371         1016 
   84900   0.16168135   -7.5976821    3674.3648         1041 
   85000   0.16046206   -7.6071476    3677.2271         1004 
   85100   0.15850956   -7.6110066    3675.3709         1027 
   85200   0.15946632   -7.6037541    3671.4917         1042 
   85300   0.15929631   -7.6044873    3676.1302         1061 
   85400   0.15817998   -7.6114809    3676.2751         1056 
   85500   0.16038445   -7.6036889    3675.6812         1040 
   85600   0.16194886   -7.6023072    3672.6023         1009 
   85700   0.15809168   -7.6092836    3676.7524         1010 
   85800   0.15992463   -7.6127858    3679.3054          971 
   85900   0.16218317   -7.5997007    3671.2203          962 
   86000    0.1597588   -7.6050943    3669.7974         1021 
   86100   0.16078749   -7.6127222    3677.5012         1081 
   86200   0.16378083   -7.6096955    3677.0108         1078 
   86300   0.15965107   -7.6068434    3671.8604         1013 
   86400   0.15996322   -7.6059541    3672.4255          987 
   86500   0.15754365   -7.6134992     3675.258         1008 
   86600   0.15924748   -7.6093722    3675.8112         1012 
   86700    0.1604927   -7.6047614    3673.6369          991 
   86800   0.16139258   -7.6088136    3671.8621         1049 
   86900   0.16356539   -7.6101818    3677.2802         1063 
   87000   0.16026326   -7.6076839    3675.4494         1036 
   87100   0.16152618   -7.6044488     3671.377         1016 
   87200   0.15751912      -7.6092    3673.0935         1020 
   87300   0.16133553   -7.6124041       3679.9         1031 
   87400   0.15776866   -7.6065301    3675.3033         1060 
   87500   0.15628364   -7.5949298     3669.331         1048 
   87600   0.16300897   -7.6059776    3676.1623         1041 
   87700    0.1585836   -7.6109694    3679.0126         1034 
   87800   0.15928435   -7.6058066    3672.2472         1009 
   87900   0.16100399   -7.6055244    3672.1701         1026 
   88000   0.15945181   -7.6066918    3677.7866          992 
   88100   0.15992442   -7.6066014    3674.6665          998 
   88200   0.16438149   -7.6043785    3674.9215         1045 
   88300   0.15831853   -7.6061068    3674.6764         1064 
   88400   0.15928739   -7.6066048    3674.5947         1047 
   88500   0.16166828   -7.6059061    3674.5754         1024 
   88600   0.16151813   -7.6123386    3675.4035         1037 
   88700   0.15668635   -7.6083645    3674.9384         1074 
   88800   0.15963806   -7.5987492    3671.9155         1085 
   88900   0.16207136    -7.610847    3673.4969         1053 
   89000   0.15777321   -7.6130448    3678.3329         1051 
   89100   0.15937779    -7.605549    3675.3178         1041 
   89200   0.15719132    -7.604047    3671.5791         1015 
   89300   0.15871224   -7.6094024    3675.3487         1032 
   89400    0.1607153   -7.6116706    3675.2605         1081 
   89500   0.15908751   -7.6084997    3675.3352         1076 
   89600   0.16054507   -7.6007254    3673.1105         1107 
   89700   0.15970596   -7.6102337    3673.4884         1100 
   89800   0.16043382   -7.6183311    3677.9218         1061 
   89900   0.15857179   -7.6063204    3674.5325         1013 
   90000   0.15791665    -7.600315     3671.134         1031 
   90100   0.16304115   -7.6104828    3675.9971         1051 
   90200   0.15416416   -7.6119098    3678.6358         1028 
   90300   0.15984172   -7.6046597     3672.626         1020 
   90400   0.16106206   -7.6033347    3672.9575         1020 
   90500    0.1602525   -7.6078306    3676.7267         1034 
   90600   0.16061083   -7.6115072    3676.3218         1035 
   90700   0.16117352   -7.6069271    3672.1858         1025 
   90800   0.15943278   -7.6060675    3674.9787         1041 
   90900   0.15879777    -7.606703    3677.1164         1043 
   91000   0.15658466    -7.607787    3674.1089         1029 
   91100   0.15967189   -7.6057368    3674.7929         1081 
   91200   0.16278506   -7.6108537    3674.8499         1076 
   91300   0.15876145   -7.6072507    3673.5947         1032 
   91400   0.16087965   -7.6070842    3675.2081         1008 
   91500   0.15884329   -7.6067999    3679.0899         1002 
   91600    0.1611469   -7.6082703    3672.8242         1027 
   91700   0.15894357   -7.6051858    3670.7109         1037 
   91800   0.16015263    -7.607265    3678.4831         1085 
   91900   0.16319924   -7.6104708    3678.2514         1032 
   92000   0.15760562   -7.6070717    3672.8583         1087 
   92100   0.15793834   -7.6017175    3670.5727         1066 
   92200   0.16080003   -7.6068392    3676.9997         1079 
   92300   0.15655686   -7.6123399    3677.3506         1034 
   92400   0.15998099   -7.6051906    3673.1844         1053 
   92500    0.1627598   -7.6032891    3673.4165         1024 
   92600   0.16058826   -7.6138606    3676.0333         1015 
   92700   0.15746254   -7.6081123    3675.9671         1091 
   92800   0.16101349   -7.6033418    3672.8853         1069 
   92900   0.15614723    -7.606455    3673.7167         1070 
   93000   0.15897968   -7.6089505    3678.0536         1012 
   93100   0.15847715   -7.6096845    3674.6419         1032 
   93200    0.1637819   -7.6081692    3671.9972         1011 
   93300   0.16370535   -7.6051221    3673.7139         1012 
   93400   0.15974535    -7.615829    3677.3663         1035 
   93500   0.16187206   -7.6121451    3675.1659         1058 
   93600   0.16087571   -7.6023098    3670.7775         1045 
   93700   0.16021282   -7.6117319    3675.6523         1067 
   93800   0.15813105   -7.6142658    3676.5215         1049 
   93900    0.1572169   -7.6011854    3674.4055         1040 
   94000   0.15995761    -7.604169    3672.4355         1077 
   94100    0.1575308   -7.6092169    3676.8367         1060 
   94200   0.16042112   -7.6143774      3675.39         1062 
   94300   0.16004973    -7.610799    3671.9297         1055 
   94400   0.16216237    -7.603373    3671.3791         1065 
   94500   0.15973718   -7.6115578    3677.5777         1070 
   94600   0.15660988   -7.6145132    3675.2563         1111 
   94700   0.16274761   -7.6102967     3670.896         1077 
   94800   0.16204184   -7.6073616    3674.2436         1054 
   94900   0.16097754   -7.6103416    3676.3459         1044 
   95000   0.15668887   -7.6089741    3675.2106         1016 
   95100   0.16192944   -7.6048973    3673.0229         1030 
   95200   0.15906356   -7.6048902     3676.674         1054 
   95300   0.15822871   -7.6157374     3676.414         1029 
   95400   0.15928647   -7.6047803    3672.5363         1048 
   95500   0.16108471    -7.603237    3671.3084         1056 
   95600   0.15977927   -7.6146449    3679.2442         1054 
   95700   0.15963803   -7.6101161    3675.4726         1051 
   95800   0.15790066    -7.604671    3668.0882         1042 
   95900   0.16149173   -7.6094628     3674.394         1063 
   96000   0.16029303   -7.6118111    3677.9088         1023 
   96100   0.15737175   -7.6097066    3673.6273         1082 
   96200   0.16052133   -7.6077515    3672.4343         1119 
   96300   0.16061166   -7.6086969    3676.5303         1091 
   96400   0.16336124   -7.6136825    3674.6781         1054 
   96500   0.15343128   -7.6080954    3673.7942         1100 
   96600    0.1591747   -7.6090436    3673.1565         1063 
   96700   0.16083282   -7.6116776    3677.4387         1075 
   96800   0.15834604   -7.6076709    3672.4686         1100 
   96900   0.15686621   -7.6039269    3672.0329         1053 
   97000   0.16318916   -7.6157797     3678.683         1066 
   97100   0.15793639   -7.6144494    3678.9728         1071 
   97200   0.16280657   -7.6006328    3669.5341         1062 
   97300   0.16033171   -7.6044164    3671.7741         1038 
   97400   0.15876988   -7.6144814    3676.5609         1022 
   97500   0.15923597   -7.6055918    3676.9522         1059 
   97600   0.16142284   -7.6074087    3672.5588         1032 
   97700   0.15892032   -7.6085293    3672.1995         1058 
   97800   0.16072299   -7.6105051    3677.8088         1041 
   97900   0.16256137   -7.6083658    3676.2216         1063 
   98000   0.16070811   -7.6044765    3670.6798         1042 
   98100   0.15590487   -7.6072556    3673.0512         1063 
   98200   0.15917184    -7.616046    3676.0474         1109 
   98300   0.16257638   -7.6084321    3673.4719         1100 
   98400   0.16240034   -7.6033419    3671.7023         1027 
   98500    0.1569007   -7.6106871    3675.0971         1064 
   98600   0.16017067   -7.6143402    3677.8907         1045 
   98700   0.16191506   -7.6065777    3673.7745         1068 
   98800   0.15958027   -7.6044816    3665.6341         1052 
   98900   0.15634816   -7.6090937    3677.9188         1091 
   99000   0.15806574   -7.6112052    3680.4083         1098 
   99100   0.16101737   -7.6025318    3672.6846         1091 
   99200    0.1592743   -7.6077667    3671.8949         1100 
   99300   0.15889573    -7.612842    3675.9096         1059 
   99400   0.16240518   -7.6076778    3674.7722         1042 
   99500   0.15625726   -7.6032614    3673.4985         1032 
   99600   0.15992291   -7.6094701     3674.134         1036 
   99700    0.1579129   -7.6161545     3675.038         1080 
   99800   0.16231699   -7.6098288    3673.5321         1062 
   99900   0.15993992   -7.6023909    3669.9777         1117 
  100000   0.16019569   -7.6076322    3676.4297         1065 
  100100   0.16146349   -7.6154178    3679.7015         1122 
  100200   0.16126921   -7.6055073    3669.2103         1105 
  100300   0.15625387   -7.6012485    3672.2172         1059 
  100400   0.15922553   -7.6097233     3677.875         1067 
  100500   0.15702755   -7.6086185    3674.4537         1032 
  100600   0.16224482   -7.6074142    3673.7053         1028 
  100700   0.16088931   -7.6059311     3673.401         1045 
  100800   0.16173486   -7.6134173    3673.0235         1032 
  100900   0.16095615   -7.6108604    3677.7603         1034 
  101000   0.16153522   -7.6043374    3675.0897          982 
  101100   0.15809655   -7.6054009    3673.2743         1011 
  101200   0.16107575   -7.6140037    3676.4739         1001 
  101300   0.15953564   -7.6138104    3675.2033         1059 
  101400   0.16206545   -7.6007971    3670.0736         1041 
  101500   0.16204646   -7.6054114    3673.1334         1022 
  101600   0.15699959   -7.6190165    3679.7819         1035 
  101700   0.15880391   -7.6096804    3673.3938         1061 
  101800     0.158783   -7.5996106    3671.2737         1036 
  101900   0.15868581   -7.6118126    3674.5572         1065 
  102000    0.1619976   -7.6153287    3677.8398         1076 
  102100    0.1632537   -7.6017393    3672.0875         1077 
  102200   0.16194953   -7.6096423    3671.5808         1064 
  102300   0.15861781   -7.6139572    3676.2341         1034 
  102400   0.15931004   -7.6036195    3675.0633         1046 
  102500   0.16110387   -7.6074491    3673.5447         1064 
  102600    0.1594081   -7.6084109    3673.7302         1052 
  102700   0.15711528   -7.6083783     3677.554         1036 
  102800   0.16116732   -7.6107274    3674.2521         1060 
  102900   0.15606028   -7.6044946    3670.3657         1044 
  103000   0.15942968   -7.6103186    3672.7032         1064 
  103100   0.15871177   -7.6147106    3681.9073         1049 
  103200   0.15918709   -7.6120537    3672.2955         1093 
  103300    0.1564597   -7.6047896    3671.6468         1065 
  103400   0.16194888   -7.6103721    3675.2588         1096 
  103500   0.16005835   -7.6142184    3677.3536         1061 
  103600   0.15782762   -7.6081559     3673.797         1078 
  103700   0.16241474   -7.6049303    3672.4998         1101 
  103800   0.16198723   -7.6167198    3674.8134         1088 
  103900   0.16060279   -7.6141385    3675.0457         1093 
  104000   0.16169387   -7.6053206    3671.4569         1094 
Loop time of 179.46 on 24 procs for 100000 steps with 4000 atoms

Performance: 96288.821 tau/day, 557.227 timesteps/s
99.6% CPU use with 24 MPI tasks x no OpenMP threads

MPI task timing breakdown:
Section |  min time  |  avg time  |  max time  |%varavg| %total
---------------------------------------------------------------
Pair    | 22.448     | 23.547     | 24.425     |  10.4 | 13.12
Neigh   | 0.8839     | 0.90956    | 0.93621    |   1.5 |  0.51
Comm    | 7.191      | 8.2731     | 9.5582     |  19.9 |  4.61
Output  | 8.8117     | 8.8128     | 8.8252     |   0.1 |  4.91
Modify  | 133.7      | 134.83     | 136.29     |   5.8 | 75.13
Other   |            | 3.09       |            |       |  1.72

Nlocal:        166.667 ave         173 max         159 min
Histogram: 1 2 2 1 2 8 2 1 1 4
Nghost:        2265.50 ave        2283 max        2244 min
Histogram: 3 0 1 1 3 6 2 3 3 2
Neighs:        21048.2 ave       22259 max       19780 min
Histogram: 1 2 1 4 3 5 3 3 0 2
FullNghs:      42095.5 ave       43994 max       40172 min
Histogram: 2 1 3 0 5 6 2 0 2 3

Total # of neighbors = 1010292
Ave neighs/atom = 252.57300
Neighbor list builds = 2054
Dangerous builds = 0

#clear
#
#next RN
#
#jump SELF
Total wall time: 0:03:00
