
units lj                  # Use reduced LJ style units
atom_style atomic         # Uncharged point particles
atom_modify map hash      # Needed for indexing of clusters etc
                          # Used to be able to find where atoms are in relation to each other.

lattice fcc 1.0 spacing 1 1 1
Lattice spacing in x,y,z = 1.5874011 1.5874011 1.5874011
region box block 0 10 0 10 0 10 units lattice
create_box 2 box
Created orthogonal box = (0.0000000 0.0000000 0.0000000) to (15.874011 15.874011 15.874011)
  3 by 4 by 4 MPI processor grid
create_atoms 1 box
Created 4000 atoms
  using lattice units in orthogonal box = (0.0000000 0.0000000 0.0000000) to (15.874011 15.874011 15.874011)
  create_atoms CPU = 0.002 seconds
set type 1 type/fraction 2 0.55 78393
Setting atom values ...
  2215 settings made for type/fraction
mass 1 1.0
mass 2 1.0
pair_style lj/cut  3.5
pair_modify tail  yes
pair_coeff 1  1  1.0  1.0   # Intearaction between 1 and 1 set with epsilon = 1 and sigma = 1
pair_coeff 1  2  1.5  0.8
pair_coeff 2  2  0.5  0.88

write_data data.0
System init for write_data ...
Neighbor list info ...
  update every 1 steps, delay 10 steps, check yes
  max neighbors/atom: 2000, page size: 100000
  master list distance cutoff = 3.8
  ghost atom cutoff = 3.8
  binsize = 1.9, bins = 9 9 9
  1 neighbor lists, perpetual/occasional/extra = 1 0 0
  (1) pair lj/cut, perpetual
      attributes: half, newton on
      pair build: half/bin/atomonly/newton
      stencil: half/bin/3d
      bin: standard
WARNING: Not all mixed pair coeffs generated from mixing. Use write_data with 'pair ij' option to store all pair coeffs. (../write_data.cpp:312)


#############################
#   M E L T   S Y S T E M   #
#############################

velocity all create 2.4 5833274 mom yes dist gaussian # Assign velocities
                                                    # Temperature 2.4, random number seed, zero linear momentum
                                                                                # Gaussian distribution

timestep 0.002   # simulation timestep
thermo 1000       # output thermodynamic data every 1000 steps bf 100

# Define a fix  in this case with index 1 applied to all
# particles in the simulation. This fix is for simulations
# in the anisotropic NPT ensemble. Note that we use the MTK
# correction.
fix 1 all npt temp 2.4 2.4 0.1 iso 5.68 5.68 0.5 mtk yes tchain 5 pchain 5 # Use NPT ensemble
                                                                         # Set temperature and pressure and damping
                                                                         # Numbers of thermostats in chain and in barostat
run 10000          # run for 10000 steps
Per MPI rank memory allocation (min/avg/max) = 3.642 | 3.644 | 3.648 Mbytes
Step Temp E_pair E_mol TotEng Press Volume 
       0          2.4   -4.9973821            0   -1.3982821   -4.1559512         4000 
    1000    2.3674073   -4.7418803            0    -1.191657    5.7925556    3608.8215 
    2000    2.4285974   -4.7328244            0    -1.090839    5.3531424    3652.9489 
    3000    2.4357275   -4.6721751            0   -1.0194971    5.9585474    3634.9299 
    4000    2.3813459    -4.704754            0   -1.1336281    5.8971655    3627.4707 
    5000     2.426058   -4.6925965            0   -1.0544194    5.7849005     3644.453 
    6000    2.3866435   -4.6949805            0   -1.1159102    5.7745084     3632.015 
    7000    2.3932972    -4.607458            0   -1.0184097    5.8181248    3672.2025 
    8000    2.4226266   -4.6937911            0   -1.0607596    5.9196094    3628.8831 
    9000    2.4219712   -4.7509813            0   -1.1189328     5.525402    3628.1995 
   10000    2.3434999   -4.7135323            0   -1.1991614    6.0253088    3603.9385 
Loop time of 2.67796 on 48 procs for 10000 steps with 4000 atoms

Performance: 645267.979 tau/day, 3734.190 timesteps/s
99.6% CPU use with 48 MPI tasks x no OpenMP threads

MPI task timing breakdown:
Section |  min time  |  avg time  |  max time  |%varavg| %total
---------------------------------------------------------------
Pair    | 1.2033     | 1.2684     | 1.4349     |   3.7 | 47.37
Neigh   | 0.21655    | 0.22326    | 0.25346    |   1.4 |  8.34
Comm    | 0.7305     | 0.89725    | 0.98874    |   5.8 | 33.51
Output  | 0.000237   | 0.00024281 | 0.00031823 |   0.0 |  0.01
Modify  | 0.2266     | 0.27319    | 0.32985    |   6.3 | 10.20
Other   |            | 0.01556    |            |       |  0.58

Nlocal:        83.3333 ave          93 max          75 min
Histogram: 2 3 8 6 7 10 5 3 2 2
Nghost:        1756.60 ave        1782 max        1734 min
Histogram: 1 8 3 10 4 4 8 7 1 2
Neighs:        10593.5 ave       11944 max        9070 min
Histogram: 1 1 3 9 9 8 7 6 1 3

Total # of neighbors = 508488
Ave neighs/atom = 127.12200
Neighbor list builds = 905
Dangerous builds = 190

# Equilibrate just above the melting temperature to avoid step fn in T

fix 1 all npt temp 1.25 1.25 0.1 iso 5.68 5.68 0.5 mtk yes tchain 5 pchain 5
run 2000
Per MPI rank memory allocation (min/avg/max) = 3.644 | 3.646 | 3.649 Mbytes
Step Temp E_pair E_mol TotEng Press Volume 
   10000    2.3434999   -4.7135323            0   -1.1991614    6.0253088    3603.9385 
   11000    1.2755209   -6.8330079            0    -4.920205    5.5441244    2811.8042 
   12000    1.2223571   -6.8686195            0   -5.0355422    5.8210488    2791.1415 
Loop time of 0.644087 on 48 procs for 2000 steps with 4000 atoms

Performance: 536573.337 tau/day, 3105.170 timesteps/s
99.7% CPU use with 48 MPI tasks x no OpenMP threads

MPI task timing breakdown:
Section |  min time  |  avg time  |  max time  |%varavg| %total
---------------------------------------------------------------
Pair    | 0.29274    | 0.3198     | 0.35272    |   2.3 | 49.65
Neigh   | 0.040116   | 0.042658   | 0.048584   |   0.7 |  6.62
Comm    | 0.19843    | 0.23387    | 0.26542    |   3.1 | 36.31
Output  | 4.9461e-05 | 5.0823e-05 | 6.769e-05  |   0.0 |  0.01
Modify  | 0.03898    | 0.042893   | 0.046519   |   1.0 |  6.66
Other   |            | 0.004816   |            |       |  0.75

Nlocal:        83.3333 ave          91 max          74 min
Histogram: 1 1 7 3 5 15 4 3 5 4
Nghost:        2090.88 ave        2112 max        2070 min
Histogram: 1 2 5 4 12 13 4 3 1 3
Neighs:        13682.8 ave       15592 max       12017 min
Histogram: 1 3 9 6 11 7 3 4 2 2

Total # of neighbors = 656773
Ave neighs/atom = 164.19325
Neighbor list builds = 141
Dangerous builds = 10

#############################
# L I N E A R  Q U E N C H  #
#############################

# Define solid atoms. This closely follows ten Wolde  Ruiz-Montero and Frenkel  Faraday Discuss  1996  104  93-110
# Compute components of the per-atom q6 vector
compute q6 all orientorder/atom degrees 1 6 components 6 nnn NULL cutoff 1.3 # compute the Q6 parameter.
                                                                             # Use all neighbours within 1.3 unit cell.

# get number of connections
compute coord_number all coord/atom orientorder q6 0.5

# An atom is solid if it has 8 or more connections (of a possible 14)
variable is_solid atom c_coord_number>=8
group solid dynamic all var is_solid    # Must be dynamic to update
dynamic group solid defined

# do clustering
compute cluster solid cluster/atom 1.3 # Create a cluster where all atoms within are solid and max 1.3 units from another member

# define chunks one chunk per cluster
compute clus_chunks solid chunk/atom c_cluster nchunk every compress yes  # Says which atoms are in which chunk

# count the size of each chunk
compute size_chunks solid property/chunk clus_chunks count


# Find the maximum entry in the vector of chunk sizes
variable max_n equal max(c_size_chunks)


# Thermo style which includes this variable
# thermo_style custom step temp pe vol v_max_n

thermo ${N}  # Print the thermo information every 100 steps
thermo 1000  

# Reset the npt fix at a lower temperature (below freezing)
fix 1  all npt temp  ${temp} ${temp}  0.1  iso  5.68  5.68  0.5  mtk yes tchain  5  pchain  5
fix 1  all npt temp  0.45 ${temp}  0.1  iso  5.68  5.68  0.5  mtk yes tchain  5  pchain  5
fix 1  all npt temp  0.45 0.45  0.1  iso  5.68  5.68  0.5  mtk yes tchain  5  pchain  5

dump dmp2 all dcd ${N} traj.dcd
dump dmp2 all dcd 1000 traj.dcd


compute msd all msd com yes
variable twopoint equal c_msd[4]/6/(step*dt+1.0e-6)
fix 9 all vector 10 c_msd[4]
variable fit equal slope(f_9)/6/(10*dt)
thermo_style custom step temp pe c_msd[4] v_twopoint v_fit v_max_n

fix 1 all npt temp 1.25 ${temp} 0.1 iso 5.68 5.68 0.5 mtk yes tchain 5 pchain 5
fix 1 all npt temp 1.25 0.45 0.1 iso 5.68 5.68 0.5 mtk yes tchain 5 pchain 5
run 2000000 # 5000000  # Run for this many steps
Neighbor list info ...
  update every 1 steps, delay 10 steps, check yes
  max neighbors/atom: 2000, page size: 100000
  master list distance cutoff = 3.8
  ghost atom cutoff = 3.8
  binsize = 1.9, bins = 8 8 8
  4 neighbor lists, perpetual/occasional/extra = 1 3 0
  (1) pair lj/cut, perpetual
      attributes: half, newton on
      pair build: half/bin/atomonly/newton
      stencil: half/bin/3d
      bin: standard
  (2) compute orientorder/atom, occasional
      attributes: full, newton on
      pair build: full/bin/atomonly
      stencil: full/bin/3d
      bin: standard
  (3) compute coord/atom, occasional
      attributes: full, newton on
      pair build: full/bin/atomonly
      stencil: full/bin/3d
      bin: standard
  (4) compute cluster/atom, occasional
      attributes: full, newton on
      pair build: full/bin/atomonly
      stencil: full/bin/3d
      bin: standard
Per MPI rank memory allocation (min/avg/max) = 9.845 | 9.848 | 9.850 Mbytes
Step Temp PotEng c_msd[4] v_twopoint v_fit v_max_n 
   12000    1.2223571   -6.8686195 1.7960391e-30 1.2472493e-32 8.3333333e+20            1 
   13000    1.2155518   -6.9181495   0.45399856 0.0029102471   0.03703806            2 
   14000     1.267435   -6.8956043   0.88034961  0.005240176  0.035355732            1 
   15000    1.2548039   -6.8935939    1.3000415 0.0072224525  0.035639988            1 
   16000    1.2048844   -6.9345088    1.7015657 0.0088623209  0.035094392            3 
   17000    1.2366487   -6.9413866    2.1054936  0.010321047  0.034866235            3 
   18000    1.2718146   -6.9768416    2.5279327  0.011703392  0.034539914            2 
   19000     1.245826   -6.9398168    2.9683739  0.013019183  0.034656177            2 
   20000    1.2327926    -6.933998    3.3432947  0.013930394  0.034599214            2 
   21000    1.2375238   -6.9508195    3.8085106  0.015113137  0.034639265            2 
   22000     1.273331   -6.9521531    4.1808916   0.01583671  0.034650401            2 
   23000     1.249685   -6.9733703    4.6217505  0.016745473  0.034732755            2 
   24000    1.2570062   -6.9356133    4.9535275  0.017199748   0.03464074            3 
   25000    1.2557027      -6.8941    5.3110389  0.017703462  0.034368197            4 
   26000    1.2601244   -6.9141186    5.7157154    0.0183196  0.034083293            2 
   27000    1.2493927   -6.9630322    6.1171382  0.018880056  0.033886556            2 
   28000    1.2491123   -6.9832162    6.6064599  0.019662083  0.033834471            1 
   29000    1.2495949   -6.9339484    7.0685313  0.020311871  0.033981484            4 
   30000    1.2408701   -6.9075789    7.4530773  0.020702992  0.034003226            3 
   31000    1.2292012   -6.9388594    7.8472305  0.021094705   0.03402763            2 
   32000    1.2393791   -6.9446913    8.2823991  0.021568747  0.034078294            1 
   33000    1.2102686   -6.9561197    8.6941382  0.021954894  0.034189314            3 
   34000    1.2666985   -6.9972527    9.0220323  0.022112824  0.034165947            1 
   35000      1.23583   -6.9997251    9.3570301  0.022278643  0.034085337            2 
   36000    1.2263324   -6.9946603     9.774047  0.022625108  0.034011698            3 
   37000    1.2487651   -6.9693488    10.146786  0.022853121  0.033923421            1 
   38000     1.253477   -6.9202529    10.657292  0.023371255  0.033880574            6 
   39000    1.2389951   -6.9937312    10.933646  0.023362492  0.033822231            1 
   40000    1.2403219   -6.9699185    11.479867   0.02391639  0.033798415            2 
   41000    1.2406263    -6.927199    11.868935  0.024123852  0.033804179            4 
   42000    1.2331111   -6.9515445    12.205584  0.024217428  0.033786616            3 
   43000    1.2348626   -7.0090393    12.591825  0.024402761  0.033766854            2 
   44000    1.2178159   -6.9777687    13.166565  0.024936676  0.033785752            3 
   45000    1.2531365   -6.9695547    13.490527  0.024982457  0.033818461            2 
   46000    1.2425518   -6.9552338    13.971306  0.025310337  0.033835407            3 
   47000    1.2185944   -6.9368973    14.306449  0.025366044  0.033832636            3 
   48000     1.222411   -6.9750426    14.623656  0.025388291  0.033828282            2 
   49000    1.2078005   -6.9820021    14.986377  0.025487035  0.033792312            3 
   50000    1.2540689   -6.9814251    15.380743  0.025634571  0.033749193            2 
   51000    1.2617967   -6.9755952     15.81411  0.025840049  0.033723898            3 
   52000     1.208277   -6.9721504    16.229967  0.026009562  0.033706014            2 
   53000    1.2138406    -6.972431    16.658848  0.026193157  0.033698722            2 
   54000    1.2244077   -6.9541539     17.06268  0.026331295   0.03368218            1 
   55000    1.2401754   -6.9706825    17.512753  0.026534473  0.033675241            5 
   56000    1.2257476   -7.0027062    17.868503  0.026590034  0.033677458            3 
   57000     1.225471   -6.9476492    18.234299  0.026658331  0.033663428            1 
   58000    1.2412349    -6.985273    18.455253  0.026516168  0.033631891            2 
   59000    1.2398702   -7.0061179    18.875516  0.026660333  0.033592101            2 
   60000    1.2495865   -6.9240519    19.206278  0.026675387  0.033544281            1 
   61000     1.236659   -6.9379096    19.591326  0.026764107  0.033495698            4 
   62000    1.2340336   -6.9484229    19.992009  0.026870979  0.033440277            3 
   63000    1.2380693   -6.9754367    20.553568  0.027187259  0.033402557            2 
   64000    1.2194796   -6.9422848    21.075062  0.027441487  0.033396529            1 
   65000    1.2240916   -6.9579755     21.31777  0.027330474  0.033392107            3 
   66000    1.1903461   -6.9952493    21.923447  0.027681119  0.033407783            2 
   67000    1.2231308   -6.9762865    22.431465  0.027899831  0.033441758            1 
   68000    1.2223491   -7.0228239    22.908187  0.028073758  0.033477629            4 
   69000     1.202241   -7.0428431    23.207442  0.028028312  0.033516583            2 
   70000     1.182278   -7.0554039    23.808014  0.028342874  0.033553151            3 
   71000    1.2526839   -6.9798471    24.329823   0.02855613  0.033603314            7 
   72000    1.2231531   -6.9936912    24.553759  0.028418702  0.033642081            2 
   73000    1.2312292   -7.0132522    24.790542  0.028299705   0.03365735            3 
   74000    1.2158549   -7.0043586    25.182895  0.028359115  0.033655077            3 
   75000    1.2442487   -6.9745084    25.474386  0.028304873  0.033657568            2 
   76000    1.2211892     -6.98905    25.816247  0.028307288  0.033645073            3 
   77000    1.2292552   -6.9952977    26.273898  0.028434954  0.033632334            2 
   78000    1.2230326   -7.0015613      26.7473  0.028576176  0.033626798            2 
   79000    1.2289913   -7.0228847    27.200378  0.028692381  0.033630398            1 
   80000    1.2198343   -6.9806762    27.701106  0.028855319  0.033640621            2 
   81000    1.2149903   -6.9866623    28.047436  0.028855387  0.033649823            4 
   82000    1.2024117   -7.0055909    28.351122  0.028812116  0.033654827            3 
   83000    1.2452251   -7.0064939     28.82826  0.028944036  0.033660969            2 
   84000    1.2268057    -6.994357    29.235571  0.029003543  0.033670169            2 
   85000    1.2363957   -7.0249531     29.49967  0.028921245  0.033679472            2 
   86000    1.2080152    -6.994961    29.967869  0.029038632   0.03367289            2 
   87000    1.2041744   -7.0145275    30.196849  0.028924184  0.033656548            3 
   88000     1.236943   -6.9753898    30.658379  0.029032556  0.033633792            3 
   89000    1.2027735   -7.0278972    30.692648  0.028738434  0.033605318            5 
   90000    1.2144141   -6.9937591    31.179112  0.028869548  0.033569382            2 
   91000    1.2156453   -7.0674115    31.434584  0.028786249  0.033540316            3 
   92000    1.2410686    -7.024213    32.105451  0.029081025  0.033515227            2 
   93000    1.2377366   -7.0099573    32.725556  0.029323975  0.033510542            3 
   94000    1.2287037   -6.9647804    33.254578  0.029481008  0.033511592            4 
   95000    1.2078355   -6.9784405    33.528139  0.029410649   0.03351659            2 
   96000    1.2450746   -7.0273108    33.973921  0.029491251  0.033518096            1 
   97000    1.2298618   -6.9922235    34.589509  0.029716073  0.033524491            1 
   98000    1.2216273   -6.9692369     35.03443  0.029791181  0.033536408            2 
   99000    1.2116855   -6.9732234    35.398827  0.029796993  0.033547516            4 
  100000    1.2305696    -7.018815    35.830441  0.029858701  0.033570719            3 
  101000    1.2091031    -7.036529    36.064159  0.029755907  0.033582619            2 
  102000    1.2129975   -7.0369386    36.469191  0.029795091  0.033592112            2 
  103000    1.2034458    -7.007538    36.998648  0.029934181  0.033604475            2 
  104000    1.2102739    -7.046856    37.394794  0.029963777  0.033616597            2 
  105000    1.2398665   -7.0131145    37.535367  0.029789973  0.033624166            2 
  106000    1.1815417   -6.9864304    38.178899  0.030014857  0.033628852            2 
  107000    1.2178192   -6.9831756    38.623945  0.030080954  0.033635778            1 
  108000    1.2224063   -7.0250331    38.999164  0.030091947  0.033646557            1 
  109000    1.2196573   -7.0329923    39.289952  0.030038189  0.033653991            4 
  110000    1.2148106   -7.0909637    39.485032  0.029912903   0.03365369            4 
  111000     1.217397   -7.0663289     40.00762   0.03003575  0.033649112            3 
  112000    1.2010887   -7.0297038    40.489356  0.030126009     0.033654            3 
  113000    1.1834599   -6.9776705    40.977764   0.03021959  0.033657945            2 
  114000    1.2002494   -7.0804237    41.275419   0.03017209  0.033657288            3 
  115000    1.2010407   -7.0308931    41.393104  0.029995003  0.033647032            2 
  116000    1.2306116   -7.0639366    41.749734  0.029992625   0.03363214            3 
  117000    1.2034794   -7.0616022    42.107294   0.02999095  0.033614218            3 
  118000    1.2276039   -7.0382524    42.387737  0.029934842  0.033593642            2 
  119000    1.1965585   -7.0217403    42.697217  0.029900012  0.033570072            2 
  120000    1.1924503   -7.0513281    42.957171  0.029831369  0.033542853            1 
  121000    1.2221568    -7.053125     43.34647  0.029852941  0.033510255            1 
  122000     1.212714   -7.0173327    43.683479  0.029838442  0.033482508            4 
  123000    1.2106032   -6.9774935    44.110489  0.029885155  0.033454506            2 
  124000    1.2050974   -7.0446291    44.223726  0.029720246  0.033423068            3 
  125000    1.2051985   -7.0641337     44.51166   0.02967444  0.033385438            1 
  126000    1.1952246   -7.0800894    44.957407  0.029733735   0.03335039            3 
  127000     1.177742   -7.0572508    45.494622  0.029852114  0.033319357            3 
  128000    1.2281535   -7.0840774    45.759801  0.029791537  0.033288298            3 
  129000    1.2048149    -6.987499    46.233432  0.029866558  0.033258738            2 
  130000    1.2057381   -7.0644007     46.27271  0.029661994  0.033223944            2 
  131000    1.1912038   -7.0749327     46.55168  0.029613028  0.033184686            3 
  132000    1.2117921   -7.0644111    47.062972  0.029711472  0.033147588            1 
  133000    1.2027325   -7.0465432    47.227858   0.02959139  0.033109155            4 
  134000    1.1910516   -7.0759201    47.427921  0.029494976  0.033064278            2 
  135000    1.1845089   -7.0742663    47.793549  0.029502191  0.033022034            2 
  136000    1.2180163   -7.0294771    48.244161  0.029561373  0.032980712            2 
  137000    1.1931153   -7.0825079    48.549604  0.029531389  0.032937227            2 
  138000    1.2017983   -7.0615184    48.919661  0.029540858  0.032898811            2 
  139000    1.2162351   -7.0816388    49.462825  0.029653972  0.032863274            2 
  140000    1.1889998   -7.1066781    49.612982  0.029531537  0.032825533            1 
  141000    1.2013909   -7.0316308    50.277007  0.029714543  0.032789669            3 
  142000    1.1811664   -7.0595239    50.590838  0.029689459  0.032756052            4 
  143000    1.1966329   -7.0767335    50.899501  0.029661714  0.032725404            2 
  144000    1.1989265   -7.0733694    51.374133  0.029730401  0.032696898            2 
  145000    1.2026189   -7.0274943    51.952372  0.029857685  0.032670566            2 
  146000    1.1841795   -7.0365384    52.319291  0.029862609  0.032647634            2 
  147000    1.1956123    -7.056477     52.53447  0.029781446  0.032623667            2 
  148000    1.1886048     -7.08367    52.960139  0.029819898  0.032600503            2 
  149000    1.2149856   -7.1125644    53.027299  0.029657326  0.032575273            2 
  150000    1.2022545   -7.0899481    53.336807  0.029631559  0.032545668            1 
  151000    1.1948833   -7.1296659    53.551066  0.029553568  0.032514031            3 
  152000    1.2046676   -7.0874495    54.053247  0.029634456  0.032487186            3 
  153000    1.1755366    -7.028283     54.64264  0.029761787  0.032459539            5 
  154000    1.1991626   -7.0865237    54.854469  0.029683154  0.032433366            2 
  155000    1.1621812   -7.0678036    55.457646  0.029815939  0.032409574            1 
  156000    1.2138085   -7.1008607    55.869721  0.029844936  0.032389842            2 
  157000     1.188784   -7.0505379    56.331992  0.029900208  0.032372451            2 
  158000    1.2132052   -7.0420313     56.69276  0.029901245  0.032358033            3 
  159000    1.2106423   -7.0270741    56.669427  0.029700957  0.032337156            5 
  160000    1.2028503   -7.0771746    57.047256  0.029712112  0.032315042            6 
  161000     1.188204   -7.1138323    57.549202  0.029787372  0.032292545            1 
  162000    1.2165523   -7.1183068    58.064096  0.029868362  0.032271975            9 
  163000    1.1799697   -7.0494427    58.581936  0.029949865  0.032254423            3 
  164000    1.2066737    -7.101989    58.704229  0.029829385  0.032236617            2 
  165000    1.1665023   -7.0757143    59.183903   0.02989086  0.032219183            2 
  166000     1.189868   -7.0529892     59.54637  0.029892756  0.032199066            1 
  167000    1.1840948    -7.103915    59.607234  0.029744129   0.03218135            3 
  168000    1.1836843   -7.1013179    60.031584  0.029777571  0.032160863            5 
  169000    1.1847333   -7.0711119    60.658387  0.029910447  0.032142839            3 
  170000    1.1913766   -7.0889899    60.871929  0.029839181  0.032126748            1 
  171000    1.1692183   -7.0997739    60.923328  0.029689731  0.032103794            2 
  172000    1.1748461   -7.1405483    61.210909  0.029656448  0.032078256            2 
  173000     1.168467   -7.1069009    61.476923  0.029613162  0.032050648            1 
  174000    1.1664558   -7.1344716    61.779608  0.029587935  0.032021388            3 
  175000     1.207968   -7.1354189    62.125674  0.029583654  0.031992984            4 
  176000    1.1729756   -7.1122762    62.583637  0.029632404  0.031967857            2 
  177000    1.1677444   -7.1349468    62.765076  0.029550413  0.031943084            2 
  178000    1.1806927    -7.130761    63.060756  0.029522826  0.031919336            5 
  179000    1.1660207    -7.128021    63.518744   0.02957111  0.031893175            3 
  180000    1.1920156   -7.0866277    63.637575   0.02946184  0.031865346            2 
  181000    1.2004194   -7.1102716    63.916248   0.02942737   0.03183615            1 
  182000    1.1707986   -7.0945264    64.073892  0.029337862  0.031803797            2 
  183000    1.1864794   -7.1175626     64.18087  0.029226262  0.031769371            7 
  184000    1.1917491   -7.1596053    64.398722  0.029166088  0.031734612            4 
  185000    1.1721784   -7.0942395    64.818273   0.02919742  0.031698571            2 
  186000    1.1998872   -7.1191243     64.96324  0.029105394  0.031661352            2 
  187000    1.2058494   -7.1643867    64.988776   0.02896113   0.03162187            4 
  188000    1.1742351   -7.0492931    65.886586  0.029205047  0.031585562            2 
  189000    1.1667677   -7.1067483    66.253881  0.029212469  0.031552103            2 
  190000    1.1890664   -7.1134208    66.473523  0.029155054  0.031519593            2 
  191000    1.1649615   -7.0941621    66.833467  0.029159453  0.031486183            3 
  192000    1.1882071   -7.1140932    67.103364  0.029124724   0.03145216            3 
  193000    1.1607797   -7.1464671    67.505913  0.029147631  0.031420892            5 
  194000    1.1726243   -7.1256454    67.650486  0.029059487  0.031387348            4 
  195000    1.1508515   -7.1486705    67.834788  0.028989226  0.031352477            3 
  196000    1.1691332   -7.1331643    68.459046  0.029106737  0.031319408            2 
  197000    1.1812651   -7.1401496    68.874079  0.029134551  0.031288215            2 
  198000    1.1660409   -7.1428211    69.241475  0.029142035  0.031259258            4 
  199000     1.182529   -7.1244394    69.586112  0.029139913  0.031229704            2 
  200000    1.1603671   -7.1914711    69.793727   0.02908072  0.031201335            5 
  201000     1.182086   -7.1287848    70.170175  0.029092112  0.031172906            5 
  202000    1.1645484   -7.1076928     70.70822  0.029170058  0.031145062            6 
  203000     1.191493   -7.1658519    70.907442  0.029108145  0.031118769            2 
  204000    1.1663221   -7.1096783    71.241242  0.029101815  0.031091817            1 
  205000    1.2023915   -7.1417253    71.450152  0.029044777  0.031063591            1 
  206000     1.189133   -7.1474564    71.725814  0.029015297  0.031035659            1 
  207000    1.1689379   -7.1532558    72.133967  0.029039439   0.03100767            4 
  208000     1.153651   -7.0915113    72.844877  0.029184646   0.03098085            2 
  209000    1.2040691   -7.1199828    72.723665  0.028996677   0.03095321            3 
  210000    1.1728174   -7.1148623    73.005966  0.028970621  0.030925146            2 
  211000    1.1702699   -7.2032344    73.155997  0.028892574  0.030896378            3 
  212000    1.1542224   -7.1538774    73.873415  0.029038292  0.030866837            2 
  213000    1.1829478   -7.1553296    74.100815  0.028990929  0.030838567            4 
  214000    1.1642576   -7.1503124    74.182267  0.028887176  0.030810658            3 
  215000    1.1709671   -7.1055564    74.460411  0.028860624  0.030781744            1 
  216000    1.1532116    -7.145389    74.767746  0.028845581   0.03075366            2 
  217000    1.1936111   -7.1628086     75.05256  0.028822027  0.030725689            2 
  218000    1.1907885   -7.1477194     75.38938   0.02881857  0.030698432            2 
  219000    1.1648587   -7.1694839    75.846037  0.028860745  0.030669979            3 
  220000    1.1567274   -7.1589674     76.24336  0.028880061  0.030642435            3 
  221000    1.1695706   -7.1467809    76.519798  0.028853619  0.030615132            4 
  222000    1.1735544    -7.140287    76.623894  0.028762723  0.030589208            2 
  223000    1.1922489    -7.148464    76.997925  0.028773514  0.030561787            2 
  224000    1.1846357   -7.1550656    77.097817  0.028682224  0.030533977            3 
  225000    1.1647711   -7.1478556    77.610295  0.028744554  0.030505537            3 
  226000    1.1621935   -7.1230251    77.981115  0.028754098  0.030476421            3 
  227000    1.1827722   -7.1696736    78.259444  0.028729605  0.030449326            5 
  228000    1.1520377   -7.1702477    78.470892  0.028680881  0.030422621            1 
  229000    1.1603871   -7.1567973    79.022789  0.028756474  0.030395667            2 
  230000    1.1619946   -7.1211067    79.177752  0.028687591  0.030370555            2 
  231000    1.1777006   -7.1090193    79.527597  0.028689609  0.030345162            3 
  232000    1.1516652   -7.1267127     79.72223  0.028635858  0.030320059            2 
  233000    1.1710168   -7.0990516    80.033592  0.028624318  0.030294752            2 
  234000    1.1311727   -7.1922875    80.197191  0.028560253  0.030267739            1 
  235000    1.1790731   -7.2206666    80.769525  0.028641676  0.030241455            3 
  236000    1.1681086   -7.1871431    81.084113  0.028631396  0.030216582            2 
  237000     1.177356   -7.1445573    81.687205  0.028722646  0.030192531            2 
  238000      1.15811   -7.1798745    81.673994  0.028597337  0.030167893            4 
  239000    1.1441144   -7.1511817    82.159709  0.028647039  0.030143247            1 
  240000    1.1592904   -7.1916154    82.084549  0.028501579  0.030118774            3 
  241000    1.1519585   -7.2065631    82.415536  0.028497765   0.03009427            2 
  242000    1.1777581   -7.1768507    82.817879  0.028518553  0.030069013            6 
  243000     1.156637   -7.1956073    82.898608  0.028428878  0.030042434            1 
  244000    1.1796723   -7.1753698    83.472183  0.028508259  0.030018613            3 
  245000    1.1709962   -7.1435836    84.011394  0.028575304  0.029996126            3 
  246000    1.1366091   -7.1450354    84.312665  0.028561201  0.029973624            2 
  247000    1.1470395   -7.1569255    84.502296  0.028509546  0.029951818            2 
  248000    1.1562028   -7.1511285    85.147485  0.028611386  0.029930096            1 
  249000    1.1449321   -7.1902674    85.272395  0.028538285  0.029909764            2 
  250000    1.1464686   -7.2272308    85.488305  0.028496102  0.029888611            2 
  251000     1.151562   -7.1776584    86.024919   0.02856073  0.029868183            2 
  252000    1.1829995   -7.2233752    86.383175  0.028565865   0.02984787            4 
  253000    1.1416243   -7.1865831    86.695386  0.028555793  0.029827722            1 
  254000    1.1478692   -7.2440807    87.146823  0.028591477  0.029808413            4 
  255000    1.1569869   -7.1210506    87.751956   0.02867711  0.029790312            1 
  256000    1.1508918   -7.1689445     87.92536  0.028621536  0.029773056            2 
  257000    1.1357387   -7.1503364    88.053476  0.028551711  0.029754773            3 
  258000    1.1481069   -7.1497136    88.482137  0.028579501  0.029735477            4 
  259000    1.1512666   -7.1358057    88.714649  0.028543967  0.029717713            3 
  260000    1.1666766   -7.1857249     89.31518   0.02862666  0.029701227            3 
  261000    1.1401591   -7.1783478    89.636328  0.028619517  0.029683849            6 
  262000    1.1474764   -7.1384655    90.034272  0.028636855  0.029668764            4 
  263000     1.138282   -7.1790589    90.223514  0.028587932  0.029653993            7 
  264000    1.1611048   -7.1594532    90.857892   0.02867989  0.029639064            3 
  265000    1.1500195   -7.1808626    91.126348  0.028656084  0.029625478            3 
  266000    1.1797052   -7.2174777    91.342385  0.028616035  0.029611592            3 
  267000    1.1451931   -7.2328616    91.454855  0.028543962  0.029596171            1 
  268000    1.1387715   -7.2260848     91.64297  0.028495948  0.029581089            4 
  269000    1.1473727   -7.1674811    92.256582  0.028580106  0.029566033            3 
  270000     1.127136   -7.1949486    92.371895  0.028509844  0.029550026            4 
  271000    1.1316818   -7.2071179    92.450954  0.028428953  0.029534398            4 
  272000    1.1579815   -7.2067385    92.691422  0.028398107  0.029518724            4 
  273000    1.1662863   -7.2004326    93.205342  0.028450959  0.029500991            3 
  274000    1.1448667   -7.2025501    93.257577   0.02836301  0.029484321            2 
  275000    1.1569455   -7.2134041     93.44903  0.028317888  0.029467241            2 
  276000    1.1503826   -7.2156117    93.730351  0.028300227  0.029447859            1 
  277000    1.1379712   -7.2066793    93.708056  0.028191352  0.029429643            3 
  278000     1.147425   -7.2146214    94.645181  0.028370858  0.029411765            2 
  279000    1.1527474   -7.1882571    95.009682  0.028378041  0.029394874            4 
  280000    1.1324379   -7.2403631     94.87268  0.028235917  0.029377392            2 
  281000    1.1226821   -7.2452569    95.339281  0.028273808  0.029359309            2 
  282000     1.130996   -7.2461362    95.748648  0.028294518  0.029341618            4 
  283000    1.1366543   -7.1782513    96.308667  0.028359443  0.029324839            2 
  284000    1.1506652   -7.2377266    96.043359  0.028181737  0.029306417            9 
  285000    1.1480455   -7.2248761    96.746557  0.028288467  0.029288617            4 
  286000     1.121529    -7.176959    97.324064  0.028357827  0.029272306            1 
  287000    1.1493616   -7.2352683    97.327586  0.028260042  0.029256951            4 
  288000    1.1278629   -7.2492647    97.899766  0.028327478  0.029240856            7 
  289000    1.1632485   -7.2074003    98.356232  0.028361082  0.029225227            2 
  290000    1.1363761   -7.2360126    98.391858  0.028273522  0.029210677            4 
  291000    1.1313026   -7.2704732    98.052228  0.028079103  0.029193478            9 
  292000    1.1362392   -7.1985924    98.372685  0.028074396  0.029175494            3 
  293000    1.1497749   -7.2033436    98.827825  0.028108027  0.029156977            5 
  294000    1.1342776   -7.2065354    99.178167  0.028111725  0.029138137            4 
  295000    1.1267788    -7.244026    99.258767    0.0280392  0.029119336            3 
  296000    1.1468808   -7.2133813    99.782708  0.028091979  0.029100588            3 
  297000    1.1460426   -7.2332626     99.75656  0.027990056  0.029080913            5 
  298000    1.1248978   -7.2402378     100.1194  0.027997596  0.029062614            3 
  299000    1.1275348   -7.1590917    100.76623  0.028084234  0.029043646            3 
  300000    1.1426344   -7.2570737    101.04804  0.028068899  0.029026863            3 
  301000    1.1353378   -7.1877905    101.30778  0.028047557  0.029010636            1 
  302000    1.1250108   -7.2179461    101.61176  0.028038565   0.02899309            3 
  303000     1.129529   -7.2357628    101.88103  0.028020084  0.028975554            2 
  304000    1.1367569   -7.2725979    102.14157  0.027999335  0.028958701            6 
  305000    1.1237789   -7.2376697     102.1253  0.027903086  0.028940242            4 
  306000    1.1404019   -7.2224385    102.39868  0.027886351  0.028921613            7 
  307000    1.1231267   -7.2192614     102.5087   0.02782538  0.028902283            3 
  308000    1.1304279   -7.2030698    103.12775  0.027902529  0.028883742            2 
  309000    1.1273531   -7.2068883    103.00147  0.027778173  0.028864992            3 
  310000    1.1217316    -7.263942    103.22736   0.02774929  0.028845601            6 
  311000    1.1380403   -7.2415908    103.55038  0.027746618   0.02882557            2 
  312000    1.1476561   -7.2399703    104.20199  0.027831729  0.028805414            2 
  313000    1.1436911   -7.2378195    103.97342  0.027681954  0.028785456            2 
  314000    1.1203753   -7.2439907    104.39513  0.027705714  0.028763964            5 
  315000    1.1101654   -7.2499238     104.2858  0.027588837  0.028742419            2 
  316000    1.1443196   -7.2583904    104.73053   0.02761881  0.028720702            2 
  317000    1.1500547   -7.2437843    104.94674  0.027588524  0.028698942            3 
  318000    1.1113752   -7.2887555    105.37078  0.027612888  0.028676687            3 
  319000    1.1460653   -7.2684233    105.30849  0.027510054  0.028653789            6 
  320000    1.1138931   -7.2618449    105.38036  0.027442802  0.028630247            1 
  321000    1.1210304   -7.2079388    105.85103    0.0274795   0.02860737            2 
  322000    1.1258377   -7.2496561    106.01234  0.027435905  0.028585812            5 
  323000     1.122677   -7.2707248    106.57724  0.027496707  0.028563374            2 
  324000    1.1586875   -7.2589617    106.50745  0.027393892  0.028540268            3 
  325000    1.1362006   -7.2290563    106.62321  0.027339285  0.028516311            2 
  326000    1.0889681   -7.1982499    107.55225  0.027492906  0.028493085            3 
  327000    1.1449826     -7.30099    107.58988   0.02741842  0.028471713            3 
  328000    1.1086331   -7.2696216    107.67285  0.027355907  0.028449164            3 
  329000     1.128943   -7.3078964    107.98592  0.027352056  0.028426645            3 
  330000     1.123877   -7.2460515    108.23609  0.027332346  0.028403016            3 
  331000    1.1280869   -7.2527951    108.27159  0.027258709  0.028380134            5 
  332000    1.1365686   -7.2728896    108.29294  0.027181963  0.028357597            7 
  333000    1.1297714   -7.2878041    108.85619  0.027241289  0.028334336            2 
  334000    1.1180461   -7.3311785    109.21651  0.027249628  0.028312062            4 
  335000    1.1265467   -7.2745949    109.74555  0.027299889  0.028290808            3 
  336000    1.1106689   -7.2476733    109.65499  0.027196178  0.028269434            2 
  337000    1.1163022   -7.2575141     109.9865  0.027197452  0.028247696            2 
  338000    1.1151613   -7.2651287    110.09272  0.027143176  0.028226181            2 
  339000    1.1119791   -7.2780699    110.45254  0.027151558  0.028204951            7 
  340000    1.1345566   -7.2796937    110.60803   0.02710981  0.028183235            4 
  341000    1.1370462   -7.2306742     111.6091  0.027274951  0.028162405            4 
  342000    1.1260103   -7.2767999    111.73574  0.027226057  0.028142385            4 
  343000    1.1308241   -7.2371286    112.16252  0.027250369  0.028123054            3 
  344000    1.0972743   -7.2899538    111.99019  0.027129407  0.028102942            2 
  345000    1.1325989    -7.266442    112.53371  0.027182056  0.028083426            2 
  346000    1.1364674    -7.268563    113.02045  0.027220726   0.02806426            3 
  347000    1.1179596     -7.27049    112.79363  0.027087807  0.028044658            2 
  348000    1.1042423   -7.3104283     113.4136  0.027158429  0.028024878            8 
  349000    1.1391909   -7.2945691    113.73731  0.027157905  0.028006035            2 
  350000    1.1192882   -7.2801979    114.18823  0.027187673  0.027986948            2 
  351000    1.1414864   -7.2787326    114.31928   0.02714133  0.027968147            1 
  352000    1.1190994   -7.2722603    114.75326  0.027166964  0.027949902            6 
  353000    1.0939701   -7.2396672    115.32164  0.027224183  0.027932154            2 
  354000    1.1292936   -7.3168678    115.04902  0.027083103  0.027914609            2 
  355000     1.127664   -7.3217797    115.67131  0.027152889  0.027897081            3 
  356000     1.108673   -7.2543247    115.76871  0.027099417  0.027878881            3 
  357000    1.0915794   -7.2558181    116.35461  0.027160273   0.02786167            2 
  358000    1.1008519   -7.2952358    116.15794  0.027038626  0.027843709            3 
  359000    1.1001044   -7.3060682    116.19709  0.026972397  0.027825107            2 
  360000    1.1272664   -7.2587763    116.56324  0.026982232  0.027806606            3 
  361000    1.1013164   -7.2923131    116.95768  0.026998542  0.027787699            3 
  362000    1.1141738   -7.2872742      117.159  0.026970305  0.027768169            2 
  363000    1.1374818   -7.3161742    117.47175  0.026967803  0.027749675            3 
  364000    1.1013236   -7.3055201    117.75991  0.026959685   0.02773232            4 
  365000    1.1027682   -7.2995441    118.55595  0.027067569   0.02771495            3 
  366000    1.1142186    -7.343076    118.72115  0.027031228  0.027697329            3 
  367000    1.1064147   -7.3338895    118.67403  0.026946873  0.027680127            2 
  368000    1.1192913   -7.2940692    119.38788  0.027035299  0.027662937            5 
  369000     1.128021   -7.2993943    119.27524  0.026936595  0.027645932            4 
  370000    1.0951028   -7.3046586    119.61185  0.026939605  0.027628043            2 
  371000    1.1046112   -7.3484062    119.56313  0.026856049  0.027609702            3 
  372000     1.119235   -7.3043753    119.89878  0.026859046  0.027592188            3 
  373000    1.1110077   -7.2939191    120.23668   0.02686253  0.027574503            3 
  374000    1.0747383   -7.3578586    119.99832  0.026737593  0.027556453            3 
  375000    1.1126506   -7.3328598    120.66433  0.026814296   0.02753732            4 
  376000    1.0776151   -7.3571507    120.67904  0.026746241  0.027518372            5 
  377000     1.111054   -7.3552034    121.00456   0.02674725  0.027499296            2 
  378000    1.1175022   -7.3573102    121.71202  0.026832455  0.027479958            2 
  379000     1.109047   -7.3405081    121.66618  0.026751579  0.027461365            3 
  380000    1.0810316   -7.3453929    121.85846  0.026723346  0.027442664            3 
  381000    1.1015844   -7.3378088    122.31675  0.026753445  0.027424338            5 
  382000    1.1019711   -7.2890224    123.01123   0.02683491  0.027406499            2 
  383000    1.0936624   -7.3198905    122.87763  0.026735777  0.027389164            2 
  384000    1.0937846   -7.3377735    122.63848  0.026614254  0.027372015            6 
  385000    1.1046069   -7.2734973    123.77376  0.026790857  0.027354326            3 
  386000    1.0867869   -7.3106022    123.41284  0.026643531  0.027336445            3 
  387000     1.104221   -7.3359978    123.32238  0.026555206  0.027318628            2 
  388000      1.10589   -7.2999771    124.05495  0.026644103  0.027301407            3 
  389000    1.0860103   -7.3420388     124.3772  0.026644645  0.027283121            5 
  390000    1.1213581   -7.3147468    124.43219  0.026588074  0.027264455            4 
  391000    1.0791725   -7.3305129     124.6643  0.026569543  0.027245725            4 
  392000    1.1189235   -7.3254381    124.77927  0.026526206  0.027226727            2 
  393000    1.0948938   -7.3083824    125.25102   0.02655874  0.027207828            4 
  394000    1.0924913   -7.3053862      125.502  0.026544417  0.027189317            5 
  395000     1.087182   -7.3122478    125.22038  0.026417802  0.027170718            1 
  396000    1.0869832   -7.2728348    126.13161  0.026542847  0.027151959            7 
  397000    1.0842755   -7.3606145    125.36271   0.02631459  0.027133389            7 
  398000    1.0928473   -7.3079578    126.31002  0.026446821  0.027114535            2 
  399000    1.0800812   -7.3285846    126.43084  0.026405773  0.027096326            5 
  400000     1.093448   -7.3403761    126.53681  0.026361835  0.027077361            3 
  401000    1.1105268   -7.4048341     126.1926  0.026224564  0.027058058            3 
  402000    1.0877051   -7.3504957    126.40061  0.026202448   0.02703817            7 
  403000    1.1036182   -7.3717943    126.78143  0.026216176  0.027017906            3 
  404000    1.1078022   -7.3404605    126.89791  0.026175312  0.026997961            3 
  405000    1.0702414   -7.3449736    127.38892  0.026211712  0.026977815            3 
  406000      1.09056   -7.3348809     127.8475  0.026241277  0.026957842            2 
  407000    1.0852481   -7.3280159    127.85548  0.026178435  0.026937512            2 
  408000     1.121857   -7.3580142    127.80097  0.026103138  0.026917323            4 
  409000    1.0868839   -7.3950985    127.92752  0.026065101  0.026896153            2 
  410000    1.0906718   -7.3563049    128.55746  0.026129564  0.026875157            5 
  411000    1.0628954   -7.3573207    128.39955  0.026033972  0.026854474            2 
  412000    1.0939362   -7.3577004    128.90049  0.026072106   0.02683365            1 
  413000    1.0811732   -7.4008059    128.74863  0.025978336  0.026812244            3 
  414000    1.1050605   -7.3748251    129.24239  0.026014973  0.026791498            3 
  415000    1.1021641   -7.3942346    129.35279  0.025974456  0.026770913            3 
  416000    1.0738158   -7.3288054     130.1803  0.026077784  0.026750665            1 
  417000    1.1059666   -7.3757704    129.68691  0.025916649  0.026730274            2 
  418000    1.0794573   -7.3563803    130.02665  0.025922379  0.026709957            2 
  419000    1.0863545   -7.3416966    130.30256  0.025915386  0.026688871            1 
  420000     1.083257   -7.3474965    130.51575  0.025895982  0.026668161            3 
  421000    1.0709599   -7.3913961    130.52536  0.025836373  0.026646351            6 
  422000    1.0948052   -7.3959157     130.2757  0.025725849  0.026624245            4 
  423000    1.0928783    -7.361688    130.63607  0.025736027  0.026601816            3 
  424000    1.0747082   -7.4290308    130.59664  0.025667579  0.026579567            7 
  425000    1.0928845   -7.3386291    131.53708  0.025791583  0.026557359            4 
  426000    1.1003875   -7.3324865    131.58064  0.025739563  0.026534628            2 
  427000    1.0805142   -7.3954961    131.53895  0.025671145  0.026512785            2 
  428000    1.0603766   -7.3585613    131.56346  0.025615938  0.026490505            4 
  429000    1.0932511   -7.3487006    132.35023  0.025709058  0.026468743            3 
  430000      1.08453    -7.361235    132.92208  0.025760093  0.026447993            7 
  431000    1.0613908   -7.4054722      132.776   0.02567208  0.026427272            2 
  432000    1.0837493   -7.4102189    132.91537  0.025639539  0.026406433            3 
  433000    1.0867516   -7.3725441    133.32268  0.025658715  0.026385264            4 
  434000    1.0744656   -7.3641067    133.49248  0.025632197  0.026364553            2 
  435000    1.0753795   -7.4212296    133.58928  0.025591816  0.026344467            2 
  436000    1.0889742   -7.3932585    133.93841  0.025599848  0.026324711            2 
  437000    1.0757554   -7.4182777    133.82114  0.025518905  0.026304166            3 
  438000    1.0718506   -7.4179298    134.08592   0.02551102  0.026283378            3 
  439000    1.1030481   -7.4091563    134.32028  0.025497397  0.026262945            2 
  440000    1.0574274   -7.3842697     134.7579   0.02552233  0.026242472            5 
  441000    1.0780528    -7.370388    135.11058  0.025531099  0.026222394            2 
  442000    1.0874052   -7.4129151    135.34974  0.025518428  0.026202509            4 
  443000    1.0748935   -7.3856556    135.54652   0.02549784   0.02618263            7 
  444000    1.0847916   -7.4409834    135.39371  0.025411732  0.026162028            4 
  445000    1.1100466   -7.4351581    136.31589  0.025527319  0.026142179            3 
  446000    1.0684717   -7.4134458    136.29305  0.025465817  0.026122753            4 
  447000    1.0882791   -7.3866662    136.48927  0.025445427  0.026102936            3 
  448000    1.0958958   -7.3829401    136.99299  0.025482327  0.026083471            8 
  449000    1.1037505   -7.3002377    137.75304  0.025566637  0.026064767            3 
  450000    1.0664555   -7.4038045    137.11669   0.02539198  0.026045762            4 
  451000    1.0636273   -7.3871629    137.42904  0.025393393  0.026026181            3 
  452000    1.0676687   -7.4209327    137.78201  0.025402287  0.026006358            7 
  453000    1.0415473   -7.4085465    137.81653  0.025352562  0.025986389            5 
  454000    1.0793154   -7.3999634    137.99043   0.02532864  0.025966365            2 
  455000     1.074515   -7.4019589    138.47996   0.02536263  0.025946874            2 
  456000    1.0717623   -7.4139469    138.38438  0.025289544  0.025927266            3 
  457000    1.0772925   -7.4229097    138.50355  0.025255936   0.02590715            2 
  458000     1.059793   -7.3875612    138.77212  0.025249658  0.025887294            2 
  459000    1.0936187   -7.4130389     138.5512   0.02515454  0.025866743            3 
  460000    1.0726697   -7.3949705    139.41574  0.025256474  0.025846747            3 
  461000    1.1094913   -7.4223186    139.52843  0.025222058  0.025826761            2 
  462000    1.0611899   -7.4212246    139.52059  0.025166051  0.025806713            5 
  463000    1.0615519   -7.3985099    139.98645  0.025195545  0.025786992            5 
  464000    1.0773213   -7.4112875    139.76586  0.025101627   0.02576718            3 
  465000     1.084972   -7.4638492    139.82487   0.02505822  0.025746815            5 
  466000    1.0570573   -7.3784384    140.60167  0.025143361  0.025726674           11 
  467000     1.051215   -7.4121924    140.73664  0.025113605  0.025707158            3 
  468000    1.0441579   -7.4403267    140.58117   0.02503226   0.02568761            5 
  469000    1.0603715   -7.4038038    141.55318  0.025151595  0.025668282            8 
  470000    1.0582565    -7.398088    141.97464  0.025172808  0.025649068            2 
  471000    1.0937445   -7.4391792    141.87033  0.025100907  0.025630095            5 
  472000    1.0728173   -7.4414052    142.23098  0.025111402  0.025611058            2 
  473000    1.0442408   -7.4490473    142.84399  0.025166313  0.025592299            4 
  474000    1.0516481   -7.3740612    142.80184  0.025105809  0.025574406            4 
  475000    1.0708525   -7.4131537    142.77441  0.025048143  0.025556401            3 
  476000    1.0732017   -7.3900159    143.35097  0.025096459  0.025538525            3 
  477000    1.0620219   -7.4453412    143.01281  0.024984767  0.025519834            4 
  478000    1.0782635   -7.4044851    143.71601  0.025055093  0.025501109            3 
  479000    1.0344368   -7.4513585    143.44172  0.024955066  0.025481999            3 
  480000    1.0538162   -7.4647752    143.08964  0.024841952  0.025462139            8 
  481000    1.0675182   -7.4485206    143.66219    0.0248895  0.025442795            2 
  482000    1.0392171   -7.4285341    143.88699  0.024876728  0.025423262            7 
  483000    1.0615702   -7.4356752    143.72033  0.024796469  0.025404041            8 
  484000    1.0591656   -7.3951613    144.79989   0.02493111  0.025385442            6 
  485000    1.0460095   -7.4405945    144.74355  0.024870026  0.025367485            4 
  486000    1.0704239   -7.3862604    145.70855   0.02498432   0.02534953            4 
  487000    1.0370153   -7.4101539    145.02215  0.024815563  0.025331267            3 
  488000    1.0716605   -7.4122953    145.34081  0.024819127  0.025312827            4 
  489000     1.061828    -7.417445    145.98269  0.024877759  0.025294391            2 
  490000     1.050491   -7.4566456      145.468  0.024739456  0.025276084            2 
  491000    1.0324863   -7.4346146    146.21344  0.024815587  0.025257844            2 
  492000    1.0571086   -7.4064166    146.71439  0.024849998  0.025239523            3 
  493000    1.0730361   -7.4360419    146.74633  0.024804992  0.025221421            3 
  494000    1.0395486   -7.4292865    146.87431  0.024776368  0.025203381            4 
  495000    1.0810953   -7.4719235    147.00786  0.024748798  0.025185378            2 
  496000    1.0612237   -7.4074089    147.38257  0.024761857  0.025167655            5 
  497000    1.0568463   -7.4441933    147.57873  0.024744924  0.025149851            5 
  498000    1.0575221   -7.4256967    147.71381   0.02471784  0.025131788            4 
  499000    1.0371289   -7.4138032    147.93026  0.024704452  0.025113569            4 
  500000     1.066319   -7.4346562    148.10797  0.024684662  0.025095865            3 
  501000    1.0683589    -7.495018    148.36218  0.024677675  0.025077907            3 
  502000    1.0575776   -7.4657618     148.4763  0.024647459  0.025059873            3 
  503000    1.0459326   -7.4462379    149.09311  0.024700648  0.025042007            4 
  504000    1.0595196   -7.4071627    149.56758  0.024730089  0.025024838            3 
  505000    1.0637241   -7.4456056    149.01637   0.02459016  0.025007554            7 
  506000    1.0518177   -7.4553678    148.94058  0.024529081  0.024989564            7 
  507000    1.0411555   -7.4438943     149.3096  0.024541354  0.024971629            7 
  508000      1.03491   -7.4711793    149.63572  0.024546542  0.024953284            3 
  509000    1.0464798    -7.464122    149.47902  0.024472663  0.024935397            2 
  510000    1.0401464   -7.4831591    149.82338  0.024480945  0.024917116            4 
  511000    1.0458124   -7.5100741    149.67153  0.024408273  0.024898771            3 
  512000    1.0367305    -7.497943    150.14321  0.024437372  0.024880141            2 
  513000    1.0550646   -7.5034691    150.06986   0.02437782   0.02486144            2 
  514000    1.0468024   -7.4720052    150.29998  0.024367701  0.024842425            3 
  515000    1.0330381   -7.4728087     150.4964  0.024352169  0.024823576            3 
  516000    1.0769721   -7.4882764    150.51305  0.024307663  0.024804875            3 
  517000    1.0504287   -7.4593137    150.74748  0.024298433  0.024786058            6 
  518000    1.0514165   -7.4659551    151.29986   0.02434039  0.024767441            3 
  519000    1.0614714   -7.3796598    152.30406  0.024454731   0.02474945            6 
  520000     1.071146   -7.4566425     151.3994  0.024262724  0.024731397            6 
  521000    1.0564919   -7.4937045    151.48839  0.024230388  0.024713107            3 
  522000    1.0555877   -7.4909715     152.3849  0.024327091  0.024694219            6 
  523000    1.0369653   -7.4767697    152.30028  0.024267094  0.024675945            3 
  524000    1.0748645   -7.4509891    152.33038   0.02422557  0.024657439            5 
  525000    1.0615553   -7.4575451    152.74059  0.024244537  0.024639147            5 
  526000    1.0470429   -7.5036997    152.98071  0.024236488  0.024621046            4 
  527000    1.0536471   -7.4843494    153.33171  0.024246002  0.024603067           15 
  528000    1.0369189   -7.4164903    153.57492  0.024238466  0.024585145            1 
  529000    1.0521276   -7.4923627    153.94099  0.024250314  0.024566946            4 
  530000    1.0298101   -7.4882216    153.47802  0.024131764  0.024548753            2 
  531000    1.0493479   -7.5042951    153.88884  0.024150791  0.024530876            4 
  532000    1.0301273   -7.5393508    153.52816  0.024048896  0.024512523            3 
  533000    1.0457486   -7.5083283    154.05278  0.024085801  0.024494064            5 
  534000    1.0263894   -7.5175306    154.01627  0.024034998  0.024475405            3 
  535000    1.0453172   -7.4666134    154.81545  0.024114556  0.024457248            3 
  536000     1.028435   -7.4703749    154.69425  0.024050723  0.024439024            4 
  537000     1.007525   -7.4829576    154.47124  0.023971329   0.02442018            2 
  538000    1.0292618   -7.4997076    154.89339   0.02399216  0.024401499           14 
  539000     1.001823   -7.4731641    154.83165  0.023938103  0.024382903            4 
  540000    1.0263236   -7.4491201    154.93023  0.023908985  0.024363695            4 
  541000    1.0572479   -7.4794078    154.82349   0.02384835  0.024344894            3 
  542000    1.0463262   -7.5266517    154.63346  0.023775132  0.024325591            4 
  543000    1.0419454   -7.4931111    155.24759  0.023825597  0.024306092            4 
  544000    1.0331838   -7.4923711     155.4866  0.023818413  0.024287033            5 
  545000    1.0293304   -7.5184432    155.14523  0.023722512  0.024267825            4 
  546000    1.0710306    -7.504454    155.70071  0.023763844  0.024248249            4 
  547000    1.0119184   -7.4955352    156.01959   0.02376898  0.024229085            5 
  548000    1.0418387   -7.4923622    156.26623  0.023763113  0.024209855            2 
  549000    1.0098689   -7.5304458    156.45607  0.023748645  0.024190691            3 
  550000    1.0290481   -7.5232175    156.29151  0.023680532  0.024171554            5 
  551000    1.0398626    -7.525902    156.44085   0.02366014  0.024152018            2 
  552000    1.0565442   -7.5548157    156.34889  0.023603395  0.024132466            5 
  553000    1.0185563   -7.5055824    157.15692  0.023682477  0.024113251            4 
  554000    1.0276237   -7.5190001    156.79855  0.023585823  0.024094211            9 
  555000    1.0467612   -7.5004142    157.72891  0.023683019  0.024075347            3 
  556000    1.0102176   -7.5192398    158.03408  0.023686163  0.024056273            5 
  557000    1.0315754   -7.5010928    158.12593  0.023657381  0.024037712            5 
  558000    1.0295799   -7.5298772    157.84098  0.023572428  0.024018934            3 
  559000    1.0303313   -7.5326013    157.72043  0.023512288   0.02399988            3 
  560000    1.0220003   -7.5141925    158.57664  0.023597715  0.023980657            7 
  561000     1.036674   -7.5352877    158.56247  0.023553546  0.023961673            3 
  562000    1.0335678   -7.5461296    158.61626  0.023519612  0.023942792            3 
  563000    1.0164848   -7.5531874    158.54837  0.023467788  0.023923855            2 
  564000     1.014617   -7.4990584    159.31895  0.023540034  0.023905238            1 
  565000    1.0621202   -7.5230859    159.41757  0.023512916  0.023886911            6 
  566000    1.0302767   -7.4984241    159.58024  0.023495324  0.023868515            3 
  567000     1.033684   -7.5211241    160.05208  0.023523234  0.023850109            7 
  568000    1.0142456   -7.5144148    159.98318  0.023471711  0.023831934            8 
  569000    1.0089526   -7.5135226    160.69891  0.023535283  0.023814098            6 
  570000    0.9973788   -7.4808621    161.01987  0.023540917  0.023796644            4 
  571000    1.0252266   -7.5023024    160.34494  0.023401188  0.023778621            6 
  572000    1.0174591   -7.4966173    161.46663  0.023523693  0.023760234            5 
  573000    1.0201091   -7.5606955    160.65405  0.023364464  0.023741441            4 
  574000    1.0277211   -7.5623952    160.70315  0.023330887  0.023722799            3 
  575000    1.0296846   -7.5736413    160.50592  0.023261728  0.023704602            5 
  576000   0.99947633    -7.570809    160.79989  0.023263874  0.023685765            3 
  577000    1.0304511   -7.5681323    160.91445    0.0232401  0.023666886            4 
  578000    1.0319967   -7.5416868    161.55973  0.023292925  0.023648107            4 
  579000    1.0346579   -7.5773294    161.38246  0.023227181  0.023629324            5 
  580000     1.043144    -7.537644    161.68625  0.023230784  0.023610716            3 
  581000    1.0326787   -7.5483594    162.03829  0.023241292   0.02359212            6 
  582000    1.0504653   -7.5299687    162.45938  0.023261652  0.023573849            8 
  583000    1.0233776   -7.5710314    162.21629  0.023187005  0.023555686            3 
  584000    1.0109022   -7.5536438    161.93137  0.023106645   0.02353717            3 
  585000    1.0301649   -7.5365741    162.84289  0.023196992  0.023518852            4 
  586000    1.0384388    -7.560587     162.8409  0.023157125  0.023500679            4 
  587000    1.0162625   -7.5536059    163.25793  0.023176879  0.023482215            2 
  588000    1.0206896   -7.5749399    163.33984  0.023149071  0.023463563            4 
  589000    1.0375898    -7.557411    163.05608   0.02306962  0.023445063            1 
  590000    1.0031055   -7.5832568    162.84623  0.023000879  0.023426134            2 
  591000    1.0192278   -7.5328403    163.67276  0.023078506  0.023407794            3 
  592000    1.0195997   -7.5785378    163.67076   0.02303924  0.023389406            5 
  593000   0.98840651   -7.5821643    164.05769  0.023054762  0.023370718            2 
  594000    1.0577219   -7.5444841    163.86681  0.022989171  0.023352343            2 
  595000    1.0151625   -7.5481166    164.00209   0.02296948  0.023333938            2 
  596000   0.99907844   -7.5197624    164.54462  0.023006798  0.023315903            9 
  597000    1.0240376   -7.5303261    164.89087  0.023016592  0.023297685            3 
  598000    1.0045822   -7.5832882     164.5218  0.022926672  0.023279136            3 
  599000    1.0100997   -7.5423822    165.15953  0.022977119  0.023260627            2 
  600000    1.0236354   -7.5910213    165.00536  0.022917412  0.023242393            4 
  601000    1.0201876   -7.5587063    165.11114  0.022893947  0.023224265            7 
  602000     1.004824   -7.5675514     164.6858  0.022797038  0.023205986            3 
  603000    1.0188003   -7.5997708    165.40122  0.022858101  0.023187484            6 
  604000    1.0026762   -7.5690401    165.34989  0.022813175  0.023168879            1 
  605000    1.0043098   -7.5839352      165.222  0.022757851  0.023150258            3 
  606000    1.0128798   -7.5522433    165.66658  0.022781433  0.023131564            3 
  607000     1.016897   -7.5351273    166.17206  0.022813297  0.023112969            6 
  608000    1.0131241   -7.5379073    166.15392  0.022773289  0.023094493            4 
  609000    1.0042442   -7.4952984     166.6057  0.022797715  0.023075991            3 
  610000   0.98576844   -7.5281982    166.41613  0.022734444  0.023057496            5 
  611000    1.0029474   -7.5814311    166.03983  0.022645912  0.023038273            4 
  612000     1.001211   -7.5901331    166.09348  0.022616214  0.023018968            4 
  613000    1.0106169   -7.6276058    166.27647  0.022604197  0.022999613            5 
  614000    1.0028397   -7.5695585    166.82611   0.02264198  0.022980247            2 
  615000    1.0110219   -7.5921786    166.44868  0.022554022  0.022960933            2 
  616000   0.99034159   -7.5824121    166.13213  0.022474584  0.022941426            2 
  617000    1.0113005   -7.5864536    166.28639  0.022458993  0.022921701            7 
  618000    0.9855404   -7.6032127    166.55869  0.022459371  0.022902224            7 
  619000     0.980335   -7.5587505    167.37728  0.022533291  0.022882877            5 
  620000   0.99184756   -7.5690713    167.14923  0.022466294  0.022863799            4 
  621000    1.0083101   -7.5872699    166.66229  0.022364774  0.022844253            5 
  622000    1.0063406    -7.627089    166.54246  0.022312763  0.022824448            2 
  623000    1.0122194   -7.5975377    167.35053  0.022385036  0.022804557            3 
  624000    1.0057284    -7.606656     167.1219   0.02231863  0.022784545            8 
  625000    1.0002518   -7.5928613    167.56852   0.02234247  0.022764362            7 
  626000   0.99795041   -7.5877942    167.41582   0.02228645  0.022744331            4 
  627000    1.0163548   -7.6373972    166.98912  0.022194194  0.022723868            4 
  628000    1.0017684   -7.6179386    167.21938  0.022189408  0.022703544            3 
  629000    0.9972312   -7.6362962    167.95444  0.022251516  0.022683394            4 
  630000    1.0070493    -7.656952    167.45125  0.022149636  0.022663048            6 
  631000    1.0139647   -7.6159547     167.6577  0.022141799  0.022642594            5 
  632000    1.0137411   -7.5717344    168.51063  0.022219229  0.022622755            6 
  633000   0.99106913   -7.5851367    168.84836  0.022228588  0.022603318            4 
  634000    1.0014472   -7.6136558    168.04117   0.02208743  0.022583716            5 
  635000    1.0054273   -7.6512168    168.60141  0.022126169  0.022563714            6 
  636000    1.0096653   -7.6088633    168.48446  0.022076056   0.02254338            5 
  637000   0.99226209   -7.5875318     168.3636  0.022025589  0.022523247            2 
  638000    1.0073826   -7.6209292    168.58555  0.022020057  0.022502962            5 
  639000    1.0011026   -7.6502116    168.76718  0.022009283  0.022482625            3 
  640000   0.99830962   -7.6338908    169.07594  0.022015096   0.02246256            3 
  641000    1.0154555   -7.6067916    169.25642  0.022004214  0.022442747            4 
  642000   0.99516814   -7.6242147    169.88775  0.022051888  0.022423059            2 
  643000   0.98388438   -7.6137653    169.65047  0.021986842  0.022403528            2 
  644000    1.0020912   -7.6030572    170.14035  0.022016091  0.022383869            6 
  645000    1.0056954   -7.6346696    169.97414  0.021960483  0.022364403            5 
  646000    1.0133762   -7.5756847    170.49022  0.021993062  0.022345083            4 
  647000    1.0122315   -7.6288321    170.41416  0.021949273  0.022325666            6 
  648000    1.0098365   -7.6165708    170.10644  0.021875829  0.022306275            4 
  649000    1.0020621   -7.6115351    170.30093  0.021867094  0.022286877            8 
  650000     1.000398   -7.5887717    170.62755  0.021875327  0.022267643            2 
  651000   0.99660576   -7.6069354    171.13377  0.021906524  0.022248518            4 
  652000   0.98546772   -7.5845144    171.19516  0.021880772  0.022229144            2 
  653000   0.98933276   -7.6237376    170.99254  0.021821406  0.022209963            6 
  654000    1.0117435   -7.5842313    171.35501  0.021834226  0.022190604            2 
  655000   0.99981849   -7.5795957     171.7034  0.021845216  0.022171422            4 
  656000   0.99994905   -7.6362952    171.97654  0.021846613  0.022152271            8 
  657000   0.99840412    -7.609892    171.72802  0.021781839  0.022133159            6 
  658000   0.99053875   -7.6618608    171.47016  0.021716079  0.022113815            6 
  659000   0.97489741   -7.6609687    171.33834  0.021666457  0.022094344            2 
  660000   0.99892896   -7.6103101    172.15829  0.021737158  0.022074986            5 
  661000   0.97797401   -7.6527152    172.06816   0.02169291  0.022055764            6 
  662000    1.0113737   -7.6415546    172.17075  0.021673055  0.022036581            5 
  663000   0.98968657   -7.6793386    171.81437  0.021595571  0.022017185            3 
  664000    0.9822814   -7.6344817     172.1226  0.021601732   0.02199758            2 
  665000   0.98140163   -7.6648051    172.10556  0.021567113  0.021977881            4 
  666000   0.97749494   -7.6206716    172.69914  0.021609001  0.021957927            9 
  667000    1.0109533   -7.6047049    172.55933  0.021559136  0.021938255            3 
  668000    1.0017138   -7.6325232    172.28033  0.021492057   0.02191858            2 
  669000   0.99939494    -7.667114    172.68465  0.021510295  0.021898964            5 
  670000   0.97999111   -7.6505888     172.9286  0.021508532  0.021879223            3 
  671000   0.99941727    -7.660987    173.08273  0.021495619  0.021859535            4 
  672000   0.98849232   -7.6603821    173.29274  0.021489676   0.02183991            2 
  673000   0.98006866   -7.6425549    172.88308  0.021407018  0.021820283            2 
  674000   0.99552625   -7.6296373    173.61115  0.021465276  0.021800804            7 
  675000    1.0036735   -7.6929624    173.22507  0.021385811  0.021781242            4 
  676000    0.9850271   -7.6488194    173.50119  0.021388213   0.02176167            8 
  677000   0.97688654   -7.6745945    173.84049  0.021398386  0.021742096           12 
  678000   0.99038531    -7.670336    173.54929  0.021331034  0.021722489           13 
  679000    1.0031721   -7.6546536    173.76263  0.021325801  0.021702893           11 
  680000   0.99381223   -7.6816392    173.42093  0.021252565  0.021683198            4 
  681000   0.98308781   -7.6565539    173.84467  0.021273209  0.021663766            7 
  682000    1.0004081   -7.6751207     173.4971  0.021199548  0.021644023            9 
  683000   0.96922147   -7.6500504    174.20837  0.021255291  0.021624399            6 
  684000   0.97797949   -7.6818765    174.35446  0.021242015  0.021604929            4 
  685000   0.97795082   -7.6757988     174.1606   0.02118742   0.02158533            4 
  686000   0.98381301   -7.6708503     174.4299   0.02118925  0.021565658            3 
  687000   0.98238458   -7.6848943    174.36467  0.021150494  0.021546246           10 
  688000   0.97614258   -7.6410472    175.29953  0.021232986  0.021526764            2 
  689000   0.96782988   -7.6291836    175.07992  0.021175608  0.021507455            5 
  690000   0.97418205   -7.7139476    174.54168  0.021079913  0.021488141            3 
  691000   0.99371296   -7.6881366     174.8782   0.02108999  0.021468498            3 
  692000   0.96908687   -7.6928774    175.44877  0.021128224   0.02144901            5 
  693000   0.96480682   -7.6776887    175.43523  0.021096107  0.021429676            3 
  694000   0.97839193   -7.6693857     175.7779  0.021106857  0.021410234            3 
  695000   0.98519194   -7.6936064    175.75939  0.021074267  0.021390797            3 
  696000   0.96855401   -7.6824849    175.86215  0.021056292  0.021371445            3 
  697000   0.96748171   -7.6436387    176.30712  0.021079283  0.021352193            3 
  698000   0.95686372   -7.7221014    175.82346  0.020991339  0.021333071           12 
  699000      0.94647   -7.6895425    176.56245  0.021049409  0.021313745           25 
  700000   0.97448085   -7.7015992    176.42658  0.021003165  0.021294542           10 
  701000    1.0083961    -7.724993    176.26667  0.020954192  0.021275558           11 
  702000   0.96624767   -7.7024933    176.31055  0.020929552  0.021256484            8 
  703000   0.97352844     -7.73865    176.31956  0.020900849  0.021237083            4 
  704000   0.96653075   -7.7564353    175.99227  0.020832418  0.021217645            3 
  705000   0.96533851   -7.6454413     176.9478  0.020915815   0.02119819            4 
  706000   0.98874148   -7.6938055    177.03823  0.020896864  0.021178884            4 
  707000   0.95215777   -7.7356387    176.65268  0.020821862  0.021159618            3 
  708000   0.97701838   -7.6578288    177.34194   0.02087358   0.02114048            7 
  709000   0.95712077   -7.6923647    177.34753  0.020844797  0.021121387            8 
  710000   0.97556237   -7.6998378    177.13645  0.020790663   0.02110209            2 
  711000   0.96881331   -7.6767317    177.52557  0.020807029  0.021082856            2 
  712000    0.9905961   -7.6961468    177.34627   0.02075682  0.021063584            3 
  713000   0.95144872   -7.7028099    177.70897  0.020770099  0.021044315            5 
  714000   0.95550798   -7.6599775    177.54673  0.020722074   0.02102492            6 
  715000   0.96668745   -7.7008071    177.61596   0.02070116  0.021005788            7 
  716000   0.96572387    -7.725004    177.28606  0.020633852  0.020986527           12 
  717000   0.96777731    -7.688219    178.23179  0.020714992  0.020967382           25 
  718000   0.94885181   -7.7387212    178.02024  0.020661588  0.020948371            8 
  719000   0.97978666    -7.726773    178.54919  0.020694157  0.020929203           15 
  720000   0.98854159    -7.769848     177.4347  0.020536423  0.020910021           20 
  721000    0.9600051   -7.7082886    178.21042  0.020597598  0.020890753            5 
  722000   0.96736745     -7.70946    178.28219  0.020577354  0.020871676           10 
  723000   0.95048918   -7.6830653    178.72122  0.020599495  0.020852878            6 
  724000    0.9755278   -7.7161452    178.81027  0.020581292  0.020833799            5 
  725000   0.96773642   -7.7020297    178.84868  0.020557319  0.020814785            3 
  726000   0.96696789   -7.7213647    178.93733  0.020539179  0.020796047            6 
  727000   0.93916115   -7.6920983    179.32329  0.020555169  0.020777296            5 
  728000   0.95132179    -7.745048    178.88718  0.020477012  0.020758267            4 
  729000   0.97320779   -7.7327211    179.05269  0.020467843  0.020739269           13 
  730000   0.95753512   -7.7415172    179.30352  0.020468438  0.020720192           16 
  731000   0.97040373   -7.7176162    178.91223  0.020395831  0.020700979            5 
  732000   0.95068087   -7.7260057    179.20414  0.020401199  0.020681909            6 
  733000   0.95139124   -7.7048146    179.17908  0.020370518  0.020662784            5 
  734000   0.95306114   -7.7667432    179.36492  0.020363865  0.020643553            6 
  735000   0.97121193   -7.7432825     179.4246  0.020342925  0.020624442            5 
  736000   0.94560392   -7.7414474    179.35096  0.020306948  0.020605485            4 
  737000   0.96070581   -7.7951855    179.71346  0.020320382  0.020586675           11 
  738000   0.96132263   -7.7342406    179.71551   0.02029308  0.020567718            6 
  739000   0.98674693   -7.7462261    180.07166   0.02030578  0.020548873           10 
  740000   0.94785642   -7.7478354    180.44429  0.020320303   0.02053008            6 
  741000   0.95302466   -7.7097533    180.43696  0.020292056  0.020511213            9 
  742000   0.96282139   -7.7387074    180.44215  0.020265291  0.020492488            4 
  743000   0.94579933   -7.7690952    180.18474  0.020209146  0.020473704            2 
  744000   0.96555608   -7.7598927    180.27655  0.020192266  0.020454655            3 
  745000   0.96618332   -7.7370948    180.82408  0.020226407  0.020435824            2 
  746000   0.97767993   -7.7564489      180.671  0.020182194   0.02041709            5 
  747000   0.98078664   -7.7629136    181.08232  0.020201062  0.020398205            6 
  748000   0.95103147     -7.79038    180.62911  0.020123564  0.020379541            4 
  749000   0.96091535   -7.7293959    180.79033  0.020114634  0.020360782            9 
  750000    0.9388649    -7.734862    180.93468  0.020103854  0.020341961            4 
  751000   0.96067899   -7.7680489    180.78257  0.020060205  0.020323173            4 
  752000   0.95606299    -7.745553     181.2731  0.020087888   0.02030441           11 
  753000   0.95746342    -7.707362    181.82395  0.020122172   0.02028597           10 
  754000   0.93920638   -7.7499634    181.07279  0.020012465  0.020267435            4 
  755000   0.94482694   -7.7383691    181.90851  0.020078202  0.020248748            3 
  756000   0.94863573   -7.7840011    181.38319  0.019993738  0.020230071            5 
  757000   0.95160241    -7.789216    181.57147  0.019988052  0.020211453            6 
  758000   0.93891871   -7.7676366    181.87989  0.019995591  0.020192735            5 
  759000   0.96212183   -7.7837874    181.98542  0.019980832   0.02017406            6 
  760000   0.94437381   -7.7801672    181.57911   0.01990999  0.020155476            5 
  761000   0.96516494   -7.7592156    182.16481  0.019947964  0.020137117           10 
  762000   0.93559483   -7.7555897    182.24631  0.019930698  0.020118792           10 
  763000   0.96501454   -7.7375889    182.74299  0.019958824  0.020100339            3 
  764000     0.946307   -7.7754633    181.98038  0.019849517  0.020081931            7 
  765000   0.94472065    -7.755786    182.40871   0.01987023  0.020063461            4 
  766000   0.94729601   -7.7418621      182.602  0.019865317  0.020045089           10 
  767000   0.93552998   -7.7550345    182.42786  0.019820498  0.020026687            5 
  768000    0.9429626   -7.7938456     182.4592   0.01979809  0.020008122            8 
  769000   0.94803027     -7.75391    181.98168  0.019720598  0.019989428           14 
  770000   0.93025634   -7.7797313    182.50555  0.019751683   0.01997087            4 
  771000   0.93257094   -7.7720861     182.7436  0.019751794  0.019952233           10 
  772000   0.95096008    -7.778738    182.56653  0.019707095   0.01993365            6 
  773000   0.93049575   -7.7891733    182.98404  0.019726611  0.019915134            8 
  774000   0.92909433   -7.7726925    183.02076  0.019705077  0.019896541            3 
  775000    0.9282901   -7.7234407    183.63873    0.0197461  0.019878273            3 
  776000   0.95516632   -7.7575977    182.82886  0.019633684  0.019860034            8 
  777000   0.96193683   -7.7647242    183.58593  0.019689611  0.019841818           15 
  778000   0.95104796   -7.7590471    183.82141  0.019689525  0.019823856           11 
  779000   0.93718569   -7.7655689    184.07865  0.019691769  0.019805757            5 
  780000    0.9500829   -7.8010315    184.25257  0.019685104  0.019787658            5 
  781000   0.95945487   -7.7669888    184.02705  0.019635836  0.019769519            4 
  782000   0.95527231    -7.790752     184.0218  0.019610166  0.019751635            4 
  783000   0.92651698   -7.7839751    184.43498  0.019629095  0.019733896            6 
  784000   0.94010726   -7.7945075    184.58888  0.019620416  0.019716099            8 
  785000   0.94077234   -7.7661925    184.92352  0.019630947   0.01969825            4 
  786000   0.94099523   -7.7970486    184.86072  0.019599313   0.01968049            9 
  787000   0.93824206   -7.7633392    184.97525  0.019586537  0.019662621            5 
  788000    0.9349887   -7.7898088    184.70153  0.019532734  0.019644889            9 
  789000   0.95434493   -7.8032292    184.73806  0.019511836  0.019626951            7 
  790000   0.93787497   -7.7989884    184.78331  0.019491911  0.019609109            3 
  791000   0.94050871    -7.814077    184.97234  0.019487183  0.019591058           17 
  792000   0.93604148   -7.8251515    184.66364  0.019430097  0.019573099            4 
  793000   0.93493313   -7.8238886    185.10595  0.019452075  0.019555208            6 
  794000   0.93893181   -7.7996971    184.96603  0.019412891  0.019537174            4 
  795000    0.9571043   -7.7841185    185.50269  0.019444726  0.019519247            5 
  796000   0.93945522    -7.819219    184.94294  0.019361698  0.019501385            7 
  797000   0.93460516    -7.785201    185.76498  0.019423357  0.019483563            6 
  798000    0.9155261   -7.7793067    185.72858  0.019395215  0.019465786            4 
  799000   0.92145327    -7.813692    185.84071  0.019382635  0.019448031            7 
  800000   0.92567061   -7.7970014    185.94413   0.01936918  0.019430455            9 
  801000   0.94319181   -7.7927027    186.00352  0.019351178  0.019412957            4 
  802000   0.95137299   -7.8027477    186.07874  0.019334865  0.019395343            5 
  803000   0.94472828   -7.8076605    185.86558  0.019288666  0.019377614            6 
  804000   0.93365128   -7.7679537    186.30047   0.01930975  0.019359914            5 
  805000   0.91607272   -7.7787819     186.8786   0.01934561  0.019342282            3 
  806000   0.93512138   -7.7638153    186.03616  0.019234508  0.019324419           11 
  807000   0.91895375   -7.8390737    185.42264  0.019147319  0.019306564            9 
  808000   0.93599607    -7.823065    185.90566  0.019173439  0.019288605            7 
[...]
 1800000   0.53278952   -9.1348274    193.21916 0.0089453313  0.007187661         2640 
 1801000   0.52826541   -9.1188088    193.69619 0.0089624369 0.0071807619         2681 
 1802000   0.52606128   -9.1182914    193.77361 0.0089610436 0.0071738649         2617 
 1803000   0.54680217   -9.1306983    193.41978 0.0089397198 0.0071669819         2666 
 1804000   0.52688242   -9.1372623    193.42003  0.008934776 0.0071601054         2634 
 1805000    0.5277613   -9.1269387    193.48524 0.0089328365 0.0071532407         2671 
 1806000    0.5237358   -9.1364467    193.53077 0.0089299914 0.0071463891         2685 
 1807000   0.53482373   -9.1468075    193.62689 0.0089294823  0.007139544         2667 
 1808000   0.52178314   -9.1195275    193.50559 0.0089189522 0.0071327036         2658 
 1809000    0.5302279   -9.1290577    193.47657 0.0089126852 0.0071258771         2651 
 1810000   0.52895526   -9.1366762    193.40462 0.0089044485 0.0071190523         2670 
 1811000   0.53134646   -9.1387395    193.42071  0.008900272 0.0071122395         2733 
 1812000   0.51800774   -9.1289579    193.49925 0.0088989721  0.007105431         2635 
 1813000   0.51200741   -9.1297401    193.64856 0.0089009269 0.0070986311         2694 
 1814000   0.54094287   -9.1318806    193.20559   0.00887567 0.0070918406         2691 
 1815000   0.51689201    -9.134659    193.58704 0.0088882937 0.0070850547         2669 
 1816000   0.52231181   -9.1291258    193.67385  0.008887383 0.0070782779         2727 
 1817000   0.52908143   -9.1372544    193.51101 0.0088750236 0.0070715147         2686 
 1818000   0.53268438    -9.130297    193.34624  0.008862589 0.0070647593         2684 
 1819000   0.53641049   -9.1443453    193.29698 0.0088554601 0.0070580136         2697 
 1820000   0.53278505   -9.1419518    193.45691 0.0088579171 0.0070512717         2712 
 1821000    0.5253074   -9.1498949    193.46333 0.0088533468  0.007044535         2676 
 1822000   0.52353784   -9.1517223    193.41397   0.00884623 0.0070378059         2716 
 1823000   0.51685352   -9.1331428      193.166 0.0088300423 0.0070310874         2722 
 1824000   0.52234862   -9.1438512    193.49815 0.0088403761 0.0070243745         2678 
 1825000   0.53189884   -9.1613836    193.31868 0.0088273371 0.0070176769         2735 
 1826000   0.52129519   -9.1323708    193.13782 0.0088142489 0.0070109828         2668 
 1827000   0.52405284   -9.1597128    193.47797 0.0088249392 0.0070043037         2716 
 1828000   0.52098004   -9.1542198    193.39596 0.0088163729 0.0069976335         2682 
 1829000   0.52056818   -9.1380216    193.15348 0.0088005047 0.0069909686         2707 
 1830000   0.52260492   -9.1464878    193.19519 0.0087975953  0.006984319         2715 
 1831000   0.52802074   -9.1589551    193.14417 0.0087904681  0.006977673         2710 
 1832000   0.53199491   -9.1572811    193.77996 0.0088145905 0.0069710293         2706 
 1833000   0.52377114   -9.1521025    193.26209  0.008786238 0.0069643946         2668 
 1834000   0.52846181   -9.1516204    193.05763  0.008772157 0.0069577646         2694 
 1835000   0.52066786   -9.1543869    193.11967 0.0087701941  0.006951151         2726 
 1836000   0.51772482   -9.1400616    193.32701 0.0087748282 0.0069445394         2679 
 1837000   0.52409436   -9.1549126    193.36199 0.0087716383 0.0069379415         2692 
 1838000   0.51777864   -9.1750074    193.14121 0.0087568555 0.0069313505         2707 
 1839000   0.51506921    -9.149953    193.49684  0.008768209  0.006924766         2673 
 1840000   0.52474178   -9.1685054    193.43978 0.0087608594 0.0069181922         2680 
 1841000   0.51377922     -9.16611    193.30598 0.0087500444 0.0069116319         2632 
 1842000   0.51623885   -9.1580388    193.54261 0.0087559995 0.0069050773         2716 
 1843000   0.50959836   -9.1540873    193.22603 0.0087369338 0.0068985311         2708 
 1844000   0.52653841   -9.1528167    193.51089 0.0087450691 0.0068919916         2670 
 1845000   0.50366947   -9.1720627    193.43087  0.008736715 0.0068854628         2680 
 1846000   0.51673652   -9.1587219    193.22064 0.0087224917 0.0068789384         2702 
 1847000   0.51293873    -9.125114    193.50109 0.0087304225 0.0068724325         2680 
 1848000   0.51625358   -9.1533311    193.37262 0.0087199051 0.0068659286         2659 
 1849000   0.49988889   -9.1527977    193.46233 0.0087192324 0.0068594369         2649 
 1850000   0.51772367   -9.1361524     193.0443  0.008695689 0.0068529451         2709 
 1851000   0.52286347   -9.1633078    193.36213 0.0087053005 0.0068464669         2685 
 1852000   0.50995474   -9.1636499    193.54656 0.0087088984 0.0068399965         2661 
 1853000   0.52149805   -9.1403283    193.32492  0.008694231 0.0068335375         2707 
 1854000   0.51802993   -9.1694675    193.36741 0.0086914514 0.0068270833         2692 
 1855000   0.51016453   -9.1748565    192.97688 0.0086692217 0.0068206392         2721 
 1856000   0.52022615    -9.167151    193.52289 0.0086890666 0.0068142012         2662 
 1857000   0.50923652   -9.1593756    193.03441 0.0086624667 0.0068077761         2689 
 1858000    0.5155823     -9.15692    193.21721 0.0086660034 0.0068013564         2658 
 1859000    0.5128641   -9.1774456    193.30673 0.0086653544 0.0067949438         2741 
 1860000   0.51374447   -9.1531833    193.37518 0.0086637624 0.0067885395         2700 
 1861000   0.50960459   -9.1618211    193.51568 0.0086653985  0.006782142         2662 
 1862000   0.52080494   -9.1608759    193.53897 0.0086617869 0.0067757532         2692 
 1863000   0.50959473   -9.1627641    193.28497  0.008645776 0.0067693731         2731 
 1864000   0.50467544   -9.1632113    193.45384 0.0086486875 0.0067630048         2766 
 1865000   0.50443954   -9.1716814    193.03155 0.0086251808 0.0067566381         2716 
 1866000   0.50777324    -9.171606    193.30831 0.0086329184  0.006750284         2731 
 1867000   0.50475875   -9.1608257     193.1805 0.0086225899 0.0067439357         2695 
 1868000   0.50900549   -9.1372624    193.52792 0.0086334725 0.0067375953         2667 
 1869000   0.51959213   -9.1481701    193.11649 0.0086105086 0.0067312664         2732 
 1870000   0.51009007   -9.1752226    193.25186 0.0086119366 0.0067249416         2765 
 1871000   0.50754001   -9.1606603    193.00024 0.0085961269  0.006718619         2710 
 1872000   0.50919994   -9.1826293    193.33584 0.0086064742 0.0067123012         2694 
 1873000   0.49618899   -9.1792699    192.95441 0.0085849087 0.0067059962         2737 
 1874000   0.50825287   -9.1756398    193.22606 0.0085924076 0.0066996936         2743 
 1875000   0.50148604   -9.1559078     193.2847 0.0085904309 0.0066934039         2700 
 1876000   0.50145543    -9.169262    193.24243 0.0085839743  0.006687129         2739 
 1877000   0.51252582     -9.17016    193.34896 0.0085841309 0.0066808544         2730 
 1878000   0.50376468   -9.1747299    193.44418  0.008583785 0.0066745898         2727 
 1879000   0.49567452   -9.1644032    193.04871 0.0085616778 0.0066683326         2754 
 1880000   0.52241523   -9.1828867    193.15767 0.0085619533 0.0066620823         2719 
 1881000   0.49973451   -9.1628219    192.80939 0.0085419717 0.0066558419         2764 
 1882000   0.50361683    -9.159897    193.10643 0.0085505859 0.0066496051         2730 
 1883000   0.50449631   -9.1776527    193.36133 0.0085573256 0.0066433795         2704 
 1884000   0.49993466   -9.1757753    193.45702 0.0085570161 0.0066371642         2686 
 1885000   0.50658242   -9.1729745    193.06216 0.0085350204 0.0066309571         2740 
 1886000   0.49618059   -9.1852142     192.9671 0.0085262945 0.0066247575         2725 
 1887000   0.50880083   -9.1771961    193.25199 0.0085343574 0.0066185626         2682 
 1888000   0.50129064   -9.1829918    192.98005 0.0085178342 0.0066123806         2761 
 1889000   0.50023155   -9.1683653    193.13253 0.0085200518 0.0066062004         2716 
 1890000   0.50543335   -9.1874082    193.07226 0.0085128864 0.0066000248         2739 
 1891000    0.5048555   -9.1771117    192.91164 0.0085013064 0.0065938583         2699 
 1892000   0.50214257    -9.189414    193.29571 0.0085137293 0.0065877036         2702 
 1893000   0.50626609   -9.1745873    193.11333 0.0085012031 0.0065815606         2743 
 1894000   0.49948214    -9.184966    193.14335 0.0084980352 0.0065754184         2725 
 1895000    0.4946507   -9.1659969    193.06565 0.0084901343 0.0065692879         2755 
 1896000   0.49933499   -9.1914668    193.05072     0.008485 0.0065631617         2687 
 1897000   0.48866267   -9.1718804     193.0665 0.0084812204 0.0065570429         2701 
 1898000    0.4972754   -9.1720174    193.21037 0.0084830684 0.0065509331         2723 
 1899000   0.49707393   -9.1821859    193.10955 0.0084741772   0.00654483         2695 
 1900000   0.48918726   -9.1863407    192.97458 0.0084637975 0.0065387328         2712 
 1901000   0.49870127   -9.1862344    193.09341  0.008464554 0.0065326461         2717 
 1902000   0.48933961   -9.1920843    192.93208 0.0084530353 0.0065265687         2697 
 1903000   0.48958417   -9.1752338    192.85991 0.0084454331 0.0065204951         2746 
 1904000   0.49138596   -9.1857911    192.96995 0.0084458137 0.0065144269         2710 
 1905000   0.49806841   -9.1878501    192.82779 0.0084351613 0.0065083696         2691 
 1906000   0.48172945   -9.1882362    192.96896 0.0084369082 0.0065023214         2683 
 1907000   0.49148415   -9.1834935    192.90943 0.0084298825 0.0064962776         2738 
 1908000   0.50595546   -9.1906626    192.77067 0.0084194039 0.0064902461         2731 
 1909000   0.49844629   -9.1569271    193.16211 0.0084320809 0.0064842224         2699 
 1910000   0.48877173   -9.1790496    192.78331 0.0084111393 0.0064781991         2740 
 1911000   0.49880272   -9.1879351    193.04103 0.0084179764 0.0064721856         2731 
 1912000   0.47843146   -9.2033447    193.01842 0.0084125883   0.00646618         2735 
 1913000   0.48936294   -9.1916478    192.80095  0.008398717 0.0064601812         2743 
 1914000   0.49558856   -9.2060647    193.11406 0.0084079613 0.0064541854         2761 
 1915000    0.4937855    -9.197934    192.94665 0.0083962861 0.0064482026         2752 
 1916000   0.49359475   -9.1959149    192.76265 0.0083839011 0.0064422235         2723 
 1917000   0.48602059   -9.1912879    192.86677 0.0083840536 0.0064362465         2675 
 1918000   0.48862875    -9.178427      192.686 0.0083718283 0.0064302795         2689 
 1919000    0.4887936   -9.1720651    192.76029 0.0083706918 0.0064243239         2713 
 1920000   0.48761286   -9.1999754    192.78723 0.0083675013 0.0064183787         2731 
 1921000   0.48697069   -9.1933934    192.59664 0.0083548777 0.0064124373         2761 
 1922000    0.4870032   -9.2048848    192.86998 0.0083623821 0.0064064995         2782 
 1923000   0.48429248   -9.2085675    192.90871  0.008359712 0.0064005704         2736 
 1924000    0.4836015   -9.1942929    192.85522   0.00835305 0.0063946539         2757 
 1925000   0.48034101   -9.2099962    193.05968  0.008357562 0.0063887458         2731 
 1926000   0.48721073   -9.2051166     192.7319 0.0083390401   0.00638284         2713 
 1927000   0.48641468   -9.2105472    192.60844 0.0083293738 0.0063769395         2727 
 1928000   0.49532352    -9.214299    192.91894 0.0083384741 0.0063710488         2704 
 1929000   0.49410641    -9.207293    193.03064 0.0083389771 0.0063651621         2745 
 1930000   0.48911322   -9.2076662     193.0952 0.0083374437 0.0063592879         2766 
 1931000   0.47591081   -9.2237564    192.77212 0.0083191834 0.0063534165         2747 
 1932000   0.49020326   -9.2110817    192.85202 0.0083183239 0.0063475523         2720 
 1933000   0.47670162   -9.2226663    192.64965 0.0083052961 0.0063416962         2716 
 1934000   0.46071073   -9.2142722    192.89202 0.0083114453 0.0063358444         2733 
 1935000   0.48136173   -9.1910405     192.8547 0.0083055428 0.0063300051         2707 
 1936000   0.47373179    -9.214336    192.61424 0.0082909021 0.0063241657         2710 
 1937000    0.4741674   -9.2070112    193.01048 0.0083036688 0.0063183421         2736 
 1938000   0.48434086   -9.2118166    192.67913 0.0082851364 0.0063125248         2679 
 1939000   0.48155125   -9.2186113    192.63722 0.0082790623 0.0063067123         2723 
 1940000   0.47623517   -9.2147458    192.79646  0.008281635 0.0063009053         2773 
 1941000   0.47943785   -9.2145152    192.73025 0.0082745255  0.006295109         2698 
 1942000   0.47338703   -9.2203163    192.62395 0.0082657032 0.0062893188         2669 
 1943000   0.48450856   -9.1894354    192.90482 0.0082734955 0.0062835384         2651 
 1944000   0.48688659   -9.2154941    192.61271 0.0082567176  0.006277764         2684 
 1945000   0.48071326   -9.2132292    192.98073 0.0082682406  0.006271991         2724 
 1946000   0.47842752   -9.2046372    192.60256  0.008247797 0.0062662285         2727 
 1947000   0.47038438   -9.2127186    192.46283 0.0082375805 0.0062604741         2741 
 1948000   0.47353234   -9.2100146    192.74234 0.0082453088  0.006254722         2658 
 1949000   0.47519167   -9.2310725    193.00942 0.0082524978 0.0062489765         2706 
 1950000   0.47445075   -9.2032137    192.64919 0.0082328715 0.0062432419         2686 
 1951000   0.47517265   -9.2211254     192.7691 0.0082337732 0.0062375106         2766 
 1952000   0.46531213   -9.1994059    192.94374  0.008237011 0.0062317946         2692 
 1953000   0.47489368   -9.2065891    193.01789 0.0082359572 0.0062260841         2751 
 1954000   0.47198541   -9.2154923     192.4885  0.008209165 0.0062203813         2700 
 1955000   0.46834721   -9.2157878    192.82909  0.008219484 0.0062146816         2689 
 1956000   0.48373318   -9.2230361    192.76309 0.0082124698 0.0062089929         2723 
 1957000     0.476515   -9.1897844    192.65723 0.0082037656 0.0062033093         2699 
 1958000   0.46304788   -9.2154562    192.83305 0.0082070585 0.0061976324         2747 
 1959000   0.47354883   -9.2240673     192.5681 0.0081915987 0.0061919557         2677 
 1960000   0.47267071   -9.2289631    192.44738 0.0081822865 0.0061862912         2706 
 1961000   0.47212305   -9.2327713     192.5882 0.0081840981 0.0061806369         2744 
 1962000   0.46356379   -9.2196674    192.59634 0.0081802727 0.0061749894         2684 
 1963000   0.47448977    -9.230426    192.46703 0.0081706158 0.0061693427         2677 
 1964000   0.47392311   -9.2195334    192.68475 0.0081756936 0.0061637089         2696 
 1965000   0.46544555   -9.2303856    192.34015 0.0081569191 0.0061580773         2714 
 1966000   0.46976246   -9.2118456    192.50106 0.0081595904 0.0061524546         2643 
 1967000   0.46459903   -9.2352879    192.73999 0.0081655646  0.006146841         2695 
 1968000   0.46291718   -9.2413218    192.47894 0.0081503617 0.0061412327         2710 
 1969000     0.471834   -9.2306779    192.50269 0.0081472275 0.0061356323         2691 
 1970000   0.46000019   -9.2309174    192.48061 0.0081421577 0.0061300379         2719 
 1971000   0.45505125    -9.239243    192.61165 0.0081435671 0.0061244484         2726 
 1972000   0.45856422   -9.2318603    192.56273 0.0081373702  0.006118865         2700 
 1973000   0.47424068    -9.223428    192.23461 0.0081193872 0.0061132865         2780 
 1974000   0.46437679   -9.2296316    192.60261 0.0081308092 0.0061077201         2688 
 1975000   0.47282248   -9.2378121    192.42047 0.0081190074 0.0061021563         2688 
 1976000   0.46866038   -9.2358713    192.48499 0.0081176193 0.0060966003         2636 
 1977000   0.46357889   -9.2359086    192.50334  0.008114287 0.0060910541         2696 
 1978000   0.45546682   -9.2256305    192.55821 0.0081124962 0.0060855179         2719 
 1979000   0.45251479   -9.2134515    192.40392 0.0081018999 0.0060799877         2724 
 1980000   0.45481056   -9.2420056     192.7206 0.0081111362 0.0060744615         2652 
 1981000   0.45031128   -9.2356635    192.31311 0.0080899004 0.0060689381         2717 
 1982000   0.46027346   -9.2324638    192.30059  0.008085292 0.0060634229         2718 
 1983000   0.46379746   -9.2352062    192.39071 0.0080850022 0.0060579154         2675 
 1984000   0.46460116   -9.2481688    192.40792 0.0080816499 0.0060524127         2711 
 1985000   0.46528609   -9.2394286    192.46142 0.0080798247 0.0060469225         2741 
 1986000   0.45711896   -9.2483163    192.74472 0.0080876433 0.0060414326         2751 
 1987000    0.4583068   -9.2470733    192.57379 0.0080764047 0.0060359501         2698 
 1988000   0.46404113   -9.2429361    192.48185 0.0080684882 0.0060304739         2792 
 1989000   0.45649393   -9.2287089    192.60998 0.0080697999 0.0060250085         2729 
 1990000   0.45859563   -9.2375306    192.66063 0.0080678654 0.0060195453         2736 
 1991000   0.46376854   -9.2515299    192.68823 0.0080649687 0.0060140921         2761 
 1992000    0.4593231   -9.2515834    192.15973 0.0080388108 0.0060086399         2716 
 1993000   0.45825875   -9.2547195    192.48879 0.0080485362  0.006003197         2698 
 1994000   0.45345443   -9.2474831    192.26144 0.0080349982 0.0059977621         2704 
 1995000   0.46873539   -9.2511212     192.6331 0.0080464956 0.0059923354         2719 
 1996000   0.45453625    -9.235315    192.33553 0.0080300405 0.0059869134         2666 
 1997000   0.46344773   -9.2458081    192.36706 0.0080273352 0.0059814986         2690 
 1998000   0.44975564   -9.2414531    192.49972 0.0080288507 0.0059760861         2725 
 1999000   0.45735229   -9.2386406    192.38763 0.0080201613 0.0059706839         2741 
 2000000   0.46747819   -9.2543401    192.01507 0.0080006278 0.0059652929         2767 
 2001000    0.4515496   -9.2441925    192.43237 0.0080140084  0.005959903         2742 
 2002000   0.45267299   -9.2531666    192.55438  0.008015084 0.0059545184         2672 
 2003000   0.44751751   -9.2438239    192.70139  0.008017199 0.0059491393         2680 
 2004000   0.45056536   -9.2473644    192.37502 0.0079996264 0.0059437738         2742 
 2005000   0.45197975   -9.2334364    192.45263 0.0079988625 0.0059384147         2743 
 2006000   0.45563011   -9.2484019    192.29029 0.0079881311 0.0059330564         2749 
 2007000   0.45869704   -9.2514387    192.58397 0.0079963447 0.0059277119         2729 
 2008000      0.45348   -9.2408422    192.46168 0.0079872877  0.005922365         2726 
 2009000   0.45407174   -9.2707234    192.29086 0.0079762261 0.0059170264         2765 
 2010000   0.45680522   -9.2589723    192.39187 0.0079764457  0.005911693         2748 
 2011000   0.45513491   -9.2510635    192.28133 0.0079678987 0.0059063713         2795 
 2012000    0.4420076    -9.246085    192.52316 0.0079739544  0.005901053         2757 
Loop time of 5261.66 on 48 procs for 2000000 steps with 4000 atoms

Performance: 65682.740 tau/day, 380.108 timesteps/s
99.4% CPU use with 48 MPI tasks x no OpenMP threads

MPI task timing breakdown:
Section |  min time  |  avg time  |  max time  |%varavg| %total
---------------------------------------------------------------
Pair    | 385.69     | 424.25     | 464.3      |  93.2 |  8.06
Neigh   | 35.934     | 37.677     | 39.194     |  13.0 |  0.72
Comm    | 330.21     | 369.27     | 406.52     |  99.4 |  7.02
Output  | 5.7878     | 5.7901     | 5.8354     |   0.3 |  0.11
Modify  | 4363.6     | 4376.2     | 4393.6     |  11.7 | 83.17
Other   |            | 48.45      |            |       |  0.92

Nlocal:        83.3333 ave          90 max          77 min
Histogram: 2 2 5 8 8 5 12 3 2 1
Nghost:        2404.42 ave        2430 max        2384 min
Histogram: 2 7 5 7 7 9 1 5 4 1
Neighs:        16555.5 ave       18977 max       14288 min
Histogram: 2 4 11 3 5 4 7 5 5 2
FullNghs:      33111.0 ave       36037 max       30511 min
Histogram: 3 2 9 3 10 6 6 5 3 1

Total # of neighbors = 1589330
Ave neighs/atom = 397.33250
Neighbor list builds = 106420
Dangerous builds = 0

#clear
#
#next RN
#
#jump SELF
Total wall time: 1:27:45
