
units lj                  # Use reduced LJ style units
atom_style atomic         # Uncharged point particles
atom_modify map hash      # Needed for indexing of clusters etc
                          # Used to be able to find where atoms are in relation to each other.

# Define a lattice with which to populate the simulation cell. With units
# set to 'lj' the second argument to the lattice command is the reduced
# density rho* and the spacings are multiples of that required to acheive
# that density. Also define a simulation cell called 'box' in lattice units
# and fill it with atoms. Here we're creating a box which is ten lattice
# constants in each direction.
lattice fcc 1.0 spacing 1 1 1                 # All equal sizes - gives the right reduced density.
Lattice spacing in x,y,z = 1.5874011 1.5874011 1.5874011

region box block 0 10 0 10 0 10 units lattice # Defines a region, "box", in lattice units
create_box 1 box                              # Creates a simulation box as specified above,
Created orthogonal box = (0.0000000 0.0000000 0.0000000) to (15.874011 15.874011 15.874011)
  2 by 4 by 4 MPI processor grid
                                              # with one type of atom
create_atoms 1 box                            # Creates particles on lattice points
Created 4000 atoms
  using lattice units in orthogonal box = (0.0000000 0.0000000 0.0000000) to (15.874011 15.874011 15.874011)
  create_atoms CPU = 0.002 seconds


# Set the mass of the first (and only) atom type.
mass 1 1.0

# Lennard-Jones interactions between particles, 3.5 sigma cut-off. Apply
# long range tail corrections to energy and pressure and set all coefficients
# to unity since we work in reduced units here. Note that this doesn't shift
# the potential such that it goes to zero at the cutoff. That would require
# pair_modify('shift', 'yes').
pair_style lj/cut  3.5      # non-GPU version
pair_modify tail  yes
pair_coeff 1  1  1.0  1.0   # Intearaction between 1 and 1 set with epsilon = 1 and sigma = 1

write_data data.*
System init for write_data ...
Neighbor list info ...
  update every 1 steps, delay 10 steps, check yes
  max neighbors/atom: 2000, page size: 100000
  master list distance cutoff = 3.8
  ghost atom cutoff = 3.8
  binsize = 1.9, bins = 9 9 9
  1 neighbor lists, perpetual/occasional/extra = 1 0 0
  (1) pair lj/cut, perpetual
      attributes: half, newton on
      pair build: half/bin/atomonly/newton
      stencil: half/bin/3d
      bin: standard

#############################
#   M E L T   S Y S T E M   #
#############################

velocity all create 2.4 2750902 mom yes dist gaussian # Assign velocities
                                                    # Temperature 2.4, random number seed, zero linear momentum
						                                                        # Gaussian distribution

timestep 0.002   # simulation timestep
thermo 100       # output thermodynamic data every 100 steps

# Define a fix  in this case with index 1 applied to all
# particles in the simulation. This fix is for simulations
# in the anisotropic NPT ensemble. Note that we use the MTK
# correction.
fix 1 all npt temp 2.4 2.4 0.1 iso 5.68 5.68 0.5 mtk yes tchain 5 pchain 5 # Use NPT ensemble
                                                                         # Set temperature and pressure and damping
                                                                         # Numbers of thermostats in chain and in barostat
run 1000         # run for 10000 steps
Per MPI rank memory allocation (min/avg/max) = 3.660 | 3.660 | 3.660 Mbytes
Step Temp E_pair E_mol TotEng Press Volume 
       0          2.4   -8.3859253            0   -4.7868253   -2.2405722         4000 
     100    1.2608475   -6.5235855            0   -4.6327871    5.4038563    4091.0951 
     200    1.4674745   -6.2960149            0   -4.0953535    6.0843453    4138.9956 
     300    1.5811347   -6.0195196            0   -3.6484105    5.8230308      4272.98 
     400    1.6903552   -5.7119813            0   -3.1770823    5.9377022    4398.4635 
     500    1.7989246   -5.4338299            0   -2.7361176    5.7946904    4546.9323 
     600    1.9022797   -5.1497661            0   -2.2970598    5.8333119    4691.4311 
     700    2.0414959   -4.9561197            0   -1.8946415    5.6184351    4842.6632 
     800    2.1308362   -4.7068196            0   -1.5113644    5.7371792    4975.4569 
     900    2.2803533   -4.5781415            0   -1.1584666    5.7093427    5072.7544 
    1000    2.3672823   -4.4702836            0  -0.92024792    5.6050301    5163.6463 
Loop time of 0.260482 on 32 procs for 1000 steps with 4000 atoms

Performance: 663385.026 tau/day, 3839.034 timesteps/s
99.7% CPU use with 32 MPI tasks x no OpenMP threads

MPI task timing breakdown:
Section |  min time  |  avg time  |  max time  |%varavg| %total
---------------------------------------------------------------
Pair    | 0.13248    | 0.13918    | 0.14588    |   0.9 | 53.43
Neigh   | 0.026078   | 0.027347   | 0.028477   |   0.4 | 10.50
Comm    | 0.064697   | 0.071113   | 0.077888   |   1.5 | 27.30
Output  | 0.00019299 | 0.00019745 | 0.00027131 |   0.0 |  0.08
Modify  | 0.017326   | 0.020769   | 0.023986   |   1.3 |  7.97
Other   |            | 0.001874   |            |       |  0.72

Nlocal:        125.000 ave         135 max         113 min
Histogram: 1 0 2 4 3 13 2 2 3 2
Nghost:        1662.72 ave        1680 max        1643 min
Histogram: 2 1 2 2 6 6 7 2 3 1
Neighs:        11066.0 ave       11928 max       10173 min
Histogram: 2 2 2 5 6 5 4 0 1 5

Total # of neighbors = 354112
Ave neighs/atom = 88.528000
Neighbor list builds = 89
Dangerous builds = 32

# Equilibrate just above the melting temperature to avoid step fn in T

fix 1 all npt temp 1.25 1.25 0.1 iso 5.68 5.68 0.5 mtk yes tchain 5 pchain 5
run 1000
Per MPI rank memory allocation (min/avg/max) = 3.661 | 3.661 | 3.661 Mbytes
Step Temp E_pair E_mol TotEng Press Volume 
    1000    2.3672823   -4.4702836            0  -0.92024792    5.6050301    5163.6463 
    1100    1.9569734    -4.706111            0   -1.7713848    5.4657034    5011.4174 
    1200    1.7262382   -4.9667701            0   -2.3780602    5.5966981    4817.3008 
    1300     1.587552    -5.220701            0   -2.8399684    5.6758355    4663.7229 
    1400    1.4738799   -5.4342144            0   -3.2239472    5.4755949    4569.2977 
    1500    1.3534378   -5.5295528            0   -3.4999037    5.6215529    4496.5144 
    1600    1.2908728   -5.6315259            0   -3.6957007    5.7257345     4433.469 
    1700    1.2788408   -5.7494795            0   -3.8316978    5.6735232     4386.563 
    1800     1.254965   -5.8228809            0   -3.9409041    5.4759615    4370.1173 
    1900     1.226926   -5.8280252            0   -3.9880963    5.6657418    4349.5824 
    2000    1.2829323   -5.8566878            0   -3.9327705    5.6371083    4341.9677 
Loop time of 0.250695 on 32 procs for 1000 steps with 4000 atoms

Performance: 689283.057 tau/day, 3988.907 timesteps/s
99.8% CPU use with 32 MPI tasks x no OpenMP threads

MPI task timing breakdown:
Section |  min time  |  avg time  |  max time  |%varavg| %total
---------------------------------------------------------------
Pair    | 0.13165    | 0.13785    | 0.14354    |   0.8 | 54.99
Neigh   | 0.02234    | 0.023127   | 0.023909   |   0.2 |  9.23
Comm    | 0.059655   | 0.067237   | 0.074542   |   1.3 | 26.82
Output  | 0.00019244 | 0.00020243 | 0.00026917 |   0.0 |  0.08
Modify  | 0.017085   | 0.020003   | 0.023123   |   1.2 |  7.98
Other   |            | 0.002271   |            |       |  0.91

Nlocal:        125.000 ave         131 max         119 min
Histogram: 2 3 5 2 4 4 3 2 3 4
Nghost:        1848.94 ave        1863 max        1828 min
Histogram: 1 0 1 1 3 11 7 3 2 3
Neighs:        13168.5 ave       13949 max       12671 min
Histogram: 5 6 5 1 3 2 3 4 1 2

Total # of neighbors = 421393
Ave neighs/atom = 105.34825
Neighbor list builds = 75
Dangerous builds = 6


# Small amount of linear quench

fix 1 all npt temp 1.25 ${temp} 0.1 iso 5.68 5.68 0.5 mtk yes tchain 5 pchain 5
fix 1 all npt temp 1.25 1.63 0.1 iso 5.68 5.68 0.5 mtk yes tchain 5 pchain 5
run 2000
Per MPI rank memory allocation (min/avg/max) = 3.661 | 3.662 | 3.662 Mbytes
Step Temp E_pair E_mol TotEng Press Volume 
    2000    1.2829323   -5.8566878            0   -3.9327705    5.6371083    4341.9677 
    2100    1.2410266   -5.8478048            0   -3.9867304    5.6913965    4339.8098 
    2200    1.2724333   -5.8546145            0   -3.9464417     5.532396    4352.7956 
    2300    1.3104633   -5.8209414            0   -3.8557379    5.7576942    4349.5558 
    2400    1.3144364   -5.7700512            0   -3.7988895    5.7711518    4369.5092 
    2500     1.346014   -5.7191729            0   -3.7006567    6.0104561    4371.9636 
    2600    1.3531224   -5.7138878            0   -3.6847117    5.6323416    4408.2781 
    2700    1.3666173   -5.7074543            0   -3.6580408    5.3628359     4439.074 
    2800    1.3676015   -5.6351286            0   -3.5842392    5.6406696    4442.9279 
    2900     1.410656   -5.6164586            0   -3.5010036     5.609894    4462.3649 
    3000    1.4233592   -5.5586646            0   -3.4241595    5.7915771    4469.7627 
    3100    1.4355184   -5.5053773            0   -3.3526379    5.9461363    4477.3811 
    3200      1.48443   -5.5407578            0   -3.3146694    5.5686769    4506.2095 
    3300    1.4813183   -5.5099261            0    -3.288504    5.4696167    4531.5713 
    3400    1.5153014   -5.4807202            0   -3.2083363    5.5564947    4533.4586 
    3500    1.5145281   -5.4270443            0   -3.1558201    5.6033848    4555.8332 
    3600    1.5201576   -5.3970582            0   -3.1173918    5.4608806    4582.9094 
    3700     1.562938   -5.4072116            0   -3.0633907    5.5030253     4583.882 
    3800    1.6011987   -5.3740895            0   -2.9728919     5.642177    4587.3423 
    3900    1.5948065   -5.3087703            0   -2.9171586    5.8342945    4600.3995 
    4000     1.615366   -5.2764631            0   -2.8540199    5.9304887     4609.063 
Loop time of 0.50749 on 32 procs for 2000 steps with 4000 atoms

Performance: 680999.192 tau/day, 3940.968 timesteps/s
99.8% CPU use with 32 MPI tasks x no OpenMP threads

MPI task timing breakdown:
Section |  min time  |  avg time  |  max time  |%varavg| %total
---------------------------------------------------------------
Pair    | 0.275      | 0.28099    | 0.28859    |   0.7 | 55.37
Neigh   | 0.043886   | 0.044647   | 0.045808   |   0.2 |  8.80
Comm    | 0.12873    | 0.13717    | 0.14376    |   1.1 | 27.03
Output  | 0.00038973 | 0.00039886 | 0.00053127 |   0.0 |  0.08
Modify  | 0.035392   | 0.039507   | 0.044361   |   1.3 |  7.78
Other   |            | 0.004771   |            |       |  0.94

Nlocal:        125.000 ave         134 max         117 min
Histogram: 2 1 7 4 4 6 1 4 1 2
Nghost:        1789.12 ave        1824 max        1772 min
Histogram: 2 8 4 8 5 4 0 0 0 1
Neighs:        12381.9 ave       13384 max       11418 min
Histogram: 2 4 5 0 3 7 1 6 1 3

Total # of neighbors = 396222
Ave neighs/atom = 99.055500
Neighbor list builds = 142
Dangerous builds = 0

#############################
# F R E E Z E  S Y S T E M  #
#############################

# Define solid atoms. This closely follows ten Wolde  Ruiz-Montero and Frenkel  Faraday Discuss  1996  104  93-110
# Compute components of the per-atom q6 vector
compute q6 all orientorder/atom degrees 1 6 components 6 nnn NULL cutoff 1.3 # compute the Q6 parameter.
                                                                             # Use all neighbours within 1.3 unit cell.

# get number of connections
compute coord_number all coord/atom orientorder q6 0.5

# An atom is solid if it has 8 or more connections (of a possible 14)
variable is_solid atom c_coord_number>=8
group solid dynamic all var is_solid    # Must be dynamic to update
dynamic group solid defined

# do clustering
compute cluster solid cluster/atom 1.3 # Create a cluster where all atoms within are solid and max 1.3 units from another member

# define chunks one chunk per cluster
compute clus_chunks solid chunk/atom c_cluster nchunk every compress yes  # Says which atoms are in which chunk

# count the size of each chunk
compute size_chunks solid property/chunk clus_chunks count


# Find the maximum entry in the vector of chunk sizes
variable max_n equal max(c_size_chunks)


# Thermo style which includes this variable
thermo_style custom step temp pe vol v_max_n

thermo ${N}  # Print the thermo information every 100 steps
thermo 100  

# Reset the npt fix at a lower temperature (below freezing)
fix 1  all npt temp  ${temp} ${temp}  0.1  iso  5.68  5.68  0.5  mtk yes tchain  5  pchain  5
fix 1  all npt temp  1.63 ${temp}  0.1  iso  5.68  5.68  0.5  mtk yes tchain  5  pchain  5
fix 1  all npt temp  1.63 1.63  0.1  iso  5.68  5.68  0.5  mtk yes tchain  5  pchain  5

dump dmp2 all dcd ${N} traj_${rand}.dcd
dump dmp2 all dcd 100 traj_${rand}.dcd
dump dmp2 all dcd 100 traj_462431.dcd


# fix rnuntil all halt ${N} v_max_n >= 3980 error soft message no   # Stop when solidified


run 100000 # 5000000  # Run for this many steps
Neighbor list info ...
  update every 1 steps, delay 10 steps, check yes
  max neighbors/atom: 2000, page size: 100000
  master list distance cutoff = 3.8
  ghost atom cutoff = 3.8
  binsize = 1.9, bins = 9 9 9
  4 neighbor lists, perpetual/occasional/extra = 1 3 0
  (1) pair lj/cut, perpetual
      attributes: half, newton on
      pair build: half/bin/atomonly/newton
      stencil: half/bin/3d
      bin: standard
  (2) compute orientorder/atom, occasional
      attributes: full, newton on
      pair build: full/bin/atomonly
      stencil: full/bin/3d
      bin: standard
  (3) compute coord/atom, occasional
      attributes: full, newton on
      pair build: full/bin/atomonly
      stencil: full/bin/3d
      bin: standard
  (4) compute cluster/atom, occasional
      attributes: full, newton on
      pair build: full/bin/atomonly
      stencil: full/bin/3d
      bin: standard
Per MPI rank memory allocation (min/avg/max) = 9.409 | 9.415 | 9.423 Mbytes
Step Temp PotEng Volume v_max_n 
    4000     1.615366   -5.2764631     4609.063            1 
    4100    1.6293296   -5.2710032     4621.171            1 
    4200    1.6327474   -5.2890555    4637.5325            1 
    4300    1.6358364    -5.306454    4615.2327            1 
    4400    1.6152267   -5.2943626    4621.0789            1 
    4500    1.6289562   -5.2494501    4630.9302            1 
    4600    1.6040136    -5.250909    4639.2564            2 
    4700    1.6055536   -5.2724268    4623.9246            2 
    4800    1.6374705   -5.2872776    4596.9732            3 
    4900    1.6159618   -5.2617634     4652.356            1 
    5000    1.6520914   -5.2890517    4653.0356            2 
    5100    1.5972206   -5.2665964     4640.619            1 
    5200    1.6565036   -5.2501559    4634.1469            1 
    5300    1.6459002   -5.2977609     4632.058            1 
    5400    1.6289833   -5.2606332    4638.5599            1 
    5500    1.6281118   -5.2571624    4671.8189            1 
    5600    1.6172772   -5.2862823    4610.8138            2 
    5700    1.6304499   -5.2569388    4625.6785            2 
    5800    1.6196801   -5.2153005    4643.4718            2 
    5900    1.5888693   -5.2677031    4663.6639            1 
    6000    1.6670768   -5.2612358    4620.2375            1 
    6100    1.6436368   -5.2927028    4627.1232            2 
    6200     1.560125   -5.2904041    4629.7403            1 
    6300    1.6528283    -5.307177    4603.7089            2 
    6400    1.6176419   -5.2790655    4600.8789            1 
    6500    1.6420539   -5.2906622     4651.894            1 
    6600    1.6429233   -5.3078622    4643.1463       -1e+20 
    6700    1.6314738   -5.2581835    4635.2571            1 
    6800    1.6451956   -5.2380052    4637.9898            2 
    6900    1.6127353    -5.273522    4644.3978            1 
    7000    1.6507036   -5.2867382    4608.5767            1 
    7100     1.626243   -5.2839901    4623.1471            1 
    7200    1.6154079   -5.3040288    4651.3205            3 
    7300    1.6618213   -5.2701466     4629.132            2 
    7400    1.6129343   -5.2325165    4628.2824            2 
    7500    1.6046341   -5.2650679    4627.5819            1 
    7600    1.6463069   -5.2772089    4634.3129            1 
    7700     1.633512   -5.2691358    4629.8481            2 
    7800    1.6059048    -5.280983    4645.6785            1 
    7900    1.6394193   -5.2964862    4642.6505            1 
    8000    1.6599385   -5.2860871    4622.1178            2 
    8100    1.6185094   -5.2823879    4650.5863            2 
    8200    1.6515195   -5.2863947    4633.6393            2 
    8300    1.6423829   -5.2737147    4638.2397            1 
    8400    1.6201379   -5.2625874    4652.0461            1 
    8500    1.6498016   -5.2490578    4649.3522            2 
    8600      1.61816   -5.2523136    4649.1792            1 
    8700    1.6293056   -5.2854834    4632.5924            2 
    8800    1.6769475   -5.2866785    4648.8991            1 
    8900    1.6271969   -5.2645275    4645.1627            1 
    9000     1.619917   -5.2484944    4654.2162            2 
    9100    1.6611773   -5.2493225    4665.1686            2 
    9200    1.6612337   -5.2633461    4627.7673            2 
    9300    1.6081137   -5.2638486    4632.1345            2 
    9400    1.6232829   -5.2679129    4662.5314            2 
    9500    1.6504829   -5.2603842    4646.3012            2 
    9600    1.6611764   -5.2750581    4624.4788            3 
    9700     1.615802    -5.269311    4670.0858            2 
    9800    1.5875376   -5.2587029    4638.7284            1 
    9900    1.6664861   -5.2715068    4613.8875            1 
   10000    1.6282946   -5.2827136    4638.3801            2 
   10100    1.6515045    -5.263232    4656.4068            2 
   10200    1.6590831   -5.2314514    4655.7257            1 
   10300    1.6336135   -5.2575951    4642.0608            3 
   10400    1.6081195   -5.2723331    4642.2093            1 
   10500    1.6398193   -5.3113002    4622.7117            2 
   10600    1.6401997   -5.2734595    4611.4553            1 
   10700    1.6519175   -5.2854614    4629.0435            6 
   10800      1.60974   -5.3115761    4619.7709            1 
   10900    1.6436732   -5.2920126     4638.203            1 
   11000    1.6342815   -5.2498953    4636.6516            2 
   11100    1.6443258   -5.2922817    4644.8548            2 
   11200    1.5972238     -5.29025    4635.9894            1 
   11300    1.6638622   -5.2956951    4620.6355            2 
   11400    1.6550667   -5.3097659    4643.7063            1 
   11500    1.6133774   -5.3058771     4623.984            2 
   11600    1.6668328   -5.3548751    4612.1278            4 
   11700    1.5996075   -5.2896318     4611.122            2 
   11800    1.6505342   -5.2996409    4630.8586            1 
   11900    1.6133023   -5.3112226    4651.3873            1 
   12000    1.6624993   -5.2817269     4636.681            1 
   12100    1.6624104   -5.2753143    4611.9042            1 
   12200    1.5814085   -5.2718546    4641.9355            1 
   12300    1.6370627   -5.2912267    4636.9365            2 
   12400    1.6553997    -5.281378    4639.1667       -1e+20 
   12500    1.6215905   -5.2668328    4664.5683            1 
   12600    1.6363891   -5.2518801    4615.4692            2 
   12700    1.6220515   -5.2524771    4614.0497       -1e+20 
   12800    1.6290506   -5.2723533    4652.7272            1 
   12900    1.6305098   -5.2758821    4644.2856            2 
   13000    1.6081101   -5.2800594    4616.0247            2 
   13100    1.6437007   -5.2612473    4636.1616            2 
   13200    1.6202334   -5.2723055      4627.31            1 
   13300    1.6349896   -5.3186864    4630.9652            1 
   13400    1.6661431   -5.2889389     4629.168            1 
   13500     1.644983   -5.2759641    4647.0968            1 
   13600     1.595101   -5.2639223    4637.9392            1 
   13700    1.6536849   -5.2907894    4625.3956            2 
   13800    1.6416692   -5.2586627    4650.7489            2 
   13900    1.6319945    -5.269951    4660.3487            1 
   14000    1.6328532   -5.2315503    4655.2872            2 
   14100    1.6339749   -5.2487468    4613.9828            1 
   14200    1.6178301   -5.2980014    4630.4924            1 
   14300    1.6392949   -5.2732476    4652.8625            5 
   14400    1.6089029   -5.2261958    4635.2448            1 
   14500    1.6574143   -5.3036443    4632.9228            1 
   14600    1.6440571   -5.2799177    4624.7749            2 
   14700    1.6160271   -5.2701194    4629.8184            3 
   14800    1.6509995   -5.2284687    4635.9265            2 
   14900     1.645359    -5.238529    4658.1431            1 
   15000    1.6261779   -5.3047004    4636.0886            3 
   15100    1.6372202   -5.2821089    4613.9915            2 
   15200    1.6411712   -5.2347518    4645.4345            2 
   15300    1.6036697   -5.2260291    4653.0154            2 
   15400    1.6534592   -5.2613314    4643.8827            2 
   15500     1.607454   -5.2612877    4658.3001            1 
   15600    1.6220215   -5.3020471    4642.1499            1 
   15700    1.6843479   -5.3000858    4605.9709            1 
   15800    1.6102764   -5.3017321    4638.6663            2 
   15900    1.6259402   -5.2942882    4665.0426            2 
   16000     1.671922   -5.2598686    4635.6659            2 
   16100    1.6069391   -5.2511694    4642.4748            1 
   16200    1.6425168   -5.2993779    4630.2022            1 
   16300    1.6393047   -5.3347428    4602.9386            2 
   16400    1.6568211   -5.2871277    4618.8041            3 
   16500    1.6187423   -5.2774441    4641.0941            1 
   16600    1.5875855   -5.2734384     4624.482            3 
   16700    1.6421391   -5.2636299    4630.0617            1 
   16800    1.6459505   -5.2797641    4624.6853            1 
   16900    1.6102719    -5.264698     4647.668            1 
   17000    1.6315629   -5.2702279    4675.4838            1 
   17100    1.6452797   -5.2838192    4623.6586            1 
   17200    1.6612642   -5.2895687    4602.7654            2 
   17300       1.5911   -5.2861645    4649.2385            2 
   17400     1.628777   -5.2619127    4631.7235            1 
   17500    1.6410224   -5.2911773    4626.7986            2 
   17600    1.6354917   -5.2947632    4634.1193            1 
   17700    1.6121183   -5.2952626    4603.0112            5 
   17800    1.6512327   -5.2766836    4622.3978            2 
   17900    1.6133434   -5.2968085    4624.7452            2 
   18000    1.6250233   -5.2865187    4618.7568            2 
   18100    1.6355934   -5.2913953    4630.4193            2 
   18200    1.6435118   -5.2619527    4647.2662            1 
   18300    1.6445395    -5.233404    4640.8865            1 
   18400    1.6113892   -5.2670104    4648.0847            2 
   18500    1.6195761   -5.2521255    4668.8575            1 
   18600    1.6534784   -5.2004359    4678.2559            1 
   18700    1.6405266   -5.2196286    4629.1312            2 
   18800     1.631127   -5.2729007    4618.7994            1 
   18900    1.5893673   -5.3253123    4642.1171            1 
   19000    1.6120873    -5.248981    4637.6849            2 
   19100    1.6801782   -5.2555957    4634.6512            1 
   19200    1.6174251   -5.2237487     4669.872            1 
   19300    1.6338562   -5.2473687    4653.5516            1 
   19400    1.6464199   -5.2917392    4612.9989            1 
   19500    1.6118736   -5.2677577    4622.0963            1 
   19600    1.6300652   -5.2513915    4643.9893            2 
   19700    1.6494162    -5.276599    4654.1939            1 
   19800    1.6477809   -5.2634548    4647.4809            2 
   19900    1.6224463   -5.2251518    4615.2765            1 
   20000    1.6448896   -5.2660601    4620.0599            1 
   20100    1.6203759   -5.3378132    4627.5839            1 
   20200    1.6121976   -5.3289115    4636.8935            1 
   20300    1.6519461   -5.2696407    4635.1293            1 
   20400    1.6051959    -5.248628    4636.1518            2 
   20500    1.6657447   -5.2664158    4636.9039            1 
   20600    1.6353448   -5.2855285     4631.302            1 
   20700    1.6289361   -5.2655354    4664.3804            2 
   20800    1.6344952   -5.2491049     4641.767            1 
   20900    1.6477352   -5.2760003     4618.808            1 
   21000    1.6416777   -5.2740165    4645.7632            2 
   21100    1.6273242   -5.3062317    4659.7006            1 
   21200    1.6224308   -5.2915829    4611.5608            1 
   21300    1.6347452   -5.2583045    4618.4489            2 
   21400    1.6294622   -5.2754511    4654.2084            2 
   21500    1.6667992   -5.2576629    4656.6686            1 
   21600    1.6396593   -5.2634774    4642.4126            1 
   21700    1.6099757   -5.2372806    4660.0177            2 
   21800    1.6418439   -5.2256195     4646.462            2 
   21900    1.6295511   -5.2566407    4623.5573            1 
   22000    1.6588257   -5.2649765    4636.8314            1 
   22100    1.6089207   -5.2530824    4687.7587            2 
   22200    1.6387151   -5.2348462    4642.9061            2 
   22300    1.6491498   -5.2516668    4621.5915            2 
   22400    1.6068347   -5.3067785    4642.9824            2 
   22500    1.6451107   -5.2572239    4648.1715            1 
   22600    1.6395381    -5.214811    4637.0574            1 
   22700    1.6050482   -5.2299965    4656.7295            1 
   22800    1.6073583      -5.2413    4642.5962            2 
   22900    1.6401196   -5.2372597    4624.6902            2 
   23000    1.5888804   -5.2602849    4636.3123            1 
   23100    1.6364485   -5.2550687     4633.494            1 
   23200    1.6113188    -5.236211    4628.8735            1 
   23300    1.6356777   -5.2727092    4624.7025            1 
   23400    1.6003008   -5.2776607    4642.3109            1 
   23500    1.6590757    -5.269626     4648.745            1 
   23600    1.6239646   -5.2438167    4646.3371            2 
   23700     1.612879   -5.2759071    4621.3996            2 
   23800    1.6283728    -5.275514    4625.4244            2 
   23900    1.6578805   -5.2538652    4676.4331            1 
   24000     1.634434   -5.2334937    4646.9152            2 
   24100    1.6133241   -5.2167914    4645.3165            1 
   24200    1.6326124   -5.2665971    4635.8914            2 
   24300    1.6537225   -5.2782393    4637.3984            1 
   24400    1.6081621   -5.2725382    4656.7252       -1e+20 
   24500    1.6349716   -5.2427987    4624.6568            1 
   24600    1.6273412   -5.2787444    4616.7101            2 
   24700    1.6348732   -5.2694495    4634.6312            2 
   24800    1.5994771    -5.233609    4656.4221            2 
   24900    1.6511724   -5.2476458    4635.5628            1 
   25000    1.6338088   -5.2190499    4651.9119            2 
   25100    1.6111632   -5.2689854    4633.8001            1 
   25200    1.6419934    -5.272765    4625.1814            2 
   25300    1.6161596   -5.2496388    4636.9856            2 
   25400     1.635617   -5.2438766    4667.4905            1 
   25500    1.6380942   -5.2656093    4647.6035            2 
   25600    1.6385694   -5.2669411    4607.1132            1 
   25700    1.6463424   -5.3055455    4639.8065            1 
   25800    1.5961377   -5.2664507    4648.2324            2 
   25900    1.6255859   -5.3123796    4596.1716            2 
   26000    1.6492246   -5.2780399    4631.0904            1 
   26100    1.6268475   -5.2537624    4634.8514            1 
   26200     1.586484   -5.2715431    4641.8114            1 
   26300    1.6660793   -5.3077821    4629.7061            3 
   26400    1.6279294   -5.2820371    4631.1061            1 
   26500    1.6334441   -5.3161995    4632.7139            1 
   26600    1.6202167    -5.279709    4636.0927            1 
   26700    1.6353393    -5.250677    4650.9457            1 
   26800    1.6466728   -5.2562064    4645.1505            2 
   26900    1.6249684   -5.2843388    4639.1904            1 
   27000    1.5934545   -5.3211388    4622.1311            1 
   27100    1.6499526    -5.301189    4609.7616            3 
   27200    1.6399718   -5.2223282    4623.3501            1 
   27300    1.6014653   -5.2763793    4649.2574            1 
   27400    1.6353975   -5.3128169    4625.8788            2 
   27500    1.6313472   -5.2329657    4630.5363            2 
   27600    1.6496374   -5.2472888    4636.6347            1 
   27700     1.610604   -5.2936167    4634.3516            1 
   27800    1.5981356   -5.2777819    4630.7386            1 
   27900    1.6570513   -5.2909532    4634.4913            1 
   28000    1.6540447   -5.2606459    4630.7937            1 
   28100    1.6110905   -5.2518964    4655.1256            1 
   28200    1.6322307   -5.2494124    4678.6536            1 
   28300    1.6627516   -5.1860033     4652.582            2 
   28400     1.651596   -5.2382264    4626.9896            1 
   28500     1.610636   -5.2917504    4634.5621            2 
   28600    1.6374592   -5.2704894    4633.1769            1 
   28700    1.6071323   -5.2951843    4611.1313            1 
   28800    1.6406687   -5.2982286     4609.496            1 
   28900    1.6105428   -5.2828614     4641.172       -1e+20 
   29000     1.644357   -5.2728488    4632.1331            1 
   29100    1.6143232   -5.2430133    4630.3549            1 
   29200    1.6567321   -5.2553479    4649.0582            2 
   29300    1.6130784   -5.2815927    4653.8525            1 
   29400    1.6355383   -5.2914603    4633.4946            1 
   29500    1.6670048   -5.2661908     4602.257            1 
   29600     1.622321   -5.2445938     4653.609            3 
   29700     1.626642   -5.2713529    4644.3965            3 
   29800    1.6408322   -5.2960602    4616.0325            2 
   29900    1.6073255   -5.2823498    4621.1965            1 
   30000    1.6171667   -5.2376146    4647.5332            3 
   30100    1.6557595   -5.2506824    4655.6941            1 
   30200    1.6007624   -5.2245881    4647.7671            1 
   30300    1.6271699   -5.2951834    4627.5249            1 
   30400      1.63895   -5.3149189     4612.594            1 
   30500    1.6199235   -5.3055444    4635.9263            1 
   30600    1.6374566   -5.2859753    4632.0777            1 
   30700    1.6712986   -5.2829324    4646.2278            2 
   30800    1.6159342   -5.2813921    4648.2448            1 
   30900    1.6308596   -5.2774362    4634.3856            1 
   31000    1.6341194   -5.2231756    4629.1154            2 
   31100    1.6000448    -5.274518      4624.91            2 
   31200    1.6370151   -5.2998318    4651.1719            2 
   31300     1.625892   -5.2567652    4650.1793            1 
   31400    1.6512562   -5.2188571    4636.3937            1 
   31500    1.6318931   -5.2880351    4638.6851            3 
   31600    1.6259246   -5.2708035    4641.3272            2 
   31700     1.654922   -5.2663491    4666.0807            1 
   31800    1.6397094    -5.270653     4628.406            2 
   31900    1.6360449   -5.2911801    4622.1939            3 
   32000    1.6245622   -5.2480198    4655.1236            4 
   32100    1.6412333   -5.2546538    4648.0065            3 
   32200    1.6247335   -5.2329566    4611.7259            2 
   32300    1.6475592   -5.2721276    4649.2104            1 
   32400    1.5962832   -5.2574314    4658.0323            2 
   32500    1.6683492   -5.2981934    4621.6077            2 
   32600    1.6181588   -5.2700034    4607.8189            2 
   32700      1.61331   -5.3082525    4632.9614            1 
   32800    1.6606764   -5.3073991    4633.2885            2 
   32900     1.601627    -5.281709    4623.0349            2 
   33000    1.6288497   -5.2647089    4633.7366            1 
   33100    1.6552352   -5.2598882    4630.5541            2 
   33200    1.6298742    -5.275785    4641.0137            2 
   33300    1.6147622   -5.2928083    4646.1812            2 
   33400    1.6253101   -5.3200857    4602.0248            2 
   33500    1.6423587   -5.2978375     4632.944            1 
   33600    1.6429691   -5.2820819    4651.6521            2 
   33700    1.6491623   -5.2510894    4657.1816            1 
   33800    1.6513915   -5.2578318    4635.5029            2 
   33900    1.6038618   -5.2410136    4658.9423            1 
   34000    1.6410375   -5.2743795    4627.8825            2 
   34100    1.5956672   -5.2731869    4627.7868            3 
   34200    1.6255768   -5.2680006    4626.8702            2 
   34300    1.6519721   -5.2479211    4639.3381            2 
   34400    1.5933746     -5.25365    4634.8358            1 
   34500    1.6478239   -5.2938543    4620.9478            1 
   34600    1.6233917   -5.2937392    4638.0061            2 
   34700    1.6258206   -5.3179298     4661.722            2 
   34800    1.6497514   -5.2573912    4632.8767            2 
   34900    1.6333921   -5.2697058    4631.5152            1 
   35000    1.6177426   -5.2903399    4635.6915            2 
   35100    1.6123097   -5.2262693    4646.1904            1 
   35200    1.6399555   -5.2688045     4649.747            1 
   35300    1.5944351   -5.2574759    4621.8869            1 
   35400    1.6493852   -5.2755638    4622.0821            2 
   35500    1.6146749   -5.2979827    4647.7972            1 
   35600    1.6244575   -5.2753236    4634.2324            1 
   35700    1.6258962   -5.2445494    4610.7506            1 
   35800    1.6184577   -5.2544857    4655.3472            2 
   35900    1.6123583   -5.2747463    4656.4325            2 
   36000    1.6620567   -5.2496606    4598.5638            2 
   36100    1.6024372   -5.2634343    4643.2603            1 
   36200    1.6080606   -5.2924074    4662.4961            3 
   36300    1.6055737   -5.2749472      4621.06            2 
   36400    1.6344482   -5.2636213    4611.0488            4 
   36500    1.6407617   -5.2711525    4641.3367            1 
   36600    1.6026577   -5.2802625    4635.6479       -1e+20 
   36700    1.6366099    -5.282219    4608.9347            1 
   36800     1.638185   -5.2562192    4648.5477            1 
   36900    1.6490473   -5.3098378     4637.451            2 
   37000    1.6225977   -5.2906586    4646.0563            2 
   37100    1.6401574   -5.2522493    4632.0283            2 
   37200    1.6489744   -5.2707879    4622.4274            2 
   37300    1.5946359   -5.2462601    4642.9766            2 
   37400    1.6404663   -5.2889197    4667.8575            1 
   37500    1.6670083   -5.2674549     4638.361            1 
   37600    1.6556528   -5.2843218     4608.599            1 
   37700    1.6231882   -5.3354221    4626.3196            1 
   37800    1.6268394   -5.3189392    4636.7619            1 
   37900    1.6521072   -5.3130464    4614.2406            4 
   38000    1.6324237   -5.3138622    4612.7458            1 
   38100    1.6065201   -5.2513421    4659.9728            3 
   38200    1.6441968   -5.2585278    4636.4526            1 
   38300    1.6081332   -5.2140294    4627.8455            3 
   38400    1.6652039   -5.2495801    4643.2666            1 
   38500    1.6270571   -5.2622462    4673.5804            1 
   38600    1.6309025   -5.2599902    4651.0652            1 
   38700    1.6407137   -5.2471631     4632.381            1 
   38800    1.6025243   -5.2638698    4619.3102            1 
   38900    1.6256304   -5.3016904    4636.3042            1 
   39000     1.630987   -5.2822182    4638.6599            2 
   39100    1.6199787   -5.2740193    4619.4801            2 
   39200    1.6460081   -5.2534421    4657.5253            2 
   39300    1.6391177   -5.2541007    4643.0415            1 
   39400    1.6448821   -5.2873149    4637.7578            1 
   39500    1.6064026   -5.2822379    4642.4169            2 
   39600    1.6174833   -5.2541758    4621.0565            4 
   39700    1.6413515   -5.2210263    4648.1861            2 
   39800    1.6521655   -5.2714487    4665.5125            1 
   39900    1.6019985    -5.236539    4646.3844            2 
   40000    1.6408974   -5.2287918    4630.3036            2 
   40100    1.6802933   -5.2520545     4653.794            1 
   40200    1.5820196   -5.2173046    4667.5509            4 
   40300    1.6748784   -5.3018138     4631.533            2 
   40400    1.6043265   -5.2433272    4645.3036            1 
   40500    1.6236427   -5.2381805    4655.0785            1 
   40600    1.6216122   -5.3028939    4620.1804            1 
   40700    1.6317631   -5.2983109    4630.2395            2 
   40800    1.6385793   -5.2624637    4654.1066            2 
   40900    1.6172266   -5.2880377    4615.7124            3 
   41000    1.6102148   -5.2691505    4625.9205            3 
   41100    1.6628849   -5.2963405     4629.147            1 
   41200    1.5951644   -5.2787051    4644.3854            3 
   41300    1.6280881   -5.2707528    4642.0318            2 
   41400    1.6798439   -5.2558418    4649.3403            1 
   41500    1.6064311   -5.2638751    4656.9481            3 
   41600    1.6093127   -5.2826939    4637.2538            2 
   41700    1.6763864   -5.2901521    4604.4487            1 
   41800    1.6388482   -5.2932142    4640.7996            1 
   41900     1.611841   -5.2956502    4631.4288            1 
   42000    1.6516622   -5.2664661    4612.1379            1 
   42100     1.627924   -5.2195809    4655.3421            1 
   42200    1.6081895   -5.2222134    4645.5114            1 
   42300    1.6328835   -5.2538532    4637.1843            2 
   42400    1.6059476     -5.26582    4641.9128            2 
   42500    1.6641817   -5.2889621     4633.391            1 
   42600    1.6210117   -5.2942516    4619.5251            1 
   42700     1.611607   -5.2956287     4641.149            3 
   42800    1.6387247     -5.24893    4636.5877            1 
   42900    1.6273449   -5.2825322    4628.5228            2 
   43000    1.5993183   -5.2772648    4616.1857            1 
   43100    1.6595676    -5.336295    4618.3355            1 
   43200    1.6037909   -5.2830658    4622.4855            2 
   43300    1.6392315    -5.268519    4646.6874            1 
   43400    1.6240892    -5.268445    4631.3057            2 
   43500    1.6534381   -5.2730334     4624.219            1 
   43600    1.6248234   -5.2478084    4664.0771            2 
   43700    1.6489268   -5.2309736    4660.2535            1 
   43800    1.6505387   -5.2818674    4615.8049            2 
   43900    1.6099066   -5.2799228     4625.053            2 
   44000    1.6191144   -5.2457242    4651.5897            1 
   44100    1.6413472   -5.2597649    4645.4096            1 
   44200    1.6028953   -5.2667635    4635.0335            2 
   44300     1.641637   -5.2822803    4628.1796            3 
   44400    1.6078883   -5.2895526    4642.6176            2 
   44500    1.6621785   -5.2972218    4617.0089            1 
   44600    1.6086423   -5.2795944    4634.0669            1 
   44700    1.6300922   -5.2997798    4632.5511            1 
   44800    1.6331022   -5.2469754    4665.7074            1 
   44900    1.6272137   -5.2556366    4649.1135            1 
   45000     1.624864      -5.2868    4617.3879            1 
   45100    1.6501979   -5.2619016    4633.4713            2 
   45200    1.6194198   -5.2593504    4647.9478            1 
   45300    1.5814673   -5.3081007    4655.8127            2 
   45400    1.6442677    -5.262611    4624.5789            3 
   45500    1.6516437   -5.2233141    4626.7569            1 
   45600    1.6060525   -5.2749559    4644.5448            1 
   45700    1.6250351   -5.3085932    4609.1318            1 
   45800    1.5896081   -5.2719897    4599.1089            1 
   45900    1.6129535   -5.2514652    4641.5164            1 
   46000    1.6354706   -5.2399897    4646.3648            4 
   46100    1.6482539   -5.2409623    4643.3635            3 
   46200    1.6070571   -5.2738243    4644.0668            1 
   46300    1.6297827   -5.2593633     4627.247            2 
   46400    1.6567142   -5.2504463    4633.3556            1 
   46500    1.5997275   -5.2634631    4653.8299            1 
   46600    1.6426826   -5.2884741    4651.3814            2 
   46700    1.6420179   -5.2408613    4643.3134            2 
   46800    1.6700024    -5.226062    4648.1232            3 
   46900    1.5970193   -5.2220776     4649.425            1 
   47000    1.6302383   -5.2792926    4634.4189            1 
   47100    1.6708665   -5.2769353    4634.5524            1 
   47200    1.6228746   -5.2641427    4651.3816            2 
   47300    1.6617688   -5.2918444    4625.9867            1 
   47400    1.6123545   -5.2923549    4615.3508            1 
   47500    1.6293529    -5.275171    4654.9144            1 
   47600    1.6408707   -5.3227863    4636.9723            2 
   47700    1.6238658   -5.3091838    4612.9563            1 
   47800    1.6572367    -5.287568    4628.4953            1 
   47900    1.6687364    -5.289208    4634.0422            3 
   48000    1.6090953   -5.2993885    4635.1952            2 
   48100    1.6307449   -5.2767343    4634.8119            2 
   48200    1.6559972   -5.2638087    4641.6526            1 
   48300    1.6390303   -5.2866436     4640.354            2 
   48400    1.6040096   -5.2563402    4631.8512            2 
   48500    1.6428507   -5.3105452    4606.2333            4 
   48600    1.5839974   -5.2579832    4617.3626            1 
   48700    1.6409989   -5.2983161    4628.9731            1 
   48800    1.6745695   -5.3053381    4635.5986       -1e+20 
   48900    1.6204807    -5.293903    4649.2211            2 
   49000    1.6270896   -5.2885727    4622.1848            2 
   49100    1.6442019   -5.2894588    4626.2762            1 
   49200    1.6300762   -5.2790951    4648.1069            3 
   49300    1.6194703   -5.2870872    4617.3804            3 
   49400    1.6448282   -5.3049826    4632.2528            2 
   49500    1.6138437   -5.2983385    4628.1865            2 
   49600    1.6407278    -5.297175    4632.5178            2 
   49700    1.5992335   -5.2728191    4632.2918            1 
   49800    1.6339537   -5.3121308    4613.6487            2 
   49900    1.6265881   -5.2482962    4645.6287            1 
   50000     1.649659   -5.2566385    4643.7234            1 
   50100    1.6230283   -5.3053947    4619.6483            1 
   50200    1.5930216   -5.2926634    4627.2599            5 
   50300    1.6415147   -5.2780846    4635.2801            4 
   50400     1.599082   -5.2462573    4620.8949            2 
   50500    1.5960268   -5.2787499    4607.0199            1 
   50600    1.5703968   -5.2623291    4643.7187            1 
   50700    1.6463273   -5.2647391    4625.2187            3 
   50800    1.6285782   -5.2468907    4632.3484            2 
   50900    1.6368797   -5.2282165    4685.0917            3 
   51000    1.6280042   -5.2471209    4635.5927            1 
   51100    1.5939223   -5.2295482    4630.1224            1 
   51200    1.6737739   -5.2411187    4641.0712            1 
   51300    1.6211331   -5.2489478    4658.6418            3 
   51400    1.6193945   -5.2329932      4644.67            1 
   51500    1.6204849   -5.2226526    4636.8156            2 
   51600    1.6570605   -5.1982286    4653.5241            2 
   51700    1.6411482   -5.2366729    4663.4647            1 
   51800    1.6210057   -5.2591192     4632.601            1 
   51900    1.6287448   -5.2319964    4641.3666            1 
   52000    1.6215713    -5.250589    4648.8573            1 
   52100    1.6223131   -5.2868072    4627.4306            2 
   52200     1.647255   -5.3058995    4609.0684            1 
   52300    1.5962005   -5.2469814     4648.149            4 
   52400    1.6449409   -5.2493539    4651.4721            1 
   52500    1.6370162     -5.29696    4629.5216            4 
   52600    1.5838925   -5.2717667    4613.1627            1 
   52700    1.6500106   -5.3162829    4635.9735            1 
   52800    1.5965174   -5.2945674    4617.9829            1 
   52900    1.6117773   -5.2606622     4611.015            2 
   53000     1.637511   -5.2614738    4617.0779            3 
   53100    1.6128683   -5.2686431    4636.9078            1 
   53200    1.6239742   -5.3329165    4613.7292            3 
   53300     1.599725   -5.2826345    4614.1047            2 
   53400    1.6300615   -5.2480295    4620.1552            1 
   53500    1.6265117   -5.2373692    4657.3507            1 
   53600    1.6277328    -5.266341    4659.7089            1 
   53700     1.655216   -5.3083397    4600.3635            1 
   53800    1.6070536    -5.282572    4623.3617            2 
   53900    1.6433997   -5.2993954     4643.472            2 
   54000    1.5861745   -5.2898602    4640.3297            2 
   54100    1.6284868   -5.2830967    4602.0238            1 
   54200    1.6505992   -5.2877306    4615.9358            1 
   54300    1.6634957     -5.26209    4656.9519            3 
   54400     1.614197   -5.2409723    4649.6355            1 
   54500    1.6335699   -5.2898306     4611.506            1 
   54600    1.6195184   -5.2923903    4633.8905            2 
   54700    1.6433301    -5.286652    4633.0515            2 
   54800    1.5834278   -5.2952189    4629.6808            1 
   54900    1.6167705   -5.2445701    4630.8551            1 
   55000    1.6616622   -5.2886896    4616.8633            2 
   55100    1.6027343   -5.2610913    4636.3617            2 
   55200    1.5933478   -5.2764038    4627.3371            1 
   55300    1.6457901   -5.2567023    4619.5866            2 
   55400     1.607245   -5.2766273    4616.3167            1 
   55500    1.5885473   -5.2965167    4608.7474            1 
   55600    1.6216769   -5.2986423    4645.3107            2 
   55700    1.6616877   -5.2685594     4629.047            1 
   55800    1.5892541   -5.2137411    4637.9268            1 
   55900    1.6482844   -5.2619434    4676.9969            2 
   56000    1.6432351    -5.245875    4650.0216            1 
   56100    1.6402394   -5.2390265    4645.6323            2 
   56200    1.6474965   -5.2360097    4658.8873            2 
   56300     1.609151   -5.2806271    4650.1758            2 
   56400     1.667606    -5.280807    4633.3548            2 
   56500    1.6408753   -5.3021491     4625.806            1 
   56600    1.5921572   -5.3109936    4613.3639            1 
   56700    1.6130051   -5.3018119    4627.3223            1 
   56800    1.6504545   -5.2716295    4624.4746            1 
   56900    1.6497349   -5.2879556    4644.0214            1 
   57000    1.6373022   -5.2657684     4660.403            1 
   57100    1.6318641   -5.2880806    4620.0393            1 
   57200    1.6412961   -5.2748087    4627.6285            4 
   57300    1.6296385   -5.2758888    4636.9572            3 
   57400    1.6094337   -5.3022177      4638.82            1 
   57500    1.6503754   -5.3092513    4610.8092            1 
   57600    1.6519608   -5.2701656    4632.3506            3 
   57700    1.6509285   -5.2804135    4660.4713            1 
   57800     1.611623   -5.2478519    4653.1359            3 
   57900    1.6454949   -5.2923551    4624.9994            3 
   58000    1.6361974   -5.2403023    4641.0255            2 
   58100    1.6188344   -5.2355104    4666.7456            1 
   58200    1.6455988   -5.2635593    4625.8197            2 
   58300     1.642199   -5.2915441    4615.4839            2 
   58400     1.610182   -5.3221424    4628.5179            2 
   58500    1.6444951   -5.3170866    4624.7718            1 
   58600    1.6323692   -5.2634804    4641.5896            1 
   58700    1.6466648   -5.2595546    4639.3203            1 
   58800    1.6127004   -5.3208526    4641.0922            1 
   58900    1.6225128   -5.2614935     4636.042            1 
   59000    1.6736193   -5.2802705    4622.8098            1 
   59100    1.6354179   -5.3127365    4628.3628            6 
   59200    1.5830001   -5.2417383     4651.859            2 
   59300    1.6375288   -5.2193093    4652.5653            1 
   59400    1.6460853   -5.2013144    4622.0161            1 
   59500    1.6208909   -5.2784457    4632.5832            2 
   59600    1.6246923   -5.2875658    4640.0037            3 
   59700    1.6284841   -5.3008924    4622.4382            2 
   59800    1.6292077    -5.268309    4626.8956            1 
   59900    1.5922299   -5.2852967    4632.8082            3 
   60000    1.6323579   -5.2491316    4614.3844            1 
   60100    1.6277637   -5.2323147    4638.6006            2 
   60200     1.615836   -5.2541882    4648.6175            1 
   60300     1.596016    -5.265982    4631.4782            1 
   60400     1.656925   -5.2675342    4647.5752            2 
   60500    1.6146199   -5.2383976    4659.8195            2 
   60600    1.6353845   -5.2458174    4646.2073            2 
   60700    1.6795905   -5.2798484    4600.7335            2 
   60800    1.6079007   -5.3076371    4620.0083            4 
   60900    1.5973186   -5.2596276     4636.584            2 
   61000    1.6670798   -5.2889373    4617.2172            1 
   61100    1.6347888   -5.3032869    4619.4605            1 
   61200    1.5833507   -5.2783083    4631.5619            1 
   61300    1.6569806   -5.2969526    4625.3821            2 
   61400    1.6749659   -5.2588603    4633.7253            1 
   61500    1.6276799   -5.2731255    4671.2478            1 
   61600    1.6244479   -5.3024545    4630.1848            1 
   61700     1.659951   -5.3290975    4616.7386            2 
   61800    1.6247651   -5.2834875    4623.2058            1 
   61900    1.6283719   -5.2884898    4621.8158            1 
   62000    1.6281813   -5.2505067    4644.2398            1 
   62100    1.6475328   -5.2887038    4630.8302            3 
   62200    1.6121422   -5.2523508    4629.2832            1 
   62300    1.6407017   -5.2251654    4639.9695            1 
   62400    1.6354487     -5.23856    4624.8629            2 
   62500    1.6352598   -5.3174334    4632.7686            1 
   62600    1.6154789    -5.305965    4620.1108            1 
   62700    1.6399349   -5.2640789    4588.7425            2 
   62800    1.6223022   -5.3193429    4641.1904            3 
   62900    1.6514603   -5.2930346    4666.7369            1 
   63000    1.6276509   -5.2543922    4631.8079            2 
   63100     1.611483   -5.2897046    4621.8844            2 
   63200    1.6295848   -5.2694722    4645.5173            1 
   63300    1.6225385   -5.2821379    4635.9483            1 
   63400    1.6361236    -5.263563    4639.6533            2 
   63500    1.6523526   -5.2484646    4650.0245            4 
   63600    1.6309506   -5.2351539    4639.7731            2 
   63700    1.6166334   -5.2810618    4621.9496            1 
   63800    1.6494263   -5.2668738    4620.0663            2 
   63900    1.5966605   -5.2842046    4647.8964            1 
   64000    1.6184775   -5.2283212    4663.2852            7 
   64100    1.6665954   -5.2193593    4634.6527            3 
   64200    1.6229512   -5.2638181    4655.2889            1 
   64300    1.5979622   -5.2812333    4643.4062            2 
   64400     1.636203   -5.2574979    4639.0797            1 
   64500    1.6604476   -5.2626701    4641.1357            1 
   64600     1.624357   -5.3041901    4642.1649            1 
   64700    1.6224741   -5.3196348    4624.4048            1 
   64800    1.6212957   -5.2339963    4635.5327            1 
   64900     1.637036   -5.2613817    4634.6026            2 
   65000    1.5835134   -5.2651468    4618.0287            1 
   65100    1.6204554   -5.2464544    4650.3549            2 
   65200    1.6395768    -5.234919    4639.0252            1 
   65300     1.643778   -5.2516295    4628.7957            3 
   65400    1.5974229   -5.2731084    4632.0209            1 
   65500    1.6582718   -5.2700601    4631.6866            1 
   65600    1.6115541   -5.2832134    4630.2563            2 
   65700    1.6095224   -5.2496388    4640.9917            1 
   65800    1.6388872   -5.2451043    4621.1394            1 
   65900    1.6266805   -5.2734848    4632.7994            3 
   66000    1.6661792   -5.2817479    4658.2422            1 
   66100    1.6204767   -5.2779388     4658.415            2 
   66200    1.6273039      -5.2851     4624.709            3 
   66300    1.6429168   -5.3088501    4599.2308            1 
   66400    1.6186079   -5.2999745    4626.9381            1 
   66500    1.6676449   -5.3005364    4640.4649            2 
   66600    1.6037567   -5.2925075    4625.8338            2 
   66700    1.6137498   -5.2775823    4618.4699            4 
   66800    1.6166174    -5.231139    4625.3161            1 
   66900    1.6392033   -5.3177779    4622.2719            1 
   67000    1.5908329   -5.2966207    4619.7305            2 
   67100    1.6448261   -5.3007758    4632.7102            1 
   67200    1.6116554    -5.279558    4613.7081            1 
   67300    1.6248473   -5.3143538    4598.8602            1 
   67400    1.6330998   -5.3149146    4623.4005            2 
   67500    1.6200241   -5.2643292    4649.9181            1 
   67600    1.6311636    -5.246101    4647.7978            4 
   67700    1.6269582   -5.2693926    4629.8978            1 
   67800    1.6221711    -5.305391    4609.6631            1 
   67900    1.6377995   -5.2882615    4621.1043            1 
   68000     1.609052   -5.2849141    4624.3647            1 
   68100    1.6282531   -5.3077609    4612.7949            2 
   68200    1.6288126   -5.2492085    4642.4789            1 
   68300    1.6363191   -5.2570382    4648.4104            1 
   68400    1.6056235   -5.2938063    4640.3226            2 
   68500    1.6402107   -5.3107579     4620.141            1 
   68600    1.6302117   -5.2453707      4624.26            2 
   68700    1.6596485   -5.2701835    4646.5515            2 
   68800    1.6306588   -5.3155112    4639.5483            1 
   68900     1.611749    -5.261826    4650.7264            2 
   69000    1.6316178   -5.2142559    4646.0042            3 
   69100    1.6452879   -5.2824019    4623.0814            1 
   69200    1.5873178   -5.2736494    4627.5385            1 
   69300    1.6450074   -5.2779993    4633.7205            2 
   69400     1.662847   -5.2833695    4630.1437            3 
   69500    1.5997479   -5.2283333    4664.3513            1 
   69600    1.6323372   -5.2641807    4637.2929            1 
   69700     1.619503   -5.2879358    4602.2764            2 
   69800     1.589406   -5.3081845    4614.4334            2 
   69900    1.6419474   -5.3164874    4620.6844            1 
   70000     1.619118   -5.3184884    4593.6639            2 
   70100    1.5947509    -5.317087    4606.6321            1 
   70200    1.6230835   -5.2992588    4642.7891            4 
   70300    1.6419927   -5.2601635    4628.8591            1 
   70400    1.6232011   -5.2683163    4623.4347            2 
   70500    1.6254693   -5.2861688    4628.4551       -1e+20 
   70600    1.6350664   -5.2775509    4649.4531       -1e+20 
   70700    1.6375403   -5.2511825    4627.0145            2 
   70800    1.6522242   -5.2410569     4651.767            1 
   70900    1.6183761   -5.2673199    4663.5975            1 
   71000    1.6396873   -5.2610773     4624.788            1 
   71100    1.6545922   -5.3268442    4613.1703            4 
   71200    1.6448678   -5.2900964    4640.0862            1 
   71300    1.6263118   -5.2721856    4655.9635            1 
   71400    1.6606899   -5.2956465    4629.8505            1 
   71500    1.6111128    -5.267807    4625.1651            5 
   71600    1.6730437   -5.2845361    4649.0547            2 
   71700     1.654014   -5.2999203    4642.9841            2 
   71800    1.5857173   -5.2481941     4647.109            2 
   71900      1.64659    -5.237151    4647.9709            1 
   72000     1.650499   -5.2134045    4619.9634            1 
   72100    1.6047134   -5.2584849    4640.4139            2 
   72200    1.6521138   -5.2741142    4630.5815            1 
   72300    1.6024527   -5.2818286    4618.2512            1 
   72400    1.6251652   -5.2682554    4641.6654            1 
   72500    1.6445081   -5.2530543    4639.1267            2 
   72600    1.6491103   -5.2802191     4620.543            2 
   72700    1.6023064   -5.3053612    4622.9953            2 
   72800    1.6153972   -5.2859733    4655.6275            1 
   72900    1.6525097   -5.2491091    4626.4512            3 
   73000    1.6543958   -5.2801645    4624.7596            1 
   73100    1.6150572   -5.2799228    4655.8627            2 
   73200    1.6375333   -5.2520331    4647.5277            1 
   73300    1.6617882   -5.2631406    4626.0678            4 
   73400    1.6332205   -5.3015128    4641.2301            1 
   73500    1.6321799   -5.2710642    4649.5148            1 
   73600    1.6287509   -5.3283516     4633.131            2 
   73700    1.5925985   -5.3019109     4607.839            1 
   73800    1.6357544    -5.271771    4611.1944            4 
   73900    1.6367816   -5.2487208    4646.3712            1 
   74000     1.595993   -5.2477572    4644.2988            2 
   74100     1.644815    -5.268366    4609.4796            3 
   74200    1.6049286    -5.263979    4617.3798            2 
   74300    1.6220922   -5.2604223    4653.4085            2 
   74400    1.6476975   -5.2363534    4639.8109            1 
   74500    1.6501721   -5.2933173    4628.4931            2 
   74600    1.5980385   -5.2887334    4649.6472            1 
   74700    1.6539381   -5.3031607    4628.1639            1 
   74800    1.6757387   -5.2526706    4633.7205            1 
   74900    1.6243614   -5.2642179       4645.6            1 
   75000     1.596316   -5.2197436    4655.4778            1 
   75100    1.6642661   -5.2648119    4639.2249            2 
   75200    1.6238319   -5.2630993    4620.5869            2 
   75300    1.6414445   -5.2631401    4636.8966            1 
   75400    1.6425481   -5.2510335    4666.0372            2 
   75500     1.626271   -5.2807816    4604.3658            2 
   75600    1.6533699   -5.3041651    4608.1385            2 
   75700    1.5894088   -5.3079339    4634.7711            1 
   75800    1.6397677   -5.2964501    4635.2784            2 
   75900    1.6598978   -5.2869938     4639.818            1 
   76000    1.5833197   -5.2537859    4654.0032            2 
   76100    1.6381014   -5.2615848    4634.3097            1 
   76200    1.6715783   -5.2027739    4632.0537            1 
   76300    1.6200943   -5.2615839    4636.0571            2 
   76400     1.613718   -5.2956354     4638.259            2 
   76500    1.6450585   -5.2660271    4634.8974            2 
   76600    1.6740924   -5.2823338    4638.5837            4 
   76700    1.6178934   -5.2870654    4642.2709            1 
   76800    1.5932831   -5.2565794    4628.5586            1 
   76900    1.6450232   -5.2555196    4614.0825            1 
   77000    1.6247766   -5.2559396     4646.314            1 
   77100    1.6348366   -5.2834191    4654.4658            1 
   77200    1.6404175   -5.2915709    4619.2083            1 
   77300    1.6036098   -5.2824803    4631.5883            1 
   77400    1.6230548   -5.2461913    4654.0612            2 
   77500    1.6273635   -5.2307142    4635.1001            1 
   77600    1.6285817   -5.2676127    4611.6728            1 
   77700    1.6302828   -5.3240673    4620.8528            2 
   77800    1.6274415   -5.2805261    4648.6651            1 
   77900    1.6327607   -5.2607378    4627.4236            1 
   78000     1.616715   -5.2529522    4638.5946            2 
   78100    1.6433237   -5.2225804    4633.9511            1 
   78200    1.6126859    -5.288049    4632.0604            1 
   78300    1.6281603   -5.3136922    4642.9851            2 
   78400    1.6600918   -5.2477021     4648.518            1 
   78500    1.6537235   -5.2383739    4641.3879            1 
   78600    1.6130491   -5.2578499    4649.6986            2 
   78700    1.6593213    -5.249176     4633.204            1 
   78800    1.6304359   -5.2675568    4654.8364            1 
   78900    1.5949108   -5.2903425    4640.3125            1 
   79000    1.6603768   -5.2619722    4616.5556            2 
   79100    1.6099421   -5.2733334    4642.4154            2 
   79200    1.6300686   -5.2672897    4655.0414            1 
   79300    1.6175475   -5.2898456    4629.2925            2 
   79400     1.617172   -5.2758981    4617.6195            2 
   79500    1.6441244   -5.2306335     4623.962            1 
   79600    1.5942326   -5.2497676    4655.5072            1 
   79700    1.6400326   -5.2756917    4643.8408            2 
   79800    1.6200052   -5.2243339    4627.7121            1 
   79900    1.6593141   -5.2267096    4670.9507            2 
   80000    1.6248182   -5.2260586    4658.1252            2 
   80100    1.6254588   -5.2735702    4640.8789            1 
   80200    1.6404639   -5.2307406    4627.8153            2 
   80300    1.6465162   -5.2557866    4666.8321            1 
   80400    1.6275557   -5.2751354    4619.9753            1 
   80500    1.6190475   -5.2324649    4641.1236            1 
   80600    1.6173435   -5.2486591    4648.6911            6 
   80700    1.6390393   -5.2694642    4624.4701            1 
   80800    1.6491394   -5.2684834      4610.73            2 
   80900    1.6179816   -5.3251176    4653.9455            2 
   81000    1.5944353   -5.2637351     4625.808            1 
   81100    1.6154939   -5.2254495    4620.7368            2 
   81200      1.61439   -5.2129684    4627.3853            1 
   81300     1.592413   -5.2489908    4635.4633            1 
   81400    1.6379036    -5.249367    4636.2126            1 
   81500    1.6128697   -5.2570629    4637.0767            1 
   81600    1.6115773   -5.2628564    4633.8173            2 
   81700    1.6643374   -5.2892665    4630.6129            1 
   81800    1.6053716   -5.3112435    4644.1738            2 
   81900    1.6607984   -5.3007647    4609.5855            1 
   82000     1.628594   -5.2809154    4623.0667            1 
   82100     1.625101   -5.2826644    4641.4994            4 
   82200    1.6228179   -5.2972579    4631.0957            1 
   82300    1.6614514   -5.2976156    4649.2272            1 
   82400    1.6160936   -5.2475103    4651.0816            1 
   82500    1.6194476   -5.2943856    4607.4826            4 
   82600    1.6707889   -5.3082125    4626.9008            1 
   82700    1.5752276   -5.2681354     4652.531            4 
   82800    1.6504511   -5.2653244    4629.8361            1 
   82900    1.6551682   -5.2532374     4613.631            2 
   83000    1.6113363   -5.3031484    4648.3606            1 
   83100    1.6165115   -5.2523786    4661.0484            1 
   83200    1.6330821   -5.2184838    4654.0369            2 
   83300    1.6256337   -5.2610834    4644.9459            1 
   83400    1.6274444   -5.2804445    4635.3667            1 
   83500    1.6698586   -5.2547409    4635.9519            2 
   83600    1.6167771   -5.2664474    4650.3251            1 
   83700    1.6242408   -5.2305194    4654.8032            1 
   83800    1.6576285   -5.2128341    4676.9064            1 
   83900    1.6551454   -5.2356262     4640.333            1 
   84000    1.6140956   -5.2645499    4640.2018            2 
   84100    1.6253316   -5.2448204    4657.6906            3 
   84200    1.6489896   -5.2673505    4657.7856            1 
   84300    1.6229202   -5.2383679    4634.4517            2 
   84400    1.6274087   -5.2606736    4620.4957            2 
   84500    1.6198566   -5.3034067     4626.733            2 
   84600    1.5826943   -5.2746464    4636.9066            2 
   84700    1.6587047    -5.252532    4613.7628            1 
   84800    1.6289098   -5.2867939     4632.849            2 
   84900    1.6694885   -5.2689953    4652.6858            2 
   85000    1.6126415   -5.2293981    4656.0866            1 
   85100     1.642806   -5.2843305    4633.5617            2 
   85200    1.5886471    -5.251179    4623.0171            2 
   85300    1.6631019   -5.2710772    4620.1416            1 
   85400    1.6040768   -5.2740647    4635.7401            1 
   85500    1.6639286   -5.2931419    4656.0425            4 
   85600    1.6159896   -5.2612785    4641.5666            1 
   85700    1.6556261   -5.3076907    4606.1217            2 
   85800    1.6134308   -5.2795529    4618.9653            1 
   85900    1.5870701   -5.2327273    4642.5287            2 
   86000     1.635954   -5.2491044    4632.5483            1 
   86100    1.6143739   -5.2756975    4638.7824            3 
   86200    1.6622932   -5.2922262    4630.1458            4 
   86300    1.6325243   -5.2780311    4618.4572            1 
   86400    1.6176966   -5.2897867    4637.3458            2 
   86500    1.6810178   -5.3222703     4623.342            1 
   86600    1.6230442   -5.3332452    4625.8075            1 
   86700    1.6402935   -5.2823855    4626.3014            2 
   86800    1.6723284   -5.2385309    4642.7823            2 
   86900    1.6200439   -5.2522154    4656.4567            1 
   87000    1.6085868   -5.2747385    4629.5788            2 
   87100    1.6580436   -5.2655867    4595.3609            2 
   87200    1.6404133   -5.3354365    4628.6354            1 
   87300    1.6038501   -5.2832389    4664.2018            2 
   87400    1.6490125   -5.2647912    4647.9489            3 
   87500    1.6186555   -5.2641238    4616.4263            2 
   87600    1.6338942   -5.2758059    4625.5622            2 
   87700    1.6537769   -5.3050375    4636.7415            1 
   87800    1.6162879    -5.309722    4623.7843            1 
   87900    1.6220252    -5.280372    4615.1816            1 
   88000    1.6773401   -5.3051392    4632.4693            2 
   88100    1.6006465   -5.2650873    4652.5464            1 
   88200    1.6429814   -5.2811843    4661.3057            1 
   88300    1.6283579   -5.2703192    4623.5565            1 
   88400     1.623415   -5.2627005    4630.9247            3 
   88500    1.6395525   -5.2500736    4660.1131            1 
   88600    1.6251666   -5.2962494    4643.7474            1 
   88700    1.6177942   -5.3085387    4627.5655            1 
   88800    1.6642028   -5.2675727    4599.3962            1 
   88900    1.6129358   -5.2892647    4636.6034            1 
   89000    1.6296693   -5.2716125    4651.6741            2 
   89100    1.6325117   -5.2871078    4630.1413            1 
   89200    1.6190908   -5.3177308    4610.9737            1 
   89300    1.6207115    -5.291602    4611.6457            3 
   89400    1.6346133   -5.2982145    4625.8065            2 
   89500    1.6198936   -5.3082667    4628.4489            1 
   89600    1.6131058   -5.2204848    4646.9548            3 
   89700       1.6419   -5.2397909    4629.3501            1 
   89800    1.6119415   -5.2549426    4617.9398            2 
   89900    1.6514073    -5.249724    4659.7243            1 
   90000    1.6427679   -5.2423318    4656.6393            1 
   90100    1.6211934   -5.2418888    4631.2162            1 
   90200    1.6137152   -5.2687631    4629.8119            1 
   90300    1.6357976   -5.2516667    4623.3872            1 
   90400    1.6325529   -5.3086028    4643.1755            4 
   90500    1.6006485   -5.3190734    4632.4369            1 
   90600    1.6646578   -5.3226764    4593.5305            2 
   90700    1.6473227   -5.2733572    4614.0695            1 
   90800    1.5832325   -5.2879431    4657.1847            1 
   90900     1.617471   -5.2793108    4632.4755            2 
   91000    1.6835258   -5.2633775    4609.9397            2 
   91100    1.6023816   -5.2503547    4619.8418            2 
   91200    1.6136238   -5.2724441    4650.7254            3 
   91300    1.6582087   -5.2702986    4646.9043            3 
   91400    1.6215894   -5.2564748    4626.3823            1 
   91500    1.6341043   -5.2621979    4656.3173            2 
   91600    1.6273921   -5.2319821    4647.1773            2 
   91700    1.6294008   -5.2679791    4625.8209            3 
   91800    1.6498698   -5.2678852    4634.2066            1 
   91900    1.6285949    -5.254536    4665.1678            2 
   92000    1.6312897   -5.2727978    4644.9412            1 
   92100    1.6390673   -5.2474889    4627.6472            2 
   92200    1.6207332     -5.29328    4628.1934            1 
   92300    1.6301443   -5.2296227    4639.4725            1 
   92400    1.6466341   -5.2335288     4658.229            1 
   92500    1.6153635   -5.2483436     4638.774            1 
   92600    1.6412818    -5.282776    4626.1257            2 
   92700      1.63709   -5.2071264    4626.4401            1 
   92800    1.6186401   -5.2680403    4668.1752            1 
   92900    1.5917188   -5.2827802    4627.3955            2 
   93000     1.630179   -5.2711808    4625.9088            1 
   93100    1.6496099   -5.2562221    4635.7957            1 
   93200    1.6023211   -5.2822138    4649.2396            1 
   93300    1.6696808   -5.2745351     4630.537            1 
   93400    1.6280414   -5.2330912    4634.5103            2 
   93500    1.6163278   -5.3034451    4624.9646            2 
   93600    1.6209784   -5.3357907    4630.2191            2 
   93700    1.6157618   -5.3248293    4594.9476            1 
   93800    1.6463987    -5.294605    4608.9827            3 
   93900    1.6064259    -5.253096    4643.9026            1 
   94000    1.6277843   -5.2358595    4664.0091            1 
   94100    1.6943964   -5.2517347    4664.0214            2 
   94200    1.6551818   -5.2636644    4655.5244            2 
   94300    1.6095017   -5.2794779     4643.615            1 
   94400     1.638745   -5.2566028    4628.8041            1 
   94500    1.6338011   -5.2009605    4665.1933            2 
   94600    1.6442061   -5.2640054    4632.0249            4 
   94700    1.5945808   -5.2598842    4646.9955            1 
   94800    1.6651402   -5.2797658     4621.323            1 
   94900    1.6328763   -5.2924507    4632.9606            2 
   95000    1.6559021   -5.2815354     4646.043            2 
   95100    1.6256059   -5.2197664    4657.4119            3 
   95200     1.613058   -5.2445618    4619.0505            1 
   95300    1.5999083   -5.2514342    4626.5544            1 
   95400    1.6322367   -5.2632702    4648.6553            2 
   95500    1.5962663   -5.2797676    4663.2329            2 
   95600    1.6750487   -5.2523399    4622.2132            2 
   95700    1.6386834   -5.2682358    4622.9417            1 
   95800    1.6062728   -5.3067063    4620.3495            1 
   95900    1.6440164   -5.3312564    4612.3572            2 
   96000    1.6039211   -5.3096242    4607.7508            2 
   96100    1.6271402   -5.3080251    4615.7696            2 
   96200    1.6498326   -5.3023509    4638.0232            2 
   96300    1.5838732   -5.2985436    4634.2619            1 
   96400    1.6276051    -5.292545    4592.9817            2 
   96500    1.6669748   -5.2761445    4617.8847            2 
   96600    1.5976042   -5.2775449    4643.5349            2 
   96700    1.6301185   -5.2738282    4634.8146            1 
   96800    1.6381009    -5.197615    4641.2062            1 
   96900    1.5984388   -5.2363256    4636.2672            1 
   97000    1.6364654   -5.2865149     4655.101            1 
   97100    1.6152464   -5.2675404    4641.6936            2 
   97200    1.6191561   -5.2528607    4621.8886            1 
   97300    1.6500023   -5.2229049    4624.2665            2 
   97400    1.6296797   -5.2443367    4657.8002            1 
   97500    1.6657531   -5.3234631    4642.4027            2 
   97600    1.6160099   -5.2961421    4619.7642            2 
   97700    1.6395759   -5.3025276    4612.9051            1 
   97800    1.6365935   -5.2694457    4645.1229            2 
   97900    1.6389306    -5.243934    4632.9464            1 
   98000    1.6052023   -5.2722615    4636.1477            1 
   98100    1.6623469   -5.2619425    4641.3828            2 
   98200      1.61834   -5.2653782    4651.1098            2 
   98300    1.5978156    -5.262378     4652.837            1 
   98400    1.6858644   -5.2695966    4624.4414            2 
   98500     1.650658   -5.2893633    4636.5307            1 
   98600     1.598067   -5.2784006    4648.6505            1 
   98700    1.6388322   -5.2417923    4649.9891            2 
   98800    1.6658016   -5.2315001    4649.6879            1 
   98900    1.6208876   -5.2543481    4656.0392            2 
   99000    1.6334079   -5.2927453    4621.5264            2 
   99100    1.6232639     -5.24796    4613.5784            2 
   99200    1.6132359   -5.2197094    4648.0896            1 
   99300     1.664972   -5.2861476    4648.3007            2 
   99400    1.6268829   -5.3030124    4628.3456            1 
   99500    1.6356015   -5.2664301    4641.1138            2 
   99600    1.6245569   -5.2485543     4651.848            2 
   99700    1.6421718    -5.257274    4639.9026            1 
   99800    1.6085185   -5.2739764    4603.6597            2 
   99900    1.6457199   -5.3170772    4613.6592            2 
  100000    1.6382252   -5.2933874     4646.009            3 
  100100    1.6160651   -5.3025133    4610.3823            2 
  100200    1.6372017    -5.260336    4622.6716            3 
  100300    1.6479974   -5.3006118    4628.1622            1 
  100400    1.6014642    -5.328817    4629.2595            1 
  100500    1.6283102   -5.2706681    4632.8859            1 
  100600    1.6264793   -5.2643849    4636.0252            1 
  100700    1.6640394   -5.2876121    4649.6066            2 
  100800    1.6180168    -5.267687    4627.3152            1 
  100900    1.6324841    -5.296766    4641.1897            2 
  101000    1.6156563   -5.2583359    4655.5867       -1e+20 
  101100    1.6922858   -5.2550106    4633.8379            3 
  101200    1.6257978   -5.2339769     4651.957            2 
  101300    1.5990554   -5.2464482    4668.4911            2 
  101400    1.6592034   -5.2505696    4620.7778            2 
  101500    1.6152931   -5.2413567    4613.4189            1 
  101600    1.6385108    -5.218911    4652.7923            1 
  101700    1.6123731   -5.2172722     4641.679            2 
  101800    1.6564745   -5.2570731    4643.5535            2 
  101900    1.6192421   -5.2834277    4660.2569            2 
  102000    1.6246666   -5.2879134    4621.8683            1 
  102100    1.6013333    -5.289075    4613.7493            1 
  102200    1.6400376   -5.2599993    4651.7084            2 
  102300    1.6406522   -5.2993549    4642.1861            1 
  102400    1.6316465   -5.2823325    4641.8163            1 
  102500     1.639592   -5.2526331    4655.0637            1 
  102600    1.6185573   -5.2526602    4632.8306            1 
  102700    1.6348824   -5.2705192    4646.7997            2 
  102800    1.5981885   -5.2465318    4666.6531            1 
  102900    1.6544947   -5.2146767    4661.0735            1 
  103000    1.6496495   -5.2599536    4644.6785            2 
  103100    1.6098039   -5.2494879    4630.9125            4 
  103200    1.6280046   -5.2414626    4628.7909            1 
  103300    1.6314595   -5.2582122    4662.4817            2 
  103400    1.6214235   -5.2519391    4610.0725            3 
  103500     1.662812   -5.2642367    4627.8466            2 
  103600     1.633553   -5.3266064    4646.4068            1 
  103700    1.6263923   -5.2805439    4624.0426            1 
  103800     1.660153   -5.2786844    4637.6647            3 
  103900    1.6049735   -5.2740776     4647.646            1 
  104000    1.6236033   -5.2685791    4639.0755            2 
Loop time of 174.872 on 32 procs for 100000 steps with 4000 atoms

Performance: 98814.988 tau/day, 571.846 timesteps/s
99.7% CPU use with 32 MPI tasks x no OpenMP threads

MPI task timing breakdown:
Section |  min time  |  avg time  |  max time  |%varavg| %total
---------------------------------------------------------------
Pair    | 13.879     | 13.981     | 14.14      |   1.6 |  8.00
Neigh   | 2.3689     | 2.382      | 2.4236     |   0.7 |  1.36
Comm    | 8.7741     | 9.548      | 10.687     |  17.4 |  5.46
Output  | 4.0422     | 4.0428     | 4.054      |   0.1 |  2.31
Modify  | 141.42     | 143.25     | 144.34     |   7.6 | 81.92
Other   |            | 1.668      |            |       |  0.95

Nlocal:        125.000 ave         133 max         117 min
Histogram: 2 3 2 5 2 7 2 6 2 1
Nghost:        1777.28 ave        1794 max        1758 min
Histogram: 1 1 3 3 5 8 5 2 1 3
Neighs:        12313.4 ave       12932 max       11531 min
Histogram: 3 1 2 3 3 6 2 3 4 5
FullNghs:      24627.2 ave       26032 max       22906 min
Histogram: 2 3 1 4 3 3 5 4 5 2

Total # of neighbors = 788069
Ave neighs/atom = 197.01725
Neighbor list builds = 7576
Dangerous builds = 13

#clear
#
#next RN
#
#jump SELF
Total wall time: 0:02:55
