
units lj                  # Use reduced LJ style units
atom_style atomic         # Uncharged point particles
atom_modify map hash      # Needed for indexing of clusters etc
                          # Used to be able to find where atoms are in relation to each other.

# Define a lattice with which to populate the simulation cell. With units
# set to 'lj' the second argument to the lattice command is the reduced
# density rho* and the spacings are multiples of that required to acheive
# that density. Also define a simulation cell called 'box' in lattice units
# and fill it with atoms. Here we're creating a box which is ten lattice
# constants in each direction.
lattice fcc 1.0 spacing 1 1 1                 # All equal sizes - gives the right reduced density.
Lattice spacing in x,y,z = 1.5874011 1.5874011 1.5874011

region box block 0 10 0 10 0 10 units lattice # Defines a region, "box", in lattice units
create_box 1 box                              # Creates a simulation box as specified above,
Created orthogonal box = (0.0000000 0.0000000 0.0000000) to (15.874011 15.874011 15.874011)
  2 by 2 by 5 MPI processor grid
                                              # with one type of atom
create_atoms 1 box                            # Creates particles on lattice points
Created 4000 atoms
  using lattice units in orthogonal box = (0.0000000 0.0000000 0.0000000) to (15.874011 15.874011 15.874011)
  create_atoms CPU = 0.002 seconds


# Set the mass of the first (and only) atom type.
mass 1 1.0

# Lennard-Jones interactions between particles, 3.5 sigma cut-off. Apply
# long range tail corrections to energy and pressure and set all coefficients
# to unity since we work in reduced units here. Note that this doesn't shift
# the potential such that it goes to zero at the cutoff. That would require
# pair_modify('shift', 'yes').
pair_style lj/cut  3.5      # non-GPU version
pair_modify tail  yes
pair_coeff 1  1  1.0  1.0   # Intearaction between 1 and 1 set with epsilon = 1 and sigma = 1

write_data data.*
System init for write_data ...
Neighbor list info ...
  update every 1 steps, delay 10 steps, check yes
  max neighbors/atom: 2000, page size: 100000
  master list distance cutoff = 3.8
  ghost atom cutoff = 3.8
  binsize = 1.9, bins = 9 9 9
  1 neighbor lists, perpetual/occasional/extra = 1 0 0
  (1) pair lj/cut, perpetual
      attributes: half, newton on
      pair build: half/bin/atomonly/newton
      stencil: half/bin/3d
      bin: standard

#############################
#   M E L T   S Y S T E M   #
#############################

velocity all create 2.4 5833274 mom yes dist gaussian # Assign velocities
                                                    # Temperature 2.4, random number seed, zero linear momentum
						                                                        # Gaussian distribution

timestep 0.002   # simulation timestep
thermo 100       # output thermodynamic data every 100 steps

# Define a fix  in this case with index 1 applied to all
# particles in the simulation. This fix is for simulations
# in the anisotropic NPT ensemble. Note that we use the MTK
# correction.
fix 1 all npt temp 2.4 2.4 0.1 iso 5.68 5.68 0.5 mtk yes tchain 5 pchain 5 # Use NPT ensemble
                                                                         # Set temperature and pressure and damping
                                                                         # Numbers of thermostats in chain and in barostat
run 1000         # run for 10000 steps
Per MPI rank memory allocation (min/avg/max) = 3.681 | 3.682 | 3.682 Mbytes
Step Temp E_pair E_mol TotEng Press Volume 
       0          2.4   -8.3859253            0   -4.7868253   -2.2405722         4000 
     100    1.2560543   -6.5166947            0   -4.6330842    5.4738617     4090.264 
     200    1.4620147   -6.2944328            0    -4.101959    6.0489469    4141.8953 
     300    1.5805517   -6.0148662            0   -3.6446313    5.8775706    4268.7287 
     400    1.6834669   -5.7107066            0   -3.1861375    5.9071358    4403.4982 
     500    1.7905016   -5.4263411            0   -2.7412601    5.8268731    4549.0839 
     600    1.8978346    -5.162881            0   -2.3168407    5.7228626    4703.0892 
     700    1.9845484    -4.865807            0   -1.8897287     6.002426    4840.6855 
     800    2.1384022    -4.696791            0   -1.4899895    5.9101296    4967.4306 
     900    2.2534752   -4.5516747            0    -1.172307    5.7523082    5085.8653 
    1000    2.3409821   -4.4247023            0  -0.91410702    5.7016656    5179.7126 
Loop time of 0.515956 on 20 procs for 1000 steps with 4000 atoms

Performance: 334912.026 tau/day, 1938.148 timesteps/s
99.7% CPU use with 20 MPI tasks x no OpenMP threads

MPI task timing breakdown:
Section |  min time  |  avg time  |  max time  |%varavg| %total
---------------------------------------------------------------
Pair    | 0.25898    | 0.28114    | 0.30593    |   2.2 | 54.49
Neigh   | 0.050081   | 0.053107   | 0.055527   |   0.6 | 10.29
Comm    | 0.12996    | 0.15316    | 0.17602    |   3.1 | 29.69
Output  | 0.00019988 | 0.00020527 | 0.00025758 |   0.0 |  0.04
Modify  | 0.020755   | 0.025023   | 0.030198   |   2.0 |  4.85
Other   |            | 0.003315   |            |       |  0.64

Nlocal:        200.000 ave         214 max         185 min
Histogram: 1 1 2 4 1 2 4 2 2 1
Nghost:        2060.35 ave        2080 max        2025 min
Histogram: 1 0 0 1 4 0 5 5 0 4
Neighs:        17663.0 ave       19553 max       16156 min
Histogram: 1 3 2 3 4 1 1 4 0 1

Total # of neighbors = 353260
Ave neighs/atom = 88.315000
Neighbor list builds = 87
Dangerous builds = 21

# Equilibrate just above the melting temperature to avoid step fn in T

fix 1 all npt temp 1.25 1.25 0.1 iso 5.68 5.68 0.5 mtk yes tchain 5 pchain 5
run 1000
Per MPI rank memory allocation (min/avg/max) = 3.682 | 3.683 | 3.683 Mbytes
Step Temp E_pair E_mol TotEng Press Volume 
    1000    2.3409821   -4.4247023            0  -0.91410702    5.7016656    5179.7126 
    1100    1.9394202   -4.6489983            0   -1.7405953    5.7043192    5010.4975 
    1200    1.7538302   -4.9709308            0   -2.3408432    5.7068483    4807.0107 
    1300    1.5722219   -5.1950829            0   -2.8373396    5.6802724    4673.3381 
    1400    1.4568845   -5.4057081            0   -3.2209276    5.5567683    4573.8845 
    1500    1.3503547   -5.5212706            0   -3.4962449    5.7302676    4490.7966 
    1600    1.3147643   -5.6482764            0   -3.6766229    5.6898925    4434.2315 
    1700    1.2716924   -5.7297408            0   -3.8226791    5.6958397    4391.1098 
    1800    1.2648862   -5.7893213            0   -3.8924664    5.8003465    4355.9343 
    1900    1.2354209   -5.8175189            0   -3.9648509     5.800932    4342.1233 
    2000    1.2349334    -5.850737            0      -3.9988    5.7262948    4335.4701 
Loop time of 0.506494 on 20 procs for 1000 steps with 4000 atoms

Performance: 341168.770 tau/day, 1974.356 timesteps/s
100.0% CPU use with 20 MPI tasks x no OpenMP threads

MPI task timing breakdown:
Section |  min time  |  avg time  |  max time  |%varavg| %total
---------------------------------------------------------------
Pair    | 0.26127    | 0.27835    | 0.29846    |   2.3 | 54.96
Neigh   | 0.044491   | 0.046118   | 0.048013   |   0.5 |  9.11
Comm    | 0.13058    | 0.15392    | 0.17205    |   3.2 | 30.39
Output  | 0.00019392 | 0.00020072 | 0.00025604 |   0.0 |  0.04
Modify  | 0.02155    | 0.024201   | 0.027345   |   1.5 |  4.78
Other   |            | 0.003711   |            |       |  0.73

Nlocal:        200.000 ave         208 max         193 min
Histogram: 3 2 2 0 3 2 4 1 0 3
Nghost:        2288.05 ave        2299 max        2264 min
Histogram: 1 0 0 2 0 3 2 3 5 4
Neighs:        21066.1 ave       22634 max       19412 min
Histogram: 1 2 3 1 3 1 2 4 2 1

Total # of neighbors = 421322
Ave neighs/atom = 105.33050
Neighbor list builds = 76
Dangerous builds = 7


# Small amount of linear quench

fix 1 all npt temp 1.25 ${temp} 0.1 iso 5.68 5.68 0.5 mtk yes tchain 5 pchain 5
fix 1 all npt temp 1.25 2.12 0.1 iso 5.68 5.68 0.5 mtk yes tchain 5 pchain 5
run 2000
Per MPI rank memory allocation (min/avg/max) = 3.683 | 3.683 | 3.684 Mbytes
Step Temp E_pair E_mol TotEng Press Volume 
    2000    1.2349334    -5.850737            0      -3.9988    5.7262948    4335.4701 
    2100    1.2671325    -5.838729            0   -3.9385055    5.5550308    4355.3603 
    2200    1.2891004   -5.7888785            0   -3.8557113    5.5537523    4377.6276 
    2300    1.3412855   -5.7587662            0   -3.7473409    5.4652891    4403.8465 
    2400    1.3511856   -5.6688752            0   -3.6426035    5.5516067    4437.5886 
    2500     1.447078   -5.6474796            0   -3.4774053     5.697612    4442.0972 
    2600    1.4621881   -5.5297143            0   -3.3369805    5.9950973    4469.4437 
    2700    1.5034838   -5.4902309            0   -3.2355691    5.6943985    4517.5974 
    2800    1.5492763   -5.4354874            0   -3.1121539    5.6572218    4549.0496 
    2900    1.5852829   -5.3599788            0    -2.982649    5.7601379    4577.7108 
    3000    1.6347915   -5.2982423            0    -2.846668    5.6881838    4617.2261 
    3100    1.6664275   -5.2474548            0   -2.7484385    5.4839365    4671.8138 
    3200    1.7165234   -5.1726163            0   -2.5984749    5.6521504    4692.4809 
    3300    1.7625964    -5.116933            0   -2.4736994    5.5604822    4734.1341 
    3400    1.8287477    -5.098041            0   -2.3556052    5.4551248    4770.2513 
    3500    1.8724591   -5.0010021            0   -2.1930156    5.8631511    4771.9338 
    3600    1.8932995   -4.9103978            0   -2.0711585    5.9766254    4811.0496 
    3700    1.9930541    -4.937097            0   -1.9482633    5.6976459    4835.7544 
    3800    1.9692393   -4.8332215            0    -1.880101     5.853983    4876.7218 
    3900    2.0585214   -4.8058378            0   -1.7188277      5.78681    4908.0419 
    4000    2.0764236   -4.7701061            0   -1.6562493    5.5386496    4963.2429 
Loop time of 0.998869 on 20 procs for 2000 steps with 4000 atoms

Performance: 345991.415 tau/day, 2002.265 timesteps/s
100.0% CPU use with 20 MPI tasks x no OpenMP threads

MPI task timing breakdown:
Section |  min time  |  avg time  |  max time  |%varavg| %total
---------------------------------------------------------------
Pair    | 0.50669    | 0.54938    | 0.57896    |   2.8 | 55.00
Neigh   | 0.088447   | 0.092917   | 0.096471   |   0.7 |  9.30
Comm    | 0.2674     | 0.29993    | 0.33922    |   3.9 | 30.03
Output  | 0.00036533 | 0.00037394 | 0.0004711  |   0.0 |  0.04
Modify  | 0.04256    | 0.049013   | 0.057633   |   2.1 |  4.91
Other   |            | 0.007252   |            |       |  0.73

Nlocal:        200.000 ave         208 max         190 min
Histogram: 1 1 2 5 0 1 2 4 0 4
Nghost:        2107.30 ave        2130 max        2081 min
Histogram: 1 2 2 0 2 6 2 2 1 2
Neighs:        18398.9 ave       20340 max       16547 min
Histogram: 1 2 1 3 3 6 0 1 1 2

Total # of neighbors = 367978
Ave neighs/atom = 91.994500
Neighbor list builds = 152
Dangerous builds = 2

#############################
# F R E E Z E  S Y S T E M  #
#############################

# Define solid atoms. This closely follows ten Wolde  Ruiz-Montero and Frenkel  Faraday Discuss  1996  104  93-110
# Compute components of the per-atom q6 vector
compute q6 all orientorder/atom degrees 1 6 components 6 nnn NULL cutoff 1.3 # compute the Q6 parameter.
                                                                             # Use all neighbours within 1.3 unit cell.

# get number of connections
compute coord_number all coord/atom orientorder q6 0.5

# An atom is solid if it has 8 or more connections (of a possible 14)
variable is_solid atom c_coord_number>=8
group solid dynamic all var is_solid    # Must be dynamic to update
dynamic group solid defined

# do clustering
compute cluster solid cluster/atom 1.3 # Create a cluster where all atoms within are solid and max 1.3 units from another member

# define chunks one chunk per cluster
compute clus_chunks solid chunk/atom c_cluster nchunk every compress yes  # Says which atoms are in which chunk

# count the size of each chunk
compute size_chunks solid property/chunk clus_chunks count


# Find the maximum entry in the vector of chunk sizes
variable max_n equal max(c_size_chunks)


# Thermo style which includes this variable
thermo_style custom step temp pe vol v_max_n

thermo ${N}  # Print the thermo information every 100 steps
thermo 100  

# Reset the npt fix at a lower temperature (below freezing)
fix 1  all npt temp  ${temp} ${temp}  0.1  iso  5.68  5.68  0.5  mtk yes tchain  5  pchain  5
fix 1  all npt temp  2.12 ${temp}  0.1  iso  5.68  5.68  0.5  mtk yes tchain  5  pchain  5
fix 1  all npt temp  2.12 2.12  0.1  iso  5.68  5.68  0.5  mtk yes tchain  5  pchain  5

dump dmp2 all dcd ${N} traj_${rand}.dcd
dump dmp2 all dcd 100 traj_${rand}.dcd
dump dmp2 all dcd 100 traj_462431.dcd


# fix rnuntil all halt ${N} v_max_n >= 3980 error soft message no   # Stop when solidified


run 100000 # 5000000  # Run for this many steps
Neighbor list info ...
  update every 1 steps, delay 10 steps, check yes
  max neighbors/atom: 2000, page size: 100000
  master list distance cutoff = 3.8
  ghost atom cutoff = 3.8
  binsize = 1.9, bins = 9 9 9
  4 neighbor lists, perpetual/occasional/extra = 1 3 0
  (1) pair lj/cut, perpetual
      attributes: half, newton on
      pair build: half/bin/atomonly/newton
      stencil: half/bin/3d
      bin: standard
  (2) compute orientorder/atom, occasional
      attributes: full, newton on
      pair build: full/bin/atomonly
      stencil: full/bin/3d
      bin: standard
  (3) compute coord/atom, occasional
      attributes: full, newton on
      pair build: full/bin/atomonly
      stencil: full/bin/3d
      bin: standard
  (4) compute cluster/atom, occasional
      attributes: full, newton on
      pair build: full/bin/atomonly
      stencil: full/bin/3d
      bin: standard
Per MPI rank memory allocation (min/avg/max) = 9.485 | 9.489 | 9.492 Mbytes
Step Temp PotEng Volume v_max_n 
    4000    2.0764236   -4.7701061    4963.2429            1 
    4100    2.1052139   -4.7260992    5003.0031       -1e+20 
    4200    2.1578832   -4.6886521    4999.7291            2 
    4300    2.1047891   -4.6798789    5011.7009            2 
    4400    2.1086619    -4.686649    4999.8449            1 
    4500    2.1534173   -4.6547594    5021.5746            1 
    4600    2.0627424   -4.6115192    5019.7679            1 
    4700    2.1754915   -4.7218614    5012.0296            1 
    4800    2.0802222   -4.6907203    4992.1232            1 
    4900    2.1411992   -4.6827678    5006.0217            1 
    5000    2.1238647   -4.6573749    4994.6516       -1e+20 
    5100    2.1185138   -4.6790723    5030.2102            1 
    5200    2.1531239   -4.6826883    5007.0768            1 
    5300    2.1021173   -4.6715197    4978.5417            1 
    5400    2.1391264   -4.6822375    5016.0203            1 
    5500    2.0981159   -4.6520828    5027.5354            1 
    5600    2.1946877   -4.6793757    5012.9795            1 
    5700    2.0944842   -4.6351413    5020.5022            1 
    5800    2.1312915    -4.662022    5011.3079            2 
    5900    2.0901398   -4.6604328     5010.559            1 
    6000    2.1223366   -4.6627664    5020.7469            1 
    6100     2.099507   -4.6582932    4976.2218       -1e+20 
    6200      2.09433   -4.6599677    5030.3075            1 
    6300    2.1081518   -4.6186536    5017.2092            1 
    6400    2.1380488   -4.6705718    5023.0209       -1e+20 
    6500    2.0913249   -4.6640961    5002.0513            1 
    6600    2.1476012     -4.68057    5018.5345            1 
    6700    2.1118194   -4.6787686    5019.1186            1 
    6800    2.1502559   -4.6335884    5016.2772            1 
    6900    2.0976042   -4.5851045    5039.4581            1 
    7000    2.0925549   -4.6708275    5034.2419            1 
    7100    2.1540174   -4.6434062    4981.8144       -1e+20 
    7200    2.0804595   -4.6912857    5013.1532            1 
    7300    2.1131242   -4.6634566    4996.3552       -1e+20 
    7400     2.103769   -4.6601831    4973.3698            1 
    7500    2.1024518   -4.7139884    4994.0816            1 
    7600     2.133465   -4.6835085     5039.676            2 
    7700    2.1171259    -4.582552    5009.2797            1 
    7800    2.1204085   -4.6164036    5054.5468       -1e+20 
    7900    2.1269779   -4.6433768    5033.5121            1 
    8000    2.1422801   -4.6674231    4995.6039            1 
    8100    2.0731822   -4.6649653    5015.3521            1 
    8200    2.0923656   -4.6199027    5001.7794            1 
    8300    2.1297673   -4.6417192    5044.6637            1 
    8400    2.1237655   -4.6634956    5003.3327            1 
    8500    2.1144373   -4.6467732    5025.5839            2 
    8600    2.1095441   -4.6652997    5030.6799            1 
    8700    2.1204339   -4.6763605    4985.8743            1 
    8800    2.1536478   -4.7082876    5025.5693            1 
    8900    2.1410198    -4.600578    5039.7728            1 
    9000    2.0899414   -4.6113823    5017.9383       -1e+20 
    9100     2.106283   -4.6842935    5001.9607            1 
    9200    2.1380539   -4.6196413    5025.6421            1 
    9300     2.103354   -4.6002137     5030.709            1 
    9400    2.0684705   -4.6699978    5019.6433       -1e+20 
    9500    2.1332455   -4.7335052    4969.7761            1 
    9600    2.1346046   -4.7048724     5004.982            2 
    9700    2.1369358   -4.6541587    5023.8628            1 
    9800    2.1226823   -4.6416161    5036.9895       -1e+20 
    9900    2.1370139   -4.6592773    5005.8616            1 
   10000    2.0838197   -4.6751892    5002.6802            1 
   10100    2.1328254    -4.656085    5008.1407       -1e+20 
   10200    2.1135288   -4.6958577     5035.526       -1e+20 
   10300    2.1335418   -4.6490461    4978.8811       -1e+20 
   10400    2.1062543   -4.6628924    5012.8793            1 
   10500    2.1145499   -4.7082605     5013.412       -1e+20 
   10600    2.1618495   -4.6716465    5004.3519       -1e+20 
   10700    2.1176344    -4.658616    5055.6832            1 
   10800    2.1052028   -4.6432672    5010.5313            1 
   10900    2.0972148   -4.6230465    5009.8592            1 
   11000    2.1563466   -4.6708871    5049.0821            1 
   11100    2.0993548   -4.6234826    5010.7994            1 
   11200    2.1265903   -4.6551828     5002.134       -1e+20 
   11300    2.1517331   -4.6347427    5049.7509            1 
   11400    2.1422541   -4.6537851    5023.7163            3 
   11500    2.1142881   -4.6823376    5009.4537            1 
   11600    2.1266415    -4.600891    5008.4077            1 
   11700    2.0985717   -4.6634129    5032.2416            2 
   11800    2.1390168   -4.6789569    5022.2927            1 
   11900    2.1567521   -4.6235137    5030.0152            1 
   12000    2.0797245   -4.6371821    5035.8818            1 
   12100    2.1261262   -4.6760767    4969.5232            2 
   12200    2.1074485   -4.7194478    5011.1686            1 
   12300    2.1257241    -4.669158    4994.4507            1 
   12400    2.1653634   -4.6344284    5019.8977            1 
   12500    2.0753528   -4.6450521    5066.6414            1 
   12600    2.1668859   -4.6149862    5008.2541            1 
   12700    2.1218237   -4.6802583    5036.0292            1 
   12800    2.1160076   -4.5967716    5051.5952            1 
   12900    2.1870055   -4.6296344    5061.4085            1 
   13000    2.1266226   -4.6504705    5013.5098            1 
   13100    2.1456858   -4.7145877    5014.5949            1 
   13200    2.1175177   -4.6738986    5012.5932       -1e+20 
   13300    2.1323681   -4.7106535    4969.9027            1 
   13400    2.1334821    -4.723003    5009.8906            1 
   13500    2.1151768    -4.676553    4979.7399       -1e+20 
   13600      2.10922   -4.6571892    4999.2896            1 
   13700    2.1210177   -4.6348038    5040.1223            1 
   13800    2.0731516   -4.6667068    5019.8846       -1e+20 
   13900    2.1520086   -4.6978324    4984.1914            1 
   14000    2.0828259   -4.6808121    5004.2985            1 
   14100    2.1335038   -4.6300049    5010.4519            1 
   14200    2.1206194   -4.6276227    5036.0307       -1e+20 
   14300     2.101524    -4.615001    5026.4529            1 
   14400     2.158158   -4.6316142    5043.9116            1 
   14500    2.0985972   -4.5962889    5062.6411       -1e+20 
   14600    2.1304471   -4.6092645    5035.3094            1 
   14700    2.1008594   -4.6391528    5009.1242            1 
   14800    2.0995587   -4.6451778    4998.0576            1 
   14900    2.1222847    -4.665994    5023.9441            3 
   15000    2.1066341   -4.5913281    5038.7355       -1e+20 
   15100    2.1651396   -4.6533812     5015.034            1 
   15200    2.0860659    -4.660315    5013.7364            2 
   15300    2.1199136   -4.6326781    5003.0824       -1e+20 
   15400    2.1085708   -4.6870617    5020.0166            1 
   15500    2.1249869   -4.6470664    5008.1319       -1e+20 
   15600    2.1455477   -4.6289032    5027.4469            1 
   15700    2.1334344   -4.6987156    4986.0023            1 
   15800    2.1102527   -4.7269389    5014.6771            1 
   15900    2.1489821   -4.6647687    5010.4429            1 
   16000    2.1631867   -4.6187546    5031.3762            1 
   16100     2.114493   -4.6502882    5043.0719            1 
   16200    2.1560222   -4.7030802    4997.4716            1 
   16300     2.083372   -4.6821578    4977.9083            1 
   16400    2.1188016   -4.7032708    5012.9052            1 
   16500    2.1375036   -4.6471533    5017.1416       -1e+20 
   16600    2.1443493   -4.6272036    5057.3482            1 
   16700    2.1212227   -4.6848163    5003.4976            1 
   16800    2.1160659   -4.6505015    5021.5208       -1e+20 
   16900    2.1708587   -4.6030055    5042.5945            1 
   17000    2.1157823   -4.6268658    5025.1563            2 
   17100    2.0883109    -4.662121    5019.3701       -1e+20 
   17200    2.1662122   -4.6411542    5014.3983            1 
   17300    2.0976502   -4.6054213    5021.7271            1 
   17400    2.1044787   -4.6948377    5001.4475            1 
   17500    2.1529292   -4.6710678    4991.8266       -1e+20 
   17600    2.0682005   -4.6715906    5023.6403            1 
   17700    2.1519917   -4.6568336    4975.7275            1 
   17800    2.0993398   -4.6683329     5005.251            1 
   17900    2.0888641   -4.6647758     5037.622            2 
   18000    2.2265259   -4.6811796    4997.8792       -1e+20 
   18100     2.120646   -4.6636792    5010.0013            1 
   18200     2.097064   -4.6856536    5003.9206            1 
   18300    2.1805225   -4.6948601    5028.3453            1 
   18400    2.0850377   -4.6138864    5020.2146       -1e+20 
   18500    2.1518059   -4.6932773      5011.82       -1e+20 
   18600     2.069767   -4.6492918    5006.9164            1 
   18700    2.1347081   -4.6513287    5031.2158       -1e+20 
   18800    2.1333507    -4.685393    5002.7058       -1e+20 
   18900    2.0689681   -4.6886715     5005.091       -1e+20 
   19000    2.1146247   -4.6680361    5012.2252            1 
   19100    2.1462767   -4.6269875    5017.0236       -1e+20 
   19200    2.1256013   -4.6558224    5043.3691            1 
   19300    2.1072591   -4.6552055    4988.4416       -1e+20 
   19400    2.1224919   -4.6585213    5020.6518            2 
   19500    2.0926746   -4.6691456    5019.0457            1 
   19600    2.1423259   -4.6690173    4990.8846            1 
   19700    2.1493995    -4.682586    5042.4627            2 
   19800    2.1097992   -4.6380026    5035.3001       -1e+20 
   19900    2.1719053   -4.6675321    5002.1209       -1e+20 
   20000    2.0818059   -4.6711895    5029.1935            1 
   20100    2.1350652   -4.6730292    5008.9122            2 
   20200    2.1138227   -4.6310974    4994.3147            1 
   20300     2.059347   -4.6774091     5031.891            1 
   20400    2.1336221   -4.6471358    4988.8461            1 
   20500    2.1118373   -4.6712041    4983.3079            1 
   20600    2.1170597   -4.7243514    5019.0877            1 
   20700     2.162808   -4.6853374    4982.0367            2 
   20800    2.0580034   -4.6792971    5033.6473       -1e+20 
   20900    2.1512176     -4.70704    4960.7147            1 
   21000    2.1105408   -4.6334466    5047.5132            1 
   21100    2.1338901   -4.6591147    5000.9791            1 
   21200    2.0914536   -4.6390054    5009.2707            1 
   21300    2.1262442   -4.6331099    5051.5846       -1e+20 
   21400    2.1482534   -4.6631812    4999.3573            1 
   21500     2.094142   -4.6453376    4993.7149            1 
   21600    2.1140769   -4.6903094    5014.4629            1 
   21700      2.14255   -4.6586155    5023.9551            1 
   21800    2.1204009   -4.7031849     4995.352            1 
   21900    2.1075479   -4.6475226    5024.5307            1 
   22000    2.1058018   -4.6227407    5011.4383            1 
   22100    2.0835338   -4.6533161    4983.3767       -1e+20 
   22200     2.111813   -4.6279894     5045.581       -1e+20 
   22300      2.13437   -4.6113938    5009.7736       -1e+20 
   22400    2.1069912   -4.6714481    5004.3672            1 
   22500    2.1101948   -4.6802621    5006.2128            1 
   22600    2.1357964   -4.6325589     5015.378            2 
   22700    2.1380195   -4.7202954    5012.7304            1 
   22800    2.0900213   -4.6447526    4980.3098       -1e+20 
   22900    2.1501385   -4.6581041     5025.882       -1e+20 
   23000    2.1047103   -4.6613029    5027.7674            1 
   23100    2.1691298   -4.6577091    4985.5555            1 
   23200    2.0475845   -4.6395705    5055.6235            1 
   23300    2.1398745   -4.6343483    5029.6478            3 
   23400    2.1458486   -4.6317454    5020.6968            1 
   23500    2.1037015   -4.6846431    5033.6333       -1e+20 
   23600    2.1094457   -4.6550741    4993.5859       -1e+20 
   23700    2.1491503   -4.6850133    4999.4996            1 
   23800    2.1224851   -4.5871432    5051.8453            1 
   23900    2.1236127   -4.6587089    5011.4331       -1e+20 
   24000    2.0952931   -4.6897068    4986.9635            1 
   24100    2.1571284   -4.7046628    5008.5333            1 
   24200    2.0996108   -4.6938936    5017.4008            1 
   24300    2.1181901   -4.7201498    4968.7905            1 
   24400    2.1207541   -4.6674841    5019.2707            1 
   24500    2.1668471    -4.691552    4996.0766            1 
   24600    2.0919781   -4.6630794    5027.0625            1 
   24700    2.1517873    -4.648467    5013.0267       -1e+20 
   24800    2.1170972    -4.696635    5023.7492            1 
   24900    2.1530058   -4.6676157    5017.6622            1 
   25000    2.1168414   -4.6392895    4997.5596            1 
   25100    2.0603074     -4.69588    5031.6082       -1e+20 
   25200    2.1398462   -4.6403197    4989.3731            1 
   25300    2.1088598    -4.646574    5028.7244            2 
   25400    2.1254596   -4.6515061    5000.8402            1 
   25500    2.1280531   -4.6525033     5017.805            1 
   25600    2.1299687   -4.6468901    5044.5368            1 
   25700     2.099587   -4.6656107    4993.3117       -1e+20 
   25800    2.0541744   -4.7147373    4967.6187            1 
   25900     2.105524   -4.6716655    4981.9832       -1e+20 
   26000    2.1472343   -4.6775412    5045.4248            1 
   26100    2.1196074   -4.6786699    5028.6353       -1e+20 
   26200    2.1187638   -4.6498894    4957.6501            1 
   26300     2.122956   -4.6719539    5012.1151            1 
   26400    2.1359963   -4.6944252     5062.299       -1e+20 
   26500    2.1283293   -4.6192248    5006.0711            2 
   26600    2.0994892   -4.6536868    4997.7189            1 
   26700    2.1079327   -4.7043476    5009.4264            1 
   26800     2.150124    -4.689844    4999.5659            1 
   26900    2.1350318   -4.6884917    5039.2854            1 
   27000    2.1694822     -4.65247     5048.402            1 
   27100    2.1134646   -4.6371337    5011.8612            1 
   27200    2.1268732   -4.6508805    5029.8848            1 
   27300    2.1351655      -4.5583    5044.9882            1 
   27400    2.1583703   -4.6479796    4983.8676            1 
   27500    2.0666521   -4.6627193    5048.7928            1 
   27600    2.1418611   -4.6504165    5018.5472            1 
   27700    2.1362622   -4.6708692    4999.0942            1 
   27800    2.0819065   -4.7211584    5000.6461       -1e+20 
   27900    2.1240963   -4.6670924    4998.4501            1 
   28000    2.1608162   -4.6514708    5020.7682            1 
   28100     2.142696   -4.6489831    5078.3299            1 
   28200    2.1702413   -4.6651873    5020.4459            1 
   28300    2.0944007   -4.6403611    5020.1265            1 
   28400    2.1519409   -4.6607493    5018.4103            1 
   28500     2.062751   -4.6354154    5010.3044            1 
   28600    2.1359894   -4.6390551    5013.2218            2 
   28700    2.1201775    -4.683147    5020.1371            1 
   28800    2.1167886   -4.6796306    4997.1718            1 
   28900    2.1237101   -4.7146257     5012.138            1 
   29000    2.1136026   -4.6179059    5010.0816            3 
   29100    2.1265547   -4.6582363    5025.8609       -1e+20 
   29200    2.0985559   -4.6442967     5012.386            1 
   29300    2.1623342   -4.7050096    4987.8969            1 
   29400    2.1320021   -4.7478949    5036.9634       -1e+20 
   29500    2.0934985   -4.6911744    4957.3317       -1e+20 
   29600    2.0878682   -4.6567752    4986.7619            1 
   29700    2.1144477    -4.661692     5016.693            2 
   29800    2.1435824    -4.603152    5028.1657       -1e+20 
   29900    2.1154745   -4.6927658    5026.4913            1 
   30000    2.1271569   -4.7018525    4987.3718            1 
   30100    2.1374138   -4.6719366    4997.0432            1 
   30200    2.1105273    -4.653649     5053.633            1 
   30300    2.1230275   -4.6044607    5009.8453            1 
   30400    2.1189784   -4.7119371    4994.2064            2 
   30500    2.1621457   -4.7119627    5015.3533            1 
   30600     2.104109   -4.5875818    5030.4429            1 
   30700    2.0870588   -4.6329192    5004.2733            1 
   30800    2.1485515   -4.6508983    5006.0234            1 
   30900    2.0936037   -4.6659591    5017.6873            1 
   31000     2.130521   -4.6420549    5008.3716            1 
   31100    2.1030334   -4.6520184    5026.4688       -1e+20 
   31200    2.1808943   -4.6562571    5010.4351            1 
   31300    2.1040524    -4.657984    4998.2208            1 
   31400    2.1292762   -4.6701059    5024.8505       -1e+20 
   31500    2.1169643    -4.666901    5007.1638       -1e+20 
   31600    2.1239229   -4.6614389    4999.1612            1 
   31700     2.105113   -4.6430108    5028.9251       -1e+20 
   31800    2.1172677   -4.6461641    5019.8887            1 
   31900    2.1422509   -4.6473671      5016.54            1 
   32000     2.093024   -4.6545082    5015.3827            1 
   32100    2.1180598   -4.6813608    5002.0693            2 
   32200    2.1450324   -4.6250112     5027.426            1 
   32300     2.126388   -4.7006044    5001.4465            1 
   32400    2.1343932   -4.7182798    5007.9041            1 
   32500    2.1363561   -4.6508823    5028.9725            1 
   32600    2.1020226   -4.6189108    5022.1849            1 
   32700    2.1098423   -4.6491975    5056.2282            1 
   32800    2.1453469   -4.6300829    5000.9589            1 
   32900    2.0879152   -4.6835802    5037.2123            1 
   33000    2.1395986   -4.6393664    5041.4426            2 
   33100    2.1387108   -4.6491732     5019.006            1 
   33200     2.088066   -4.6851296    4993.1974            2 
   33300    2.1261959   -4.6589937    5028.1204            2 
   33400    2.1425917   -4.6503368    5010.6571            1 
   33500    2.0783522   -4.6470236    5012.7896            1 
   33600    2.1193868   -4.6246811    5004.5238       -1e+20 
   33700    2.0784905   -4.6503023     5001.728            1 
   33800    2.1258001   -4.6117092    5024.6416            1 
   33900    2.1147099   -4.6188137    5014.8238            1 
   34000    2.0925422   -4.6938278    4983.9309            1 
   34100    2.1061676   -4.7227661    5000.3998            1 
   34200    2.1409285   -4.6470543    5014.0149            1 
   34300    2.1077301   -4.6389033     5020.091            1 
   34400     2.103411   -4.6904886    4966.5144            1 
   34500    2.1328132   -4.7361994    4991.9027       -1e+20 
   34600     2.105726   -4.6828843    4995.9227            1 
   34700    2.1216603   -4.6393701    5006.7373            3 
   34800    2.0963203   -4.6387809    5043.1625            1 
   34900    2.1474558   -4.6272958    5021.1132            1 
   35000    2.1400294   -4.6661456    5005.4724       -1e+20 
   35100    2.0835433   -4.7132044    5012.2399            1 
   35200    2.1188607   -4.6265455    4983.3094            3 
   35300    2.0733154   -4.6341414    5010.1745            1 
   35400    2.1230568   -4.6136658    5043.5838       -1e+20 
   35500     2.136591   -4.6012501    5050.0625            3 
   35600    2.1525811   -4.6245501    5066.3281            1 
   35700     2.126057   -4.6149162    5009.4973       -1e+20 
   35800     2.128313   -4.6819123    5029.1514            1 
   35900    2.0954314   -4.6443794    5006.3358            2 
   36000    2.1347002   -4.6634177    4986.6786            1 
   36100    2.1490558   -4.6554157    5060.4214            1 
   36200     2.173737   -4.6324545    5066.9656            1 
   36300     2.172291   -4.6321044    5030.2842            1 
   36400    2.0910058   -4.6484832    5022.2489            3 
   36500    2.1730069   -4.7058684    5000.1945       -1e+20 
   36600    2.0624932   -4.6719739    5016.4071            1 
   36700    2.1439787    -4.683965    4985.9128       -1e+20 
   36800    2.1093107    -4.642656    5022.8195            1 
   36900    2.0964907   -4.6254813     5044.012            1 
   37000    2.1665413   -4.6132586    5006.6324            1 
   37100     2.105029   -4.6580197    5062.8687            1 
   37200    2.1531699   -4.6902063    4994.8811       -1e+20 
   37300    2.1278019   -4.7036084    4966.2734            1 
   37400    2.0491801   -4.6729055    5009.0942            2 
   37500    2.1372645   -4.6631567    5024.7214            1 
   37600    2.1556062   -4.6270935    5037.8915       -1e+20 
   37700    2.0823175   -4.6609072    5047.9575            1 
   37800    2.1410934   -4.6714334    4989.1878            1 
   37900    2.0799136    -4.660111    4970.4117            2 
   38000    2.1124117   -4.6991518    5013.3926            1 
   38100     2.164058   -4.6910102    5011.3613       -1e+20 
   38200    2.1069118   -4.6871882    4984.2243            1 
   38300    2.1034838   -4.6573455    5010.2742            1 
   38400    2.1433051   -4.6602701    5041.0428            1 
   38500    2.1144264   -4.6310794    4996.0358            1 
   38600    2.1022069   -4.6603262    5022.4351       -1e+20 
   38700    2.1210093   -4.6322256    4999.1969            1 
   38800    2.1202253    -4.663248    5017.9757       -1e+20 
   38900    2.1250856   -4.6527487    5033.5079            1 
   39000     2.148148   -4.7056946    4989.3516            1 
   39100    2.0593698   -4.6913186     5009.799            1 
   39200    2.0989885   -4.6098105    4999.4644            1 
   39300    2.1000594   -4.6780933    4996.6275       -1e+20 
   39400    2.1501144    -4.709958    5000.7676            1 
   39500    2.0797712   -4.6586357    4985.9102            1 
   39600    2.1408408   -4.6789398     5008.059            1 
   39700    2.1130145   -4.6625958    5020.4913            1 
   39800    2.1070329   -4.6753414     4975.211            1 
   39900    2.1238525   -4.7334555    5023.2945            1 
   40000    2.1153238   -4.6316788    5022.1114            1 
   40100     2.137246   -4.6485982    4987.4638       -1e+20 
   40200    2.0797795   -4.7018243    5011.7097            1 
   40300     2.132443   -4.6739048    4978.7871            1 
   40400    2.1233913   -4.7130209    5002.9617       -1e+20 
   40500    2.1189338   -4.6789317    5023.1636       -1e+20 
   40600    2.1498511   -4.6039692     5025.027            1 
   40700    2.1180178   -4.6737109    5007.1224            1 
   40800    2.1161812   -4.7276721    4999.3299            2 
   40900    2.1413124   -4.7152188    4968.2685            1 
   41000    2.1095844   -4.6325619    5041.5518            1 
   41100    2.1291479   -4.6239213     5022.341            1 
   41200     2.123235   -4.6630059     5001.659            1 
   41300    2.0719035   -4.6589331    5020.1423            1 
   41400    2.1278079   -4.6141818    5037.0136            1 
   41500    2.1042466   -4.6454586    4997.6368       -1e+20 
   41600    2.0853166   -4.6303431    5028.8966            1 
   41700    2.1439754   -4.6504766     5023.304            2 
   41800    2.1090163   -4.6486837    4994.5699            1 
   41900    2.1186784   -4.6651413    5028.6574            2 
   42000    2.0982159   -4.6748342    5016.9957            1 
   42100    2.1220289   -4.6237284     4996.063            3 
   42200    2.0883469   -4.6488497    5027.7366       -1e+20 
   42300     2.124019   -4.6403167    5011.1433            1 
   42400    2.1589247   -4.6340649    5030.0042       -1e+20 
   42500    2.1117935   -4.6663127    5033.1382       -1e+20 
   42600    2.1308269   -4.6292109    5032.6814       -1e+20 
   42700    2.1121558    -4.625606    5001.8677            2 
   42800     2.085333   -4.6823543    5026.0442            1 
   42900    2.1714675   -4.6857686    5022.8296            1 
   43000    2.1114203   -4.6602374    5027.3044            6 
   43100    2.0966215   -4.6801911     5009.074            1 
   43200    2.1298722   -4.6170712    5001.1469            1 
   43300    2.1002986   -4.6168313    5051.9635       -1e+20 
   43400    2.1114872   -4.6722996    5021.2017            1 
   43500    2.1278327   -4.6667095    4973.1601       -1e+20 
   43600    2.0666513   -4.6935679    5006.1547            1 
   43700    2.0995763   -4.6321102    5007.0395            1 
   43800     2.182554   -4.6361428    5013.7523            1 
   43900    2.0958078   -4.6709332    5033.5639       -1e+20 
   44000    2.1299537     -4.66511     5011.596            1 
   44100    2.1490135   -4.6510812    5017.0316            1 
   44200    2.0838737   -4.6361645     5045.513       -1e+20 
   44300     2.160069   -4.6469664    4981.4431            1 
   44400    2.0838352   -4.6896615    5006.2282            1 
   44500    2.1176339   -4.6404191     5030.146       -1e+20 
   44600    2.1410205   -4.6383332     5011.385            1 
   44700     2.079877   -4.6398963    5032.8091            1 
   44800    2.1243444   -4.6207847    5020.3114       -1e+20 
   44900    2.1268981   -4.6327855    5018.8123            2 
   45000    2.1244308   -4.6009636    5047.9033            1 
   45100    2.1267262   -4.6318874    4993.0136            1 
   45200    2.1021398   -4.7417024    5002.0193            1 
   45300    2.1212459   -4.6723168    5003.6425            1 
   45400    2.1536245    -4.669761    5009.3823            1 
   45500    2.1180499   -4.6288043     5057.566            4 
   45600     2.122932   -4.6644708    4983.6691            1 
   45700    2.0971808   -4.6815352    5008.9925            1 
   45800    2.1031863    -4.632228    5003.2921       -1e+20 
   45900    2.1569206   -4.6874584    5017.4548            1 
   46000    2.1147224   -4.6364159    5031.6217            1 
   46100    2.1278729   -4.6456831     5005.329            1 
   46200     2.094425   -4.6546378    5035.1604       -1e+20 
   46300      2.12604   -4.6708233    4967.2362            1 
   46400    2.0873412   -4.7060896    5004.9321            1 
   46500    2.1230623    -4.686025    5001.8232            1 
   46600     2.142523   -4.6906383    4997.5928            1 
   46700    2.0906209   -4.6730297    5014.6785       -1e+20 
   46800    2.1687069   -4.6623597    4993.1239            1 
   46900    2.0885141   -4.6748099    5019.1916       -1e+20 
   47000     2.128382   -4.6608401     5062.008            1 
   47100    2.1310289   -4.6048829    4996.7061            1 
   47200    2.1103915   -4.6948526    4997.2999            1 
   47300    2.1212645   -4.6589183    5009.1741       -1e+20 
   47400    2.1524387    -4.652101    5017.2519            1 
   47500    2.1026838    -4.686346      5009.45            1 
   47600    2.1052181   -4.6625556    5010.9939       -1e+20 
   47700    2.1475834   -4.6242391    5043.1642       -1e+20 
   47800    2.1161417   -4.6248964    5025.4536       -1e+20 
   47900    2.1190615   -4.6350582    5012.3228            1 
   48000    2.0711755   -4.6345188    5046.9557       -1e+20 
   48100    2.1671996   -4.6279516    5029.4908            1 
   48200    2.1427334   -4.6633213     4994.454            1 
   48300    2.0727972   -4.6578248    5028.1143            1 
   48400    2.1442013   -4.6521076    5001.0678            2 
   48500    2.1471898   -4.6986684    5001.6188            1 
   48600    2.0873283   -4.7233763    5003.1566            3 
   48700     2.114207   -4.6856303    4992.7933            1 
   48800    2.1396839   -4.6795419    4997.7218            1 
   48900    2.0849619   -4.6499888    5040.0674            1 
   49000    2.1390058    -4.599882    5019.3077            1 
   49100    2.1058129   -4.5654297    5049.3555            1 
   49200    2.1490937   -4.6637872    5044.1368            1 
   49300    2.1130857   -4.6476631    5010.3286            1 
   49400    2.1214476   -4.5931832     5023.872       -1e+20 
   49500    2.1001446   -4.6405878    5044.4757            1 
   49600    2.1422031   -4.6652742    4974.7113            1 
   49700    2.0848026   -4.6897515    4991.6871            1 
   49800    2.1580452   -4.7242338    5013.7977            1 
   49900    2.1042363   -4.6521797    4999.0843            1 
   50000    2.1501564   -4.6813884    5009.6058            1 
   50100    2.0755142   -4.6996807    5023.7915            1 
   50200    2.1667962   -4.6534669    4985.1694            1 
   50300    2.1073197   -4.6392319    5051.3414            1 
   50400    2.1104026   -4.6198509    5019.6603            1 
   50500    2.1301939   -4.6464074    4995.3836            1 
   50600    2.0925963   -4.7272585    5020.4553            1 
   50700    2.1255231   -4.6451632    5003.7188            1 
   50800    2.1094383   -4.6948254    4989.3712            1 
   50900     2.053228   -4.6976973    4967.6162       -1e+20 
   51000    2.0675423   -4.6260345    5015.7354            2 
   51100    2.1352944   -4.6385524    5039.4268            1 
   51200     2.124871   -4.6170215     5045.508            1 
   51300    2.0732786   -4.6249921    5017.4832       -1e+20 
   51400     2.110605   -4.6414035    5035.6426            1 
   51500    2.1539947   -4.6449456    5002.1785            1 
   51600    2.1173496   -4.6850216    5016.5915            1 
   51700    2.0984631   -4.6999417    5002.8313            1 
   51800    2.1699982   -4.6833867    4984.3764            1 
   51900    2.0748925   -4.6875884    5010.2507            1 
   52000    2.1131917    -4.624854    5006.0822            2 
   52100    2.1427688   -4.6004269    5030.8697            1 
   52200    2.0796284   -4.6612179     5050.624       -1e+20 
   52300     2.154408    -4.679441    4998.3435            1 
   52400    2.0733364   -4.6156725    5026.6711            1 
   52500    2.1371823   -4.6363756    5026.1796       -1e+20 
   52600    2.1212509   -4.6948386    5021.8548       -1e+20 
   52700    2.1167282   -4.5927285    5036.4198            1 
   52800    2.1412995   -4.5880333    5031.6391       -1e+20 
   52900    2.0807425   -4.6296551    5013.8945            2 
   53000    2.1570299    -4.664591    5026.8387            1 
   53100    2.1180461   -4.6733927    5008.4425            1 
   53200    2.1227915   -4.6550206    5005.4155            1 
   53300    2.1308884   -4.6625046    5018.9374            1 
   53400    2.1455832   -4.6543171    5016.2916            2 
   53500    2.1020959   -4.6733494      4998.81            1 
   53600    2.1674136   -4.6606626    5023.3722            1 
   53700    2.1371056   -4.6729914    5001.6877            1 
   53800    2.0937194   -4.6787247    5004.5316       -1e+20 
   53900    2.1325532   -4.6309382    5013.5662            2 
   54000    2.1315648    -4.649642    5026.4573            1 
   54100    2.0831273   -4.6822206    5017.3326       -1e+20 
   54200    2.1275138   -4.6254035    5019.1194       -1e+20 
   54300    2.1352919   -4.6052191    5039.4102       -1e+20 
   54400    2.0876772   -4.6173861    5041.5944            2 
   54500    2.1555053   -4.6494815    5009.2693            2 
   54600    2.0968097   -4.6802051    5020.5447            1 
   54700    2.1340767   -4.7067595    4983.2274            1 
   54800    2.1186028   -4.6705144     4994.929            1 
   54900    2.0992943   -4.6461218    5024.1742            1 
   55000    2.1580442   -4.6582886    5004.9602            1 
   55100    2.0653163   -4.6290019    5014.6255            1 
   55200    2.1438941   -4.6478978    5022.8094       -1e+20 
   55300    2.1348575   -4.6580725    5011.1344            1 
   55400    2.1092731   -4.6944888    5005.5742            1 
   55500    2.1245966   -4.6321604    5003.5211            2 
   55600    2.1253275   -4.6288714    5021.8109            1 
   55700     2.124873   -4.6835592    5056.1382            1 
   55800    2.1426038   -4.6888725    4993.3654            1 
   55900    2.0895135   -4.6792013    4998.5818            1 
   56000    2.1154124   -4.6592037    5033.1127            1 
   56100    2.1507207   -4.6794675    4998.7172       -1e+20 
   56200    2.1038536   -4.6910328    4978.8798            1 
   56300    2.1345129   -4.6671292    5019.3604            1 
   56400    2.1093485   -4.6153492    5035.0418            1 
   56500    2.1441368   -4.6324432    5039.1638            1 
   56600    2.1310961   -4.7007714    5032.4859            1 
   56700    2.1412671   -4.6959714    5003.8964            1 
   56800    2.0962872   -4.6295022     4989.594       -1e+20 
   56900    2.1027743    -4.650832    5022.7586            1 
   57000    2.0926077   -4.6730349    4973.1586            1 
   57100    2.0954888   -4.6332201    5011.8655            1 
   57200     2.152669   -4.6939492    5020.5988            1 
   57300    2.0935942   -4.7024054    4979.1996            1 
   57400    2.1098409   -4.6615045    5014.2798            1 
   57500    2.1004885   -4.6032071    5014.4894       -1e+20 
   57600    2.0838188   -4.6375554     5022.978            1 
   57700    2.1513672   -4.6143291    5033.1676            1 
   57800    2.1073121   -4.6152644    5012.2634            1 
   57900    2.1252704   -4.6971501     5009.481            1 
   58000    2.0777096   -4.6885059    4984.5135       -1e+20 
   58100    2.1337987   -4.6888691    5000.3831            1 
   58200    2.0823532   -4.6053254    5011.9134       -1e+20 
   58300    2.1300518   -4.6064972    5023.8051            1 
   58400    2.0694223   -4.6344759    5007.2516       -1e+20 
   58500    2.1133157   -4.6498636    5036.0836            1 
   58600    2.1651744   -4.6576759    5014.0499            1 
   58700    2.1085999   -4.6814614    5014.6641            2 
   58800    2.1419142   -4.6452151    5022.6976            1 
   58900    2.1598094   -4.6343421    5079.3393            1 
   59000    2.1251759   -4.6754326    5054.4412            1 
   59100    2.1306074   -4.6130887    5016.9469            1 
   59200    2.1101065   -4.6133911    5043.7749            1 
   59300    2.1491818   -4.6703752    5032.8301       -1e+20 
   59400    2.1477636   -4.6768806     5013.367       -1e+20 
   59500    2.0884145    -4.701887     5031.314            2 
   59600     2.170226   -4.6677741    4982.2535       -1e+20 
   59700    2.0862618   -4.6690616    5011.0416       -1e+20 
   59800    2.1344884   -4.6547018    5019.0043            1 
   59900    2.1362237     -4.59624    5014.2374            1 
   60000     2.058321   -4.6036732    5028.7984            2 
   60100    2.1349928   -4.6191582    5022.1915            1 
   60200    2.0797435   -4.6594135    5000.4559            1 
   60300    2.1138421   -4.7073256    4992.1365       -1e+20 
   60400    2.1601063    -4.673516    5010.4476            1 
   60500    2.0716141   -4.6137658    5017.4488            1 
   60600    2.1198774   -4.6413505    5003.5904            2 
   60700    2.1016644   -4.6731608    5035.8602            1 
   60800    2.1759757   -4.6713444    5013.2852            1 
   60900    2.1270574   -4.6761309    5000.6849            1 
   61000    2.0833266   -4.6781993    5001.0429            1 
   61100    2.1511321   -4.6811804    5024.1445            1 
   61200      2.12645   -4.6542561    5006.4832            1 
   61300    2.0911494    -4.676029    4977.9985            1 
   61400    2.0662733   -4.6023809    5042.3163            1 
   61500    2.1314816   -4.6299563    5021.4333       -1e+20 
   61600    2.1360143   -4.6936449    5013.0418            1 
   61700     2.114443   -4.6592888    5024.3803            1 
   61800    2.1307304   -4.6155753    5022.0826       -1e+20 
   61900    2.1351815   -4.6200321    5044.6253            1 
   62000    2.0748572   -4.6154446    4981.9318            1 
   62100     2.165102   -4.6917843    4995.9372            1 
   62200    2.1222995   -4.6371531    5056.5863       -1e+20 
   62300    2.0858484   -4.5986553     5016.105       -1e+20 
   62400     2.087931   -4.6344574     4990.908       -1e+20 
   62500    2.1187556   -4.6243389    5043.6493            1 
   62600    2.1259662   -4.6238211    5026.0603       -1e+20 
   62700    2.1202553   -4.6674065    5001.8863       -1e+20 
   62800    2.1046579    -4.686071    5010.4579            1 
   62900    2.1386689   -4.6103468    5005.1473            1 
   63000    2.0800872   -4.6307287     5001.272       -1e+20 
   63100    2.1149851   -4.6783255    5033.3832            1 
   63200    2.1331759   -4.6201961    5015.0119            1 
   63300    2.1240905   -4.6349327    4996.0464            1 
   63400    2.0788353   -4.7168701    5030.2241            1 
   63500    2.1286338   -4.6475582    4985.7859            3 
   63600    2.1684626   -4.6473944    5027.7547            1 
   63700    2.1409921   -4.6433877    5035.7402            1 
   63800    2.0739369    -4.608255    5014.8099            1 
   63900    2.1738177   -4.6255527    5029.6789            1 
   64000    2.1367903   -4.6577123    5032.3147            1 
   64100    2.1162359   -4.7015059    5013.3827       -1e+20 
   64200    2.1134486   -4.6582995    5029.3874       -1e+20 
   64300    2.1334305   -4.6260912    5012.8317            1 
   64400    2.0676917   -4.6400772    5007.7741            2 
   64500    2.1343897   -4.6911909    5038.5858            1 
   64600      2.16469   -4.5814752    5020.3821            1 
   64700    2.1159481   -4.6453441    5029.2827       -1e+20 
   64800    2.0919421   -4.6687137    4988.0455            1 
   64900    2.1108688   -4.6699177    5019.3586            2 
   65000    2.1360165   -4.6604228    5038.4308            1 
   65100    2.1156927   -4.6168159    4994.9699            1 
   65200    2.1015643   -4.6651154    5012.7903            1 
   65300    2.1170589   -4.6712896    5013.3073            1 
   65400    2.1191205   -4.6351643    4998.4106            1 
   65500     2.096608   -4.6545893    5023.5051            1 
   65600    2.1391703   -4.6745443     5016.494            1 
   65700    2.1034794   -4.6762254    5004.9675            2 
   65800    2.1272543   -4.6524398    5057.0098       -1e+20 
   65900    2.1710194   -4.6418883    5016.2483            1 
   66000    2.1109744    -4.678349     5013.633            1 
   66100    2.1389322   -4.6846804    4997.5961       -1e+20 
   66200    2.1087167   -4.5948624    5041.4253            2 
   66300    2.1320025    -4.643068    5037.7989            1 
   66400     2.095068   -4.6001283    5011.1737       -1e+20 
   66500    2.1389211   -4.6406241    5033.6026       -1e+20 
   66600    2.1249455     -4.64387      5039.96            3 
   66700    2.1506862   -4.6557571    5000.2656            1 
   66800    2.1120227   -4.7230292    5004.6933            1 
   66900    2.1222682   -4.6939505    5020.4912       -1e+20 
   67000    2.1517522   -4.6745506    4974.7571            2 
   67100    2.1129688    -4.704629     4992.633            1 
   67200    2.1031522   -4.6801809    5030.9707       -1e+20 
   67300    2.1882983   -4.6691706    5015.1645       -1e+20 
   67400    2.0982076   -4.6375276    5022.3271            2 
   67500    2.1005435    -4.638325    5024.2359            1 
   67600    2.1499718   -4.6499322    5029.7801            1 
   67700    2.0953637   -4.6274089    4986.3313            1 
   67800    2.0935097   -4.6443207    5019.4735            1 
   67900    2.1290636   -4.6349438    5021.5516            1 
   68000    2.0943159   -4.6488123    5004.1273            2 
   68100    2.1142386   -4.7402311    4976.0289            1 
   68200    2.0738029    -4.739368    4950.5454            1 
   68300    2.0865385   -4.6754708    5007.0142            1 
   68400    2.1266837   -4.6718765    5007.0108       -1e+20 
   68500    2.1298934   -4.6699038    5023.6488            1 
   68600    2.1045355   -4.6583913    5018.9132            1 
   68700    2.1529717    -4.719287    4988.9327            1 
   68800    2.1005985   -4.6799551      5017.77            3 
   68900    2.1415402   -4.6446066    5023.6908            1 
   69000    2.0949387   -4.6608459    4999.4661            1 
   69100    2.1169697   -4.6612822     4994.955            1 
   69200    2.0986576   -4.6526659    5008.9904            1 
   69300    2.1567707   -4.6673559    5022.8101       -1e+20 
   69400     2.116897   -4.6664581    5054.8618            1 
   69500    2.1453476   -4.6464621    5005.3235       -1e+20 
   69600    2.0932205   -4.6735557    4998.4404            1 
   69700     2.073953   -4.7297668     4989.303            1 
   69800    2.1372232   -4.7035914    4960.5758            1 
   69900    2.1115488   -4.6633511    5006.2458            1 
   70000    2.1161048   -4.6495538    5031.0993            1 
   70100     2.089969   -4.6240291    4997.6088       -1e+20 
   70200    2.1188623   -4.7059071    4999.8769            3 
   70300    2.1528186   -4.7315033    4995.8029            1 
   70400    2.1050042   -4.6852499    4986.7513       -1e+20 
   70500    2.1031193   -4.6400816    5033.4414            1 
   70600    2.1165152   -4.6277083    5004.8985       -1e+20 
   70700      2.16396   -4.6557174    5037.4789            1 
   70800       2.1061   -4.6829804    5042.0979       -1e+20 
   70900    2.1512483   -4.6394495    5008.0264       -1e+20 
   71000    2.0747588    -4.665149    5012.6625       -1e+20 
   71100    2.1258333    -4.665781    5024.3687       -1e+20 
   71200     2.133003   -4.6190842    5021.0423       -1e+20 
   71300    2.1026763   -4.6806871    5028.1038       -1e+20 
   71400    2.1207838   -4.5942887      5014.02            1 
   71500    2.1164263   -4.6026596    5049.7565            1 
   71600    2.0959895   -4.6193179    5044.0804            1 
   71700    2.1352541    -4.665904    4996.6685            1 
   71800    2.1006187   -4.6882729    4995.9149       -1e+20 
   71900    2.1262456   -4.6837378    4990.1255       -1e+20 
   72000    2.1175991   -4.6625036    5022.9645            1 
   72100    2.1340915   -4.6497467     5007.262            1 
   72200    2.0921088   -4.6884793    4986.9194            2 
   72300    2.1338125   -4.7232151    4993.9325       -1e+20 
   72400       2.1191   -4.6533102    4988.8853            1 
   72500    2.1147989   -4.6653997    5022.4771            1 
   72600    2.1089025   -4.6456094    5054.6319            1 
   72700    2.1524084   -4.6251431    5002.9728            1 
   72800    2.1201088   -4.6891538    4984.1904            1 
   72900    2.1111224   -4.6846291    5030.2553            2 
   73000    2.1443619   -4.6228769    5026.5235            1 
   73100     2.109487    -4.672012    5001.9704            2 
   73200    2.1047731   -4.6788388    5020.1194            2 
   73300    2.1262264   -4.6502529    5009.3029            3 
   73400    2.0826662   -4.6717172    5013.7425            1 
   73500    2.1451504   -4.6293671    4995.2357       -1e+20 
   73600    2.1130316   -4.6127255    5064.4514            2 
   73700    2.1480388   -4.6435425    5018.1463            1 
   73800    2.1161193   -4.6758157    5011.1907            1 
   73900    2.0975403   -4.6720309    5008.1836            1 
   74000    2.1390561   -4.6610166    5011.5582       -1e+20 
   74100    2.1058651   -4.6245095    5023.1856            1 
   74200    2.0966284   -4.6814831    4991.0538            1 
   74300    2.1344788   -4.6872732     5007.978            1 
   74400    2.1115294   -4.6457188    5020.3328            1 
   74500    2.1329981   -4.6044062    5026.9068            1 
   74600    2.0999239    -4.657986    4993.6264       -1e+20 
   74700    2.1071842   -4.6503559    5022.4684            1 
   74800    2.1502318   -4.6505463    5044.4711            1 
   74900    2.1170994   -4.6813123    5017.4221            1 
   75000     2.100215   -4.6733533    5012.2464            1 
   75100    2.1269171   -4.6833639    4963.6372            1 
   75200    2.1228473   -4.6603832    5025.3297            1 
   75300    2.1132269   -4.6832996    5008.6447            1 
   75400    2.1213571   -4.6095713    5001.2226            1 
   75500    2.0876903   -4.6549215      5035.18       -1e+20 
   75600    2.1294961   -4.6288169    4999.4547            1 
   75700    2.1422234   -4.6689401     5007.111            2 
   75800    2.0932903   -4.7122929    4990.5604            1 
   75900    2.1351421   -4.6661464    5011.1372            1 
   76000    2.1039011   -4.6692967    5049.9808            1 
   76100    2.1472328   -4.5927118    5017.9109            1 
   76200    2.1077419   -4.6442064    5019.5588            1 
   76300    2.1258158    -4.680458    5049.2459            1 
   76400    2.1604908   -4.6150452    4996.1528            1 
   76500    2.0959133   -4.6638125    5025.7371       -1e+20 
   76600    2.1546881    -4.663744    5029.9388            1 
   76700    2.1133069   -4.6602907     5029.698       -1e+20 
   76800    2.1058823    -4.719796    4992.5939       -1e+20 
   76900    2.1255405   -4.6644805    5003.5801            1 
   77000    2.1337686   -4.6599308    5011.5513       -1e+20 
   77100    2.0567383   -4.6830718    5044.7866            1 
   77200    2.1776157   -4.6819913    4978.6246       -1e+20 
   77300    2.1249436   -4.6912354    5016.7621            1 
   77400    2.1179834   -4.6784068    5031.0979            2 
   77500    2.1181954   -4.6166784    4999.7851            1 
   77600    2.1246653   -4.6685113    5047.4126       -1e+20 
   77700     2.100614   -4.6552424    4999.9902            1 
   77800    2.1342296   -4.6430257    5031.6455            1 
   77900    2.1397373   -4.6456621    5020.9066            1 
   78000    2.1295671   -4.6625441    5008.8525       -1e+20 
   78100    2.0640686   -4.6726835    5023.7116            1 
   78200    2.1279793   -4.6261179    5014.4897            1 
   78300    2.1520974   -4.5941589    5018.6062            1 
   78400    2.0610901   -4.6464058     5062.514            2 
   78500    2.1462543   -4.6392324    5012.0853            1 
   78600    2.1272942   -4.6568192    5033.0369            1 
   78700    2.0960003   -4.6652128    5018.7642            1 
   78800    2.1229947   -4.6434523    4991.1332       -1e+20 
   78900    2.0693066   -4.6536639    5017.1396            1 
   79000    2.1511168     -4.63678    5016.8434            1 
   79100    2.1427785   -4.6355587     5032.809            1 
   79200    2.1011293   -4.6710732    5030.2084            1 
   79300    2.1445038   -4.6689677    5001.2561            1 
   79400    2.1287434   -4.7032855    5011.5665            1 
   79500    2.1317153   -4.7033505     5009.515            1 
   79600    2.1576222   -4.6854653    5009.5547            2 
   79700    2.1227549   -4.6067349    5063.6983            1 
   79800    2.1792251   -4.6054982    5054.7693       -1e+20 
   79900    2.1590847   -4.6704616    5013.7121            2 
   80000    2.0755603   -4.6940311    5027.9771            2 
   80100    2.1564762   -4.6527229    4984.3912       -1e+20 
   80200     2.134516   -4.7006276    5024.5217            1 
   80300    2.1090862   -4.7065546    5010.2551            1 
   80400    2.1400372   -4.6525364    4973.3406       -1e+20 
   80500    2.1301203   -4.6614358    5045.8958            1 
   80600    2.1465572   -4.6718588    5047.5285            1 
   80700    2.1327853   -4.6659877    4994.1671       -1e+20 
   80800    2.1316431   -4.6480904    5024.6718            1 
   80900    2.1069754   -4.6110235    5056.5435            1 
   81000    2.1213614   -4.6322448    5026.2333       -1e+20 
   81100    2.1483219   -4.6128812    5044.5923            1 
   81200    2.1011186   -4.6108581    5010.3171       -1e+20 
   81300    2.1190227   -4.6654208    5031.0922            1 
   81400    2.1278814   -4.6543555    5013.9155            1 
   81500    2.1265157   -4.6472084    4985.7058            1 
   81600    2.0996796   -4.7211684    5027.3718            1 
   81700    2.1760944    -4.678897    4998.3363       -1e+20 
   81800    2.1359251   -4.7008691     5034.146            2 
   81900    2.1353394   -4.6446593    5033.7589            1 
   82000    2.1515713   -4.6356219     5016.715       -1e+20 
   82100     2.087256   -4.6768771     5037.835       -1e+20 
   82200    2.1501587   -4.6432342    5016.5647       -1e+20 
   82300    2.1001367   -4.6642165    5010.4089            1 
   82400    2.1753691   -4.7116768    4997.2392            1 
   82500     2.095736   -4.7050496    5007.6054            2 
   82600    2.1684748   -4.7060913    5013.6755            1 
   82700    2.1272041   -4.6816715    5008.7386            3 
   82800    2.1061996   -4.6330972    5010.4466       -1e+20 
   82900    2.1566724   -4.6616155    5039.7047            1 
   83000     2.135712   -4.7101465    5016.9747            1 
   83100    2.1278385   -4.6959797    4995.1859            1 
   83200     2.092216   -4.6346567    5010.4297       -1e+20 
   83300    2.1633576   -4.6714267    5046.0003       -1e+20 
   83400    2.0818825   -4.6296302     5007.751            1 
   83500    2.1520909   -4.6753433    5002.7578            1 
   83600    2.0768169   -4.6805397    5003.9009       -1e+20 
   83700    2.1004762   -4.6668772    4999.0891       -1e+20 
   83800    2.1380603   -4.6344539    4990.0546            1 
   83900    2.0869709   -4.6649604    5035.8236       -1e+20 
   84000    2.1734993   -4.6659623    5006.3266            1 
   84100    2.0597327   -4.6067123     5017.092            1 
   84200    2.1199493   -4.6910608    5030.6796       -1e+20 
   84300    2.1830227    -4.657389    4983.2455            1 
   84400    2.0790237   -4.6530764    5062.0155            1 
   84500    2.1447791   -4.5897919    5015.4994            1 
   84600    2.1105489   -4.6150752    5042.0351            1 
   84700    2.1253247   -4.6439522    5047.7629            1 
   84800    2.1149345   -4.6522109    4961.5477            1 
   84900     2.115325   -4.6805644    5016.7504            1 
   85000    2.1294169   -4.6736765    5025.4102       -1e+20 
   85100    2.1318813    -4.718889    4991.1258            2 
   85200    2.1084922   -4.6409306     5004.252            1 
   85300    2.1301611   -4.6650805    5037.3001            1 
   85400    2.0910827   -4.6905124    4999.2257            1 
   85500    2.1044548   -4.6302286    4995.9346            1 
   85600    2.1134255   -4.6326553    5031.1418            1 
   85700    2.1228154   -4.6319754    5013.5479            1 
   85800    2.0985725   -4.6108911     5015.356            2 
   85900    2.1060936   -4.6623573    5041.6392            1 
   86000    2.1494726   -4.6260611    4991.1405            1 
   86100    2.1041564   -4.6517993    5054.0699            1 
   86200     2.117449   -4.6763617    5015.9907       -1e+20 
   86300    2.1287025   -4.6998996    4983.3682            3 
   86400    2.1518515   -4.6356825    5025.1134            1 
   86500    2.1241764   -4.7109731    4998.8901            2 
   86600    2.1078081   -4.6890943    5014.3724            1 
   86700     2.137296   -4.6265558    5030.0958            1 
   86800    2.1303043   -4.6440454    5017.3163            2 
   86900    2.1152025    -4.655993    5003.0103            1 
   87000    2.0852159    -4.644483    5012.3339       -1e+20 
   87100    2.1074335   -4.6447837    5001.5713            1 
   87200    2.1545172   -4.6748361    5016.1337            1 
   87300    2.0730502   -4.6581173    5017.8491       -1e+20 
   87400    2.1148917   -4.6504045     4984.866       -1e+20 
   87500     2.125305   -4.5977302    5028.5959            1 
   87600    2.1052156   -4.6367073    5064.5358            2 
   87700    2.1028198   -4.6696837    4983.2234            1 
   87800    2.1080013   -4.6454261    4996.4667            2 
   87900    2.1407032   -4.6532843    5027.4981            1 
   88000    2.1121079   -4.6524282    5008.3064            1 
   88100    2.1050843   -4.6792851    5008.3681            1 
   88200    2.1645427   -4.6625879    5006.1155            1 
   88300    2.0592242   -4.6571298    5034.6204            1 
   88400    2.1649506   -4.6961573    4997.5884            2 
   88500    2.1134415   -4.6535639    5030.3923            1 
   88600    2.1259599   -4.6671893    5034.5433            1 
   88700    2.1195505    -4.660541    5005.8496            1 
   88800    2.0996463   -4.6672977    4996.4004            1 
   88900    2.1181082   -4.7164405    4998.4488            1 
   89000    2.1278076   -4.6947352    5023.1859            1 
   89100    2.1413939   -4.7247029    4975.0377            1 
   89200    2.0790454   -4.6694601    4969.0692            1 
   89300    2.1000604   -4.6707507    5015.2926       -1e+20 
   89400    2.1278153   -4.6593605    4999.7062            1 
   89500    2.0977025   -4.6828682     4984.505            1 
   89600    2.1335061   -4.6416598    5041.9052            1 
   89700    2.1462866   -4.6177177    5015.5296            1 
   89800    2.1264805   -4.7255568    5015.9023            1 
   89900    2.1328421   -4.7013463    5009.9808            1 
   90000    2.1678771    -4.639878    5024.3545            1 
   90100    2.1100251   -4.6553726    5017.9421            1 
   90200    2.1155665    -4.692103    5014.4231            1 
   90300    2.1551213    -4.622008    5006.4445            1 
   90400    2.0878682   -4.6195567    5064.6156       -1e+20 
   90500    2.1553394   -4.6508172    5034.3556            1 
   90600     2.143248    -4.676955    5005.4153            1 
   90700    2.0732726   -4.6744404    5013.0599            1 
   90800    2.1745716   -4.7003115    5020.6893            1 
   90900    2.1046045     -4.64775    4972.2675            1 
   91000    2.0957883   -4.6951583    5022.3418            1 
   91100    2.1108279    -4.644469    5000.9946       -1e+20 
   91200    2.1589936   -4.6603562    5038.0279       -1e+20 
   91300    2.1284006   -4.6844704    5031.0222            1 
   91400    2.1258217   -4.6648813    4995.9834            1 
   91500    2.1367853   -4.6659869    5005.1513            1 
   91600    2.0511168   -4.6643064    5043.8018            1 
   91700    2.1409237   -4.6177097    4990.4129       -1e+20 
   91800     2.102856   -4.6738726    5019.8887            1 
   91900    2.1522223   -4.6551212    5021.0156       -1e+20 
   92000    2.1069754   -4.6670006    5004.4316            2 
   92100    2.0965646    -4.693087     4995.763            1 
   92200    2.1065275   -4.6309163    5020.6615            1 
   92300    2.1324672   -4.6030493     5033.206            1 
   92400    2.0832376   -4.6581727    5031.0816            1 
   92500      2.11964   -4.6801097     4996.671            1 
   92600    2.1779619   -4.6719505    5004.9943            1 
   92700    2.0903298   -4.6670308    5019.7459       -1e+20 
   92800    2.1269604   -4.6841386    4983.2961            1 
   92900    2.1549432   -4.6754792    5033.3744            1 
   93000    2.1060946    -4.665145    5012.1121            1 
   93100     2.144203   -4.6460387    5009.1852            1 
   93200    2.0986572   -4.6537117    5021.5696            1 
   93300    2.1583223   -4.6710489    4992.7572            1 
   93400    2.0619292   -4.6619024    5019.6658            1 
   93500    2.1122583   -4.6412123    5038.7718            1 
   93600    2.1498845   -4.6107571    5009.1035            1 
   93700    2.0931036   -4.6434397    5040.3151            1 
   93800     2.131719   -4.6846479    5003.2271            1 
   93900    2.1289394   -4.6645689    5003.5963       -1e+20 
   94000    2.1269885   -4.6688435    5029.6909            1 
   94100    2.1441204   -4.6979877    5006.5829            1 
   94200    2.0722022   -4.6458019    4980.1952            1 
   94300    2.1350801   -4.6858928    5026.8817            1 
   94400     2.082988   -4.6506756    5011.8798       -1e+20 
   94500    2.1464724   -4.6349561    4999.3682            1 
   94600    2.1075594   -4.6417374    5048.2902            3 
   94700    2.0975107   -4.5887771    5019.7552       -1e+20 
   94800    2.1178163   -4.6397284    5002.6607            1 
   94900    2.1312282   -4.6411646    5048.1075            1 
   95000    2.1077191    -4.622346    5006.2331            2 
   95100    2.1097437   -4.6886192     5008.058            1 
   95200    2.1484898   -4.6644666    5000.1614            1 
   95300    2.1012906   -4.6684282    5033.4874            1 
   95400     2.137189   -4.6620627    5046.9323       -1e+20 
   95500    2.1900831   -4.6741361    5017.8849            1 
   95600    2.0868848    -4.673641    5017.2313            1 
   95700    2.1301559   -4.6375472    5006.4066            1 
   95800    2.1084623   -4.6073272    5026.6732            1 
   95900    2.1171829   -4.6380994    5040.5292            1 
   96000     2.125691   -4.6581529    4985.5258            1 
   96100    2.0825237   -4.7023906    5004.4662            1 
   96200    2.1287449   -4.6484475    5026.6491            1 
   96300      2.17408   -4.6488891    5022.2009            1 
   96400    2.0932528   -4.6624836     5026.339            2 
   96500    2.1546817   -4.6590333    5019.2201       -1e+20 
   96600    2.0863492   -4.6956155    5017.3084            1 
   96700    2.1723949   -4.6946693    5001.2244            1 
   96800    2.0996438    -4.660118    5005.9604       -1e+20 
   96900    2.1050538   -4.7122561    5011.0485            1 
   97000    2.1327015   -4.6641112    5007.0189            1 
   97100     2.108155   -4.6779566    4996.9334            1 
   97200    2.0913425   -4.6843258    4987.7153            1 
   97300    2.1118326   -4.6413675     5002.929            1 
   97400    2.1306186   -4.6598963    5037.5303            2 
   97500    2.1342853   -4.6307577    5040.3844            1 
   97600    2.1276953   -4.6601252    5003.9667            1 
   97700    2.0571648   -4.6971508    5017.6098            1 
   97800    2.1371617   -4.6538761    4989.8161            2 
   97900    2.1035679   -4.6437398    5024.8897            1 
   98000    2.1496109   -4.6615559    5028.9409            1 
   98100     2.144992   -4.7072189    5007.7159            1 
   98200     2.114715   -4.7608163    4967.3203            1 
   98300    2.1047963   -4.6928024    4995.2892            1 
   98400    2.1255342   -4.6695825    4989.5901       -1e+20 
   98500     2.084766   -4.6832316    4991.6638            1 
   98600     2.126093   -4.6565868    5020.0166            1 
   98700     2.150853   -4.6519474    5016.1836            1 
   98800    2.0824301   -4.6747853    5027.2122            3 
   98900    2.1409171   -4.6437622    5011.9493            1 
   99000    2.1444893   -4.6244401    5035.2493            1 
   99100    2.1069633   -4.6613413    5046.1546       -1e+20 
   99200    2.1499361   -4.6246415    4996.9698       -1e+20 
   99300    2.1057369   -4.6196504    5051.4312            2 
   99400    2.1166137   -4.6331286    5041.1596       -1e+20 
   99500    2.1578953   -4.6669819    4997.9099            1 
   99600    2.1213048    -4.728475    4989.4801            1 
   99700    2.1255545   -4.6874001    4991.4591       -1e+20 
   99800     2.135391   -4.6127681    5016.7444            1 
   99900    2.0899837   -4.6827715    5023.6501       -1e+20 
  100000      2.12657   -4.6789663    4978.2656            1 
  100100    2.1035351    -4.640776    5018.2948            1 
  100200    2.1095361   -4.6605523    5019.0501            1 
  100300    2.1865675    -4.611668    5008.5031       -1e+20 
  100400    2.1158346   -4.6456386      5049.16            1 
  100500    2.1047755   -4.6538482    5000.1872       -1e+20 
  100600     2.139271   -4.6595932    5020.6259            1 
  100700     2.096044   -4.6476228    5031.7326       -1e+20 
  100800    2.1576971    -4.657349    4989.6257            1 
  100900    2.0981595    -4.691317    5030.2362            1 
  101000    2.1449339   -4.6778189    5008.1722            1 
  101100    2.1145008   -4.6381616    5016.6736            1 
  101200    2.1459815     -4.68984    5039.3115            1 
  101300    2.1174046   -4.6836739    5005.5801            1 
  101400    2.1051465   -4.6649296     5027.573            1 
  101500     2.127996   -4.6146023    5030.6727            1 
  101600    2.1225294   -4.6803165    5022.9761       -1e+20 
  101700     2.127509   -4.7502035    4981.4343            2 
  101800    2.1225906   -4.6512409    5005.3613            1 
  101900    2.1377477   -4.6732951    5016.4964            1 
  102000    2.0750878   -4.6924493    5004.2739       -1e+20 
  102100    2.1486395   -4.6600551    4970.4233       -1e+20 
  102200    2.0656601   -4.6567185    5037.7815            1 
  102300    2.1180349   -4.6359467    5001.8626            1 
  102400    2.1678563   -4.6991802    5014.1653            1 
  102500       2.1026    -4.684148    5029.8114            1 
  102600    2.1610266   -4.7107313    4981.9738            1 
  102700    2.1050846   -4.7001119     4999.137            1 
  102800    2.1565942   -4.7169712    5023.9354            1 
  102900    2.0848804   -4.6314417    5011.7634       -1e+20 
  103000    2.1191802   -4.5972885    5013.2413            1 
  103100    2.0933357   -4.6486925    5033.7213            1 
  103200    2.0669057    -4.622988    5015.0877            1 
  103300    2.1539403   -4.6453885    5015.8201       -1e+20 
  103400    2.1113538   -4.6872988    5001.7887            1 
  103500    2.1390036   -4.6656105    5030.0081       -1e+20 
  103600    2.1375217   -4.6341291    5045.5482            1 
  103700    2.1122748    -4.645971    5026.6655            1 
  103800    2.0799794   -4.6680471    4993.3964            1 
  103900    2.1341428   -4.7176864    4990.8481            1 
  104000     2.116491   -4.6636769    5035.9838            1 
Loop time of 582.981 on 20 procs for 100000 steps with 4000 atoms

Performance: 29640.781 tau/day, 171.532 timesteps/s
99.8% CPU use with 20 MPI tasks x no OpenMP threads

MPI task timing breakdown:
Section |  min time  |  avg time  |  max time  |%varavg| %total
---------------------------------------------------------------
Pair    | 25.335     | 26.844     | 27.769     |  13.4 |  4.60
Neigh   | 4.555      | 4.7202     | 5.2296     |   6.3 |  0.81
Comm    | 23.811     | 27.142     | 31.581     |  38.4 |  4.66
Output  | 5.5637     | 5.5652     | 5.5809     |   0.2 |  0.95
Modify  | 511.86     | 513.99     | 516.84     |   7.0 | 88.17
Other   |            | 4.723      |            |       |  0.81

Nlocal:        200.000 ave         207 max         190 min
Histogram: 1 0 1 2 4 4 1 1 4 2
Nghost:        2080.80 ave        2103 max        2062 min
Histogram: 3 1 2 2 3 2 3 3 0 1
Neighs:        18133.5 ave       19723 max       16947 min
Histogram: 2 3 1 5 1 1 5 1 0 1
FullNghs:      36264.4 ave       37989 max       34316 min
Histogram: 1 1 2 3 1 2 5 2 2 1

Total # of neighbors = 725288
Ave neighs/atom = 181.32200
Neighbor list builds = 8604
Dangerous builds = 609

#clear
#
#next RN
#
#jump SELF
Total wall time: 0:09:45
