
units lj                  # Use reduced LJ style units
atom_style atomic         # Uncharged point particles
atom_modify map hash      # Needed for indexing of clusters etc
                          # Used to be able to find where atoms are in relation to each other.

# Define a lattice with which to populate the simulation cell. With units
# set to 'lj' the second argument to the lattice command is the reduced
# density rho* and the spacings are multiples of that required to acheive
# that density. Also define a simulation cell called 'box' in lattice units
# and fill it with atoms. Here we're creating a box which is ten lattice
# constants in each direction.
lattice fcc 1.0 spacing 1 1 1                 # All equal sizes - gives the right reduced density.
Lattice spacing in x,y,z = 1.5874011 1.5874011 1.5874011

region box block 0 10 0 10 0 10 units lattice # Defines a region, "box", in lattice units
create_box 1 box                              # Creates a simulation box as specified above,
Created orthogonal box = (0.0000000 0.0000000 0.0000000) to (15.874011 15.874011 15.874011)
  2 by 2 by 7 MPI processor grid
                                              # with one type of atom
create_atoms 1 box                            # Creates particles on lattice points
Created 4000 atoms
  using lattice units in orthogonal box = (0.0000000 0.0000000 0.0000000) to (15.874011 15.874011 15.874011)
  create_atoms CPU = 0.002 seconds


# Set the mass of the first (and only) atom type.
mass 1 1.0

# Lennard-Jones interactions between particles, 3.5 sigma cut-off. Apply
# long range tail corrections to energy and pressure and set all coefficients
# to unity since we work in reduced units here. Note that this doesn't shift
# the potential such that it goes to zero at the cutoff. That would require
# pair_modify('shift', 'yes').
pair_style lj/cut  3.5      # non-GPU version
pair_modify tail  yes
pair_coeff 1  1  1.0  1.0   # Intearaction between 1 and 1 set with epsilon = 1 and sigma = 1

write_data data.*
System init for write_data ...
Neighbor list info ...
  update every 1 steps, delay 10 steps, check yes
  max neighbors/atom: 2000, page size: 100000
  master list distance cutoff = 3.8
  ghost atom cutoff = 3.8
  binsize = 1.9, bins = 9 9 9
  1 neighbor lists, perpetual/occasional/extra = 1 0 0
  (1) pair lj/cut, perpetual
      attributes: half, newton on
      pair build: half/bin/atomonly/newton
      stencil: half/bin/3d
      bin: standard

#############################
#   M E L T   S Y S T E M   #
#############################

velocity all create 2.4 9622624 mom yes dist gaussian # Assign velocities
                                                    # Temperature 2.4, random number seed, zero linear momentum
						                                                        # Gaussian distribution

timestep 0.002   # simulation timestep
thermo 100       # output thermodynamic data every 100 steps

# Define a fix  in this case with index 1 applied to all
# particles in the simulation. This fix is for simulations
# in the anisotropic NPT ensemble. Note that we use the MTK
# correction.
fix 1 all npt temp 2.4 2.4 0.1 iso 5.68 5.68 0.5 mtk yes tchain 5 pchain 5 # Use NPT ensemble
                                                                         # Set temperature and pressure and damping
                                                                         # Numbers of thermostats in chain and in barostat
run 1000         # run for 10000 steps
Per MPI rank memory allocation (min/avg/max) = 3.642 | 3.654 | 3.657 Mbytes
Step Temp E_pair E_mol TotEng Press Volume 
       0          2.4   -8.3859253            0   -4.7868253   -2.2405722         4000 
     100     1.256502   -6.5137603            0   -4.6294785    5.5061441    4089.3939 
     200    1.4710413   -6.2962202            0   -4.0902099    6.1259073    4136.4974 
     300    1.5753793   -6.0048156            0   -3.6423375    5.8881655    4269.3275 
     400     1.695533   -5.7167441            0   -3.1740804    5.9576171    4396.1624 
     500    1.7977703    -5.422775            0   -2.7267936    5.9233545    4540.2438 
     600    1.8751095    -5.133639            0   -2.3216778    5.8305819    4705.3349 
     700    2.0067687   -4.9044304            0   -1.8950299    5.8181833    4845.3775 
     800    2.1683387   -4.7479596            0   -1.4962646    5.6703181    4968.6147 
     900    2.2591539   -4.5766532            0   -1.1887696    5.5447205    5099.1514 
    1000    2.3772702    -4.449968            0  -0.88495416    5.8567059    5140.3387 
Loop time of 0.324755 on 28 procs for 1000 steps with 4000 atoms

Performance: 532093.687 tau/day, 3079.246 timesteps/s
99.7% CPU use with 28 MPI tasks x no OpenMP threads

MPI task timing breakdown:
Section |  min time  |  avg time  |  max time  |%varavg| %total
---------------------------------------------------------------
Pair    | 0.14739    | 0.16122    | 0.17735    |   1.9 | 49.64
Neigh   | 0.028856   | 0.030231   | 0.032278   |   0.5 |  9.31
Comm    | 0.088645   | 0.10569    | 0.12113    |   2.3 | 32.54
Output  | 0.00020789 | 0.00021286 | 0.00027306 |   0.0 |  0.07
Modify  | 0.020573   | 0.025201   | 0.033408   |   2.3 |  7.76
Other   |            | 0.002206   |            |       |  0.68

Nlocal:        142.857 ave         155 max         133 min
Histogram: 2 2 0 6 5 9 1 1 1 1
Nghost:        1918.21 ave        1934 max        1902 min
Histogram: 1 1 4 4 5 4 1 4 1 3
Neighs:        12690.1 ave       13892 max       11313 min
Histogram: 1 1 2 4 5 5 3 3 2 2

Total # of neighbors = 355324
Ave neighs/atom = 88.831000
Neighbor list builds = 87
Dangerous builds = 18

# Equilibrate just above the melting temperature to avoid step fn in T

fix 1 all npt temp 1.25 1.25 0.1 iso 5.68 5.68 0.5 mtk yes tchain 5 pchain 5
run 1000
Per MPI rank memory allocation (min/avg/max) = 3.643 | 3.655 | 3.658 Mbytes
Step Temp E_pair E_mol TotEng Press Volume 
    1000    2.3772702    -4.449968            0  -0.88495416    5.8567059    5140.3387 
    1100    1.9123587   -4.6299409            0     -1.76212    5.7356352    5010.0317 
    1200     1.748463   -4.9742749            0   -2.3522361    5.6314428    4809.1156 
    1300    1.5839166   -5.2240149            0    -2.848734     5.537847    4676.3458 
    1400    1.4493602   -5.3637066            0   -3.1902097    5.9258711    4553.5937 
    1500    1.3475159   -5.4905275            0   -3.4697589    5.8595912    4492.3019 
    1600    1.3105851   -5.6398502            0   -3.6744639     5.695843    4436.2068 
    1700    1.2621862   -5.7135111            0   -3.8207051    5.6775847    4398.9832 
    1800    1.2554554   -5.7810045            0   -3.8982922     5.797944     4358.617 
    1900    1.2634776   -5.8544833            0   -3.9597407    5.6933777     4339.129 
    2000    1.2398732   -5.8281233            0   -3.9687785    5.8601907    4332.3676 
Loop time of 0.313213 on 28 procs for 1000 steps with 4000 atoms

Performance: 551700.998 tau/day, 3192.714 timesteps/s
99.8% CPU use with 28 MPI tasks x no OpenMP threads

MPI task timing breakdown:
Section |  min time  |  avg time  |  max time  |%varavg| %total
---------------------------------------------------------------
Pair    | 0.15361    | 0.161      | 0.17229    |   1.0 | 51.40
Neigh   | 0.025613   | 0.026519   | 0.027734   |   0.3 |  8.47
Comm    | 0.0913     | 0.099898   | 0.1088     |   1.3 | 31.89
Output  | 0.00020242 | 0.00020948 | 0.00026092 |   0.0 |  0.07
Modify  | 0.019717   | 0.023055   | 0.026117   |   1.5 |  7.36
Other   |            | 0.002531   |            |       |  0.81

Nlocal:        142.857 ave         151 max         135 min
Histogram: 2 2 0 6 4 4 5 3 1 1
Nghost:        2132.14 ave        2154 max        2113 min
Histogram: 3 1 3 2 7 5 3 1 2 1
Neighs:        15062.4 ave       16238 max       13803 min
Histogram: 1 1 3 3 6 5 3 3 1 2

Total # of neighbors = 421746
Ave neighs/atom = 105.43650
Neighbor list builds = 76
Dangerous builds = 11


# Small amount of linear quench

fix 1 all npt temp 1.25 ${temp} 0.1 iso 5.68 5.68 0.5 mtk yes tchain 5 pchain 5
fix 1 all npt temp 1.25 2 0.1 iso 5.68 5.68 0.5 mtk yes tchain 5 pchain 5
run 2000
Per MPI rank memory allocation (min/avg/max) = 3.644 | 3.655 | 3.658 Mbytes
Step Temp E_pair E_mol TotEng Press Volume 
    2000    1.2398732   -5.8281233            0   -3.9687785    5.8601907    4332.3676 
    2100    1.2984734    -5.854624            0   -3.9074009    5.6505518    4346.6422 
    2200    1.3196918   -5.8378622            0   -3.8588194    5.7660427    4341.9621 
    2300    1.3315437   -5.7849058            0   -3.7880896    5.6397916    4379.5094 
    2400    1.3501979   -5.7193685            0   -3.6945781    5.5515242    4413.3353 
    2500    1.3960559   -5.6710037            0   -3.5774435    5.5523219    4439.9443 
    2600    1.4237083   -5.5862648            0   -3.4512363    5.7933893    4458.0608 
    2700    1.4743057   -5.5371856            0     -3.32628    5.7669981    4484.9431 
    2800    1.4848395   -5.4702008            0   -3.2434984    5.5707454    4538.6599 
    2900    1.5345259   -5.4174658            0   -3.1162523    5.5940644    4565.3906 
    3000    1.6007015   -5.3683496            0   -2.9678976    5.6893118    4581.8154 
    3100     1.632669   -5.3005305            0   -2.8521392    5.7965241    4607.2752 
    3200    1.6506972   -5.2261311            0   -2.7507043    5.7493837    4649.0849 
    3300    1.6705384   -5.1681781            0    -2.662997    5.6118927    4700.3397 
    3400    1.7288639   -5.1056755            0    -2.513028    5.9880504    4695.0344 
    3500    1.8342746   -5.0942821            0    -2.343558    6.0313013    4706.6992 
    3600    1.7886288   -5.0282024            0   -2.3459299    5.6763901    4772.5302 
    3700    1.8755455   -5.0194847            0   -2.2068699    5.7065016    4785.5025 
    3800    1.9032504   -4.9805985            0   -2.1264366    5.6413197     4812.488 
    3900     1.944421   -4.9505772            0   -2.0346749    5.4187841    4859.5774 
    4000    1.9625853   -4.8736737            0   -1.9305316    5.4608549    4899.3661 
Loop time of 0.628278 on 28 procs for 2000 steps with 4000 atoms

Performance: 550075.215 tau/day, 3183.306 timesteps/s
99.7% CPU use with 28 MPI tasks x no OpenMP threads

MPI task timing breakdown:
Section |  min time  |  avg time  |  max time  |%varavg| %total
---------------------------------------------------------------
Pair    | 0.30658    | 0.32092    | 0.33584    |   1.4 | 51.08
Neigh   | 0.051574   | 0.053029   | 0.056329   |   0.5 |  8.44
Comm    | 0.1864     | 0.20183    | 0.22621    |   2.4 | 32.12
Output  | 0.00040987 | 0.00041989 | 0.00052547 |   0.0 |  0.07
Modify  | 0.036788   | 0.046951   | 0.055731   |   2.8 |  7.47
Other   |            | 0.005124   |            |       |  0.82

Nlocal:        142.857 ave         149 max         136 min
Histogram: 2 2 3 3 2 4 6 0 1 5
Nghost:        1981.54 ave        1992 max        1967 min
Histogram: 1 1 2 1 4 5 6 3 0 5
Neighs:        13307.1 ave       14615 max       12379 min
Histogram: 3 2 3 5 5 7 0 1 0 2

Total # of neighbors = 372599
Ave neighs/atom = 93.149750
Neighbor list builds = 150
Dangerous builds = 3

#############################
# F R E E Z E  S Y S T E M  #
#############################

# Define solid atoms. This closely follows ten Wolde  Ruiz-Montero and Frenkel  Faraday Discuss  1996  104  93-110
# Compute components of the per-atom q6 vector
compute q6 all orientorder/atom degrees 1 6 components 6 nnn NULL cutoff 1.3 # compute the Q6 parameter.
                                                                             # Use all neighbours within 1.3 unit cell.

# get number of connections
compute coord_number all coord/atom orientorder q6 0.5

# An atom is solid if it has 8 or more connections (of a possible 14)
variable is_solid atom c_coord_number>=8
group solid dynamic all var is_solid    # Must be dynamic to update
dynamic group solid defined

# do clustering
compute cluster solid cluster/atom 1.3 # Create a cluster where all atoms within are solid and max 1.3 units from another member

# define chunks one chunk per cluster
compute clus_chunks solid chunk/atom c_cluster nchunk every compress yes  # Says which atoms are in which chunk

# count the size of each chunk
compute size_chunks solid property/chunk clus_chunks count


# Find the maximum entry in the vector of chunk sizes
variable max_n equal max(c_size_chunks)


# Thermo style which includes this variable
thermo_style custom step temp pe vol v_max_n

thermo ${N}  # Print the thermo information every 100 steps
thermo 100  

# Reset the npt fix at a lower temperature (below freezing)
fix 1  all npt temp  ${temp} ${temp}  0.1  iso  5.68  5.68  0.5  mtk yes tchain  5  pchain  5
fix 1  all npt temp  2 ${temp}  0.1  iso  5.68  5.68  0.5  mtk yes tchain  5  pchain  5
fix 1  all npt temp  2 2  0.1  iso  5.68  5.68  0.5  mtk yes tchain  5  pchain  5

dump dmp2 all dcd ${N} traj_${rand}.dcd
dump dmp2 all dcd 100 traj_${rand}.dcd
dump dmp2 all dcd 100 traj_462431.dcd


# fix rnuntil all halt ${N} v_max_n >= 3980 error soft message no   # Stop when solidified


run 100000 # 5000000  # Run for this many steps
Neighbor list info ...
  update every 1 steps, delay 10 steps, check yes
  max neighbors/atom: 2000, page size: 100000
  master list distance cutoff = 3.8
  ghost atom cutoff = 3.8
  binsize = 1.9, bins = 9 9 9
  4 neighbor lists, perpetual/occasional/extra = 1 3 0
  (1) pair lj/cut, perpetual
      attributes: half, newton on
      pair build: half/bin/atomonly/newton
      stencil: half/bin/3d
      bin: standard
  (2) compute orientorder/atom, occasional
      attributes: full, newton on
      pair build: full/bin/atomonly
      stencil: full/bin/3d
      bin: standard
  (3) compute coord/atom, occasional
      attributes: full, newton on
      pair build: full/bin/atomonly
      stencil: full/bin/3d
      bin: standard
  (4) compute cluster/atom, occasional
      attributes: full, newton on
      pair build: full/bin/atomonly
      stencil: full/bin/3d
      bin: standard
Per MPI rank memory allocation (min/avg/max) = 9.360 | 9.363 | 9.366 Mbytes
Step Temp PotEng Volume v_max_n 
    4000    1.9625853   -4.8736737    4899.3661            1 
    4100     2.017367   -4.8389792    4892.3343            2 
    4200    1.9801367   -4.7531559    4918.1929            2 
    4300    1.9647522   -4.7783427    4934.0785            1 
    4400    2.0339936   -4.7992301    4925.3333            1 
    4500    1.9942035   -4.8197072    4924.0362            1 
    4600     2.006739   -4.7960304    4912.9021            1 
    4700     1.994279   -4.8272474    4916.8019            1 
    4800    1.9959627   -4.8083236    4904.6154            1 
    4900    1.9735328    -4.775544    4913.6687            1 
    5000    1.9660651   -4.8184656    4874.3048            1 
    5100    2.0184181   -4.8633658    4929.4868            1 
    5200    1.9996151   -4.7629103    4924.2824            1 
    5300    1.9794626   -4.8276688    4909.9847            2 
    5400    1.9567865   -4.8440083    4874.4148            1 
    5500    1.9836849   -4.7981656    4921.7079            1 
    5600    1.9908366   -4.7773154    4916.2978            1 
    5700    1.9907497   -4.8029645    4914.6628            1 
    5800    2.0156496   -4.7872119     4925.383            1 
    5900    2.0016355   -4.7432548    4956.6882            1 
    6000    2.0329324   -4.8213684    4947.4296       -1e+20 
    6100    2.0230827   -4.8329224    4897.8484            2 
    6200    2.0079656   -4.8466166    4918.2888            1 
    6300    1.9997454   -4.8093479    4924.1705       -1e+20 
    6400    2.0034005   -4.8466997    4882.8116            1 
    6500    2.0331836   -4.8016231    4917.8825            1 
    6600     1.980364    -4.802445    4923.1806            1 
    6700    1.9935354   -4.8424034    4906.6232            1 
    6800    2.0200658   -4.8016087    4903.1119       -1e+20 
    6900    1.9635707   -4.7791522    4925.8273            1 
    7000      1.98816   -4.8306437    4866.5194            2 
    7100    1.9931154   -4.8052141    4914.4845            1 
    7200    2.0134213   -4.8134577    4937.6993            1 
    7300    2.0258444   -4.7739019    4930.9304            1 
    7400    1.9868965   -4.8057963    4941.9669            1 
    7500    1.9565168   -4.7935168     4904.581            1 
    7600     1.998559   -4.7742776    4865.3665            1 
    7700    1.9745258   -4.7795509    4946.0361            1 
    7800     2.001087     -4.81209    4926.1126            1 
    7900    2.0077446   -4.8242075     4871.005       -1e+20 
    8000    2.0132506   -4.7998287    4923.0891            2 
    8100    1.9955275   -4.7797527    4954.4356       -1e+20 
    8200     1.990702   -4.7598662    4934.9758            2 
    8300    2.0007809   -4.7681427    4920.1195            1 
    8400    2.0084125   -4.8331906    4930.4925            1 
    8500    2.0004194    -4.820414     4906.269            1 
    8600    2.0273753   -4.8160072    4948.8771       -1e+20 
    8700    2.0131915   -4.8505608    4913.6288       -1e+20 
    8800    1.9776107   -4.8442856    4893.0489            1 
    8900    2.0023474   -4.8153526    4914.7643            1 
    9000    2.0136036   -4.8169492    4921.4424            2 
    9100    1.9494534   -4.7426988    4932.5469            1 
    9200     2.001465   -4.7739264    4944.8474            1 
    9300    1.9636091   -4.7798025    4889.5599            1 
    9400    2.0295978   -4.8118659    4934.0959            1 
    9500    2.0316255   -4.8110844    4917.6732            1 
    9600    2.0268968   -4.8545202    4911.7009            1 
    9700    1.9546668   -4.8232409    4895.8758            2 
    9800    2.0113278   -4.7924219    4920.9545            1 
    9900    2.0039932   -4.7537839    4915.7988            1 
   10000    1.9466666   -4.8053808      4921.74            1 
   10100    2.0077257   -4.7928077    4921.7701       -1e+20 
   10200    2.0513603   -4.7500995    4925.5431            1 
   10300    1.9480571    -4.691838    4961.5304            1 
   10400    2.0391162   -4.8104571       4928.3            1 
   10500    1.9707714   -4.7738528    4911.2593       -1e+20 
   10600    2.0233508   -4.8594018    4940.3601            1 
   10700    2.0062835    -4.832636    4908.1509            2 
   10800    1.9811789   -4.8090306     4882.846            1 
   10900    1.9666392   -4.7645465    4961.6566            1 
   11000    2.0164334    -4.783716    4929.3417            1 
   11100    1.9822683   -4.7770369    4917.5925            1 
   11200    2.0188891   -4.7893437    4957.0393            1 
   11300    2.0206572   -4.7501843    4922.3941            1 
   11400    1.9843447    -4.814416    4941.4419            1 
   11500    2.0238677   -4.7976012    4943.0717            1 
   11600    1.9965658   -4.7768843    4918.3412            2 
   11700    1.9705579   -4.7960733    4896.1252            1 
   11800    2.0080519   -4.7703968    4942.8278            1 
   11900    2.0174858   -4.7408082    4930.9462            1 
   12000    1.9750542   -4.7656665    4940.2707            1 
   12100    1.9925352   -4.8220572    4885.9594            1 
   12200    2.0050278   -4.8225187      4902.17            2 
   12300    1.9885097   -4.8651581    4916.7829            1 
   12400    2.0201188   -4.8053581    4875.2819            1 
   12500    2.0102328   -4.7949727    4938.2739            1 
   12600    1.9419662   -4.7750569    4938.9145            1 
   12700    2.0353272   -4.7839589    4905.5295       -1e+20 
   12800    1.9625316   -4.7924721    4928.6016            1 
   12900    2.0082121   -4.7965753    4922.8568            1 
   13000    2.0227691   -4.7503328    4939.3736            1 
   13100    1.9746691   -4.7657987    4950.6517            1 
   13200    1.9707441   -4.7517546     4921.478       -1e+20 
   13300    2.0706342   -4.7466582    4913.8609       -1e+20 
   13400    2.0016885    -4.822684    4951.4899       -1e+20 
   13500    2.0028348    -4.805652    4932.2737            2 
   13600    1.9996411   -4.7851472    4898.3326       -1e+20 
   13700    1.9708029   -4.7716338    4941.8122       -1e+20 
   13800    2.0530594     -4.78415    4918.5781       -1e+20 
   13900    1.9788819   -4.7997452    4930.6139            2 
   14000    1.9835905   -4.8263768    4905.8234            1 
   14100    2.0113743   -4.8354949    4890.8556            1 
   14200     1.988171   -4.8170855    4927.4781            1 
   14300    2.0147806   -4.7606593    4925.0782            1 
   14400    1.9362149   -4.7576948    4937.9141            1 
   14500    2.0104768    -4.738234     4933.675            1 
   14600    1.9824836   -4.7532458    4928.6657            1 
   14700    1.9718048   -4.8241818    4894.9473            1 
   14800     2.005275   -4.8278832    4914.1421            1 
   14900    1.9969488   -4.8013949    4912.7325            1 
   15000    1.9535702   -4.8009318    4875.4487            1 
   15100     1.995029   -4.8411194    4926.5804            1 
   15200    1.9944166   -4.7720925    4934.1637       -1e+20 
   15300    2.0064412   -4.7900036    4930.4397            1 
   15400    1.9679133   -4.7480879    4930.0675            1 
   15500    2.0283865    -4.776907    4942.6542            1 
   15600    2.0158609   -4.7941086    4920.2407            1 
   15700     1.978875   -4.8500982    4907.0763            1 
   15800    2.0089374   -4.8116972    4882.7985            1 
   15900    1.9886283   -4.7501158    4956.8308            1 
   16000    2.0072311   -4.8031243    4942.3068       -1e+20 
   16100    1.9894822   -4.7691167    4894.8308            1 
   16200    1.9748775   -4.8410612    4901.0036            2 
   16300    1.9654856   -4.7562115    4930.3705            1 
   16400     2.000326   -4.7495491    4936.0705            2 
   16500    2.0156144   -4.7759263    4924.0339            1 
   16600    1.9940384   -4.7934698    4930.2196            1 
   16700     2.013968   -4.7763462    4947.8525            1 
   16800     1.985634   -4.7738046    4910.1071       -1e+20 
   16900    1.9933866   -4.7680465    4950.1257            1 
   17000     2.001345   -4.7990213    4903.9091            1 
   17100    2.0006785   -4.7830954    4911.3899       -1e+20 
   17200    1.9884221   -4.7635745    4958.4149            1 
   17300    2.0012543   -4.7727737    4911.2885            2 
   17400    2.0506411   -4.8210013    4904.7671            1 
   17500    1.9626078   -4.8649415    4942.3299            1 
   17600    1.9831082   -4.7935256    4899.1878            1 
   17700    2.0288445   -4.7841044    4917.2266            1 
   17800    1.9570513   -4.7762699    4936.0521            1 
   17900    2.0334938   -4.7587425    4927.9525            2 
   18000    1.9975422   -4.7745051    4940.6254            1 
   18100    1.9680416   -4.8075562    4890.5417            1 
   18200    2.0158427   -4.8271046    4907.3003            1 
   18300     2.025691   -4.7487395    4933.5078       -1e+20 
   18400    1.9647274   -4.7525099    4943.8035            1 
   18500    1.9819098   -4.8216987     4908.219            2 
   18600     2.009563   -4.7735962     4935.515            1 
   18700    1.9966153   -4.8221451    4917.2484            1 
   18800    1.9757596   -4.7814282    4910.0712            2 
   18900    2.0157883   -4.7705429    4929.1668            1 
   19000    1.9820988   -4.7686593    4938.9493            1 
   19100    2.0065193   -4.7987569    4918.4563            1 
   19200    1.9709575    -4.784441    4923.6722       -1e+20 
   19300    2.0289002   -4.7921151    4957.3774            1 
   19400    1.9753198   -4.7861186    4922.9976            1 
   19500    2.0116763   -4.7967095    4918.4033            1 
   19600    2.0257871   -4.8187081    4952.4952       -1e+20 
   19700     2.025012   -4.7792714    4962.7312            1 
   19800    1.9985779   -4.7174952    4896.7649            1 
   19900    1.9996185   -4.8739969    4911.5682       -1e+20 
   20000      1.95352    -4.846284    4903.9368            1 
   20100    1.9964301   -4.7820283    4890.2803            1 
   20200    1.9943799   -4.7699793    4952.1525            1 
   20300    2.0433724    -4.799764    4942.2778       -1e+20 
   20400    1.9761959   -4.7459652    4944.7077            1 
   20500    1.9962473    -4.781838      4941.13            1 
   20600    1.9950935   -4.8187996    4910.9711            1 
   20700    1.9923587   -4.8105589    4913.1488            1 
   20800    2.0149395   -4.8227029     4924.501       -1e+20 
   20900    2.0063766   -4.8451083    4914.5242            1 
   21000    2.0043603   -4.7946077     4921.943            1 
   21100    2.0752022   -4.8165457    4945.6097            1 
   21200    1.9900785   -4.7900844    4960.5759            1 
   21300    2.0512014   -4.8343869    4911.6519            1 
   21400    2.0213287   -4.8261758    4936.8717            1 
   21500    1.9832889   -4.7650056    4938.7593            1 
   21600    2.0170388   -4.7999323    4894.4983       -1e+20 
   21700     1.980746   -4.8566441    4920.9382            1 
   21800     2.049346   -4.8539344     4912.346            2 
   21900    1.9942666   -4.7922041    4916.5071            1 
   22000    2.0166496   -4.7980931    4936.2333            1 
   22100    2.0220447    -4.763027    4939.4881            1 
   22200    2.0180544   -4.8254957     4893.563            1 
   22300    1.9632206   -4.8302621    4922.6088            2 
   22400    2.0322898   -4.8192378    4908.3117            1 
   22500    1.9975402   -4.8085697    4923.4317            1 
   22600    2.0499721   -4.8003185    4943.9751       -1e+20 
   22700    2.0101826   -4.7740152    4928.7329            1 
   22800    1.9578927   -4.8210838    4934.4079            1 
   22900    2.0382063   -4.8050018    4889.4067            1 
   23000    1.9591141   -4.7871373    4899.1123            1 
   23100    1.9904727    -4.824511    4918.5129            2 
   23200    2.0143682   -4.7710455    4947.2795            1 
   23300    2.0177686   -4.7916945    4913.7592            1 
   23400     1.968734   -4.7825057    4916.7804            1 
   23500    1.9976569   -4.7683149    4937.1799            1 
   23600    2.0218618    -4.751875    4947.2046       -1e+20 
   23700    2.0042674   -4.7997611    4934.3344            1 
   23800    1.9954608    -4.835393    4909.1882            2 
   23900    2.0030836   -4.7924377    4875.9747       -1e+20 
   24000    1.9854177   -4.8022631    4919.9924            1 
   24100    2.0301263   -4.8231017      4919.41            1 
   24200    1.9776493   -4.8008635    4915.4165            1 
   24300    2.0383252   -4.7848077    4928.3169            1 
   24400    1.9819832   -4.7847077    4921.9918            1 
   24500    1.9518866   -4.8360598     4917.643            1 
   24600    2.0314173   -4.8011468    4881.7187            1 
   24700    1.9637044   -4.7899886    4915.4512            2 
   24800    2.0101146   -4.7948036    4958.8037            1 
   24900    2.0613827   -4.7343401    4931.2597            1 
   25000    2.0025243    -4.786755    4926.3456            1 
   25100    1.9516966   -4.8074605     4927.625            1 
   25200     2.051451   -4.8120803     4898.642       -1e+20 
   25300     1.988114   -4.8163809    4922.4918       -1e+20 
   25400    2.0084779   -4.7939991    4930.1846            3 
   25500     2.002756   -4.8034275    4891.5622            1 
   25600    1.9829568   -4.8099725    4931.9102            1 
   25700    2.0153663   -4.7816058     4925.707            2 
   25800    2.0005464   -4.8288498    4887.6849       -1e+20 
   25900    1.9949775   -4.8211346    4896.4609            1 
   26000    2.0164625   -4.8187306     4928.005            1 
   26100     1.979814   -4.8343427    4885.0001            1 
   26200    2.0236279   -4.8061469    4916.5191            1 
   26300    2.0011525   -4.7717626    4939.9364            1 
   26400     1.972137    -4.803565    4916.4458       -1e+20 
   26500    1.9804699   -4.8310984    4886.6099            1 
   26600    2.0024556   -4.7876708    4929.7547            2 
   26700    1.9979004   -4.7832602    4959.0565            1 
   26800     2.042072   -4.7438567    4933.8012            1 
   26900    2.0137197   -4.7772576    4924.1844            2 
   27000    1.9616432   -4.7917579      4947.06       -1e+20 
   27100    2.0440824   -4.8370624    4892.1777       -1e+20 
   27200    1.9562342   -4.8221901    4908.3793            1 
   27300    2.0008418   -4.8098809    4913.6965            1 
   27400    2.0659643   -4.8230845    4895.6245            1 
   27500    1.9757923   -4.8500241    4941.1686       -1e+20 
   27600    1.9641346   -4.7497527    4897.6478            1 
   27700    2.0497737   -4.8291339    4900.9128            3 
   27800    1.9579572   -4.7909784    4944.8771       -1e+20 
   27900    2.0209691   -4.8086916    4903.4604            1 
   28000    1.9711472   -4.8000657    4898.1838            1 
   28100     2.003673   -4.8060855    4919.2477            1 
   28200     2.020952   -4.7658577    4932.6275            4 
   28300    2.0139523   -4.7831383    4946.3019       -1e+20 
   28400    1.9909503    -4.836221    4918.5492            1 
   28500     1.999068   -4.8368536    4879.1823            1 
   28600    2.0005885   -4.8258739    4910.2492            2 
   28700    1.9813211   -4.7924925    4941.2514            1 
   28800    2.0774004   -4.7836254    4929.4898            2 
   28900    1.9790879    -4.752883    4946.7252       -1e+20 
   29000    2.0327873   -4.7802396    4942.8235       -1e+20 
   29100    2.0243904   -4.8337112    4940.4865            1 
   29200    1.9697103   -4.8288153     4900.251            1 
   29300    1.9911974   -4.7910594    4912.9181            1 
   29400    1.9936403   -4.7821684    4919.2218            1 
   29500    2.0108922   -4.7490437     4917.747            1 
   29600    1.9831112   -4.8100624    4894.3374            1 
   29700    1.9661498   -4.8066521    4918.8264            1 
   29800    2.0315672   -4.7991429    4925.1735       -1e+20 
   29900    1.9739467   -4.7864222    4916.6068            1 
   30000    1.9878625   -4.7886932     4909.118            1 
   30100    2.0060484   -4.7996572    4932.4417            1 
   30200    1.9755585   -4.7781964    4937.2777            1 
   30300    2.0672357   -4.7950815    4899.5046            2 
   30400    1.9852172   -4.8488611    4915.0899            1 
   30500    2.0178373    -4.840047    4923.9671            1 
   30600      2.03933   -4.7604972    4922.7471            1 
   30700    1.9630994   -4.7586861    4940.7452       -1e+20 
   30800    2.0013703   -4.7777079    4931.7879            1 
   30900     2.014001   -4.7813906    4903.9742            1 
   31000     1.980244   -4.8192106    4948.0248            1 
   31100    2.0132498   -4.7735249    4937.0155            1 
   31200    2.0076866   -4.7909554    4919.5014       -1e+20 
   31300    1.9954645   -4.8387029    4910.4315            2 
   31400    2.0117905   -4.7956308     4921.349            1 
   31500    1.9933263   -4.8008382    4947.2817            1 
   31600    2.0392936   -4.7696218    4920.3491            1 
   31700    1.9794218   -4.7991795    4937.8725            1 
   31800    1.9996963   -4.8633181    4907.2267            2 
   31900    2.0321094   -4.8319159    4890.5878            1 
   32000     1.964297   -4.7816273     4958.938            2 
   32100     2.038573   -4.7824829    4934.8472            1 
   32200    1.9702914   -4.7604244    4927.8107            2 
   32300    1.9944767   -4.6956562     4944.834            1 
   32400    2.0368576   -4.7927056    4938.4765       -1e+20 
   32500    2.0002179   -4.8240872    4933.2912            1 
   32600    1.9933368   -4.8276698    4898.2659            1 
   32700    1.9762475   -4.8080143    4880.8777            1 
   32800    1.9809313   -4.7950528    4931.0215            1 
   32900    2.0103821   -4.8190532    4915.4522            1 
   33000    1.9510832   -4.8268828    4879.0494            1 
   33100    1.9761171   -4.7847929    4927.8872            1 
   33200    2.0327434   -4.7879108    4896.9456            1 
   33300    1.9267761   -4.7557725    4912.4737            1 
   33400    2.0263161   -4.8214807    4933.8811            1 
   33500    2.0140937   -4.8101539    4927.5009            1 
   33600    1.9881617   -4.7790023    4922.9175            2 
   33700    2.0013072    -4.726978    4959.0365       -1e+20 
   33800    2.0330623   -4.7776381    4913.8754            1 
   33900    2.0012871   -4.8244648    4940.2494            2 
   34000    2.0082829   -4.7971032    4913.9873            1 
   34100    1.9872434   -4.7628949    4919.2468            1 
   34200    2.0071435   -4.7981302    4949.5759            2 
   34300    1.9612071   -4.7844283    4929.5884            1 
   34400    2.0386569   -4.8273947    4862.9485            1 
   34500    1.9719134    -4.871437    4893.9523            4 
   34600    1.9885913   -4.8678464    4911.7255            1 
   34700    1.9983472   -4.7718494    4927.5575            1 
   34800    1.9962464   -4.7897376     4943.978            1 
   34900    2.0141926   -4.8086332    4913.0536            1 
   35000    1.9747846   -4.8204257    4915.8309            1 
   35100    2.0120143   -4.8236223    4930.1195       -1e+20 
   35200    2.0265784   -4.7862688    4942.2557            2 
   35300     1.977716   -4.7670458    4906.8265            1 
   35400    1.9580954   -4.7899289    4914.1762            1 
   35500    2.0304246   -4.7963081    4919.8069            1 
   35600    1.9703973   -4.7724695     4918.179       -1e+20 
   35700    1.9815742   -4.7219506    4944.7071            1 
   35800    2.0406759   -4.7733767    4941.5281            1 
   35900    1.9864168   -4.7972249     4892.592            1 
   36000    1.9901738    -4.789207    4938.4331            1 
   36100    2.0095246   -4.7899496     4942.154            1 
   36200    1.9750018   -4.7910916    4911.2729            1 
   36300    1.9785888   -4.8383763    4899.2635            1 
   36400    1.9947869    -4.801094    4919.2821            1 
   36500    2.0055627     -4.79605    4928.0147            1 
   36600    2.0566454   -4.8142706    4929.5719            1 
   36700    1.9648641     -4.80766     4942.731            1 
   36800     2.043634   -4.7943401     4913.596            1 
   36900    1.9812156   -4.8010836    4917.3682       -1e+20 
   37000    2.0139098   -4.8174954    4917.5008            1 
   37100     1.990423   -4.8196765    4901.2503            1 
   37200    1.9742096   -4.8654665    4879.0836            1 
   37300    2.0072657   -4.8116892    4926.1571            2 
   37400    2.0036143   -4.8155574    4913.0929            2 
   37500    1.9813719   -4.8351666    4869.7648            1 
   37600    2.0062102   -4.8228962    4921.3607            2 
   37700    1.9930698   -4.7619973    4939.6926            3 
   37800    1.9753075   -4.8106522    4914.0695            2 
   37900    2.0611325   -4.8360835    4911.4117            1 
   38000    1.9950787   -4.7942337    4946.6035            1 
   38100    1.9686306   -4.8254982    4904.2048            1 
   38200    1.9886305   -4.7605434    4918.6639            1 
   38300     1.991679   -4.7850767    4925.3578            1 
   38400     1.965785   -4.8145786    4884.4429            1 
   38500    2.0012454   -4.8066472    4908.3443       -1e+20 
   38600    1.9596296   -4.7653427    4949.5731            1 
   38700    2.0122173    -4.779764    4906.7808            1 
   38800    2.0317213   -4.7450303     4934.145       -1e+20 
   38900    1.9856121   -4.7622357    4958.9326            1 
   39000    2.0092812   -4.7792026    4921.6135            1 
   39100    1.9951615   -4.8186546     4880.649            1 
   39200    2.0279781   -4.8184672    4920.5759            1 
   39300    2.0147552   -4.8121392    4951.2168       -1e+20 
   39400    2.0010659    -4.822348    4906.9937            2 
   39500     1.979405   -4.7915078    4903.3583            1 
   39600    2.0210621   -4.7831242    4934.9573            2 
   39700    2.0202571    -4.803597    4929.3124            1 
   39800    2.0179072   -4.8359133    4912.9413            1 
   39900    1.9859144    -4.823961     4916.836            1 
   40000    2.0300794   -4.8301818    4905.1478            1 
   40100    1.9865161   -4.8091507    4908.6192       -1e+20 
   40200    1.9885204   -4.8308539    4903.5399       -1e+20 
   40300    2.0223792   -4.8232605    4929.3162            2 
   40400    1.9954733   -4.8354912    4890.3422            1 
   40500    1.9929218   -4.8234497    4900.3778            1 
   40600    2.0256175   -4.8277427    4920.8041            1 
   40700    1.9865816   -4.7889916    4929.2915            2 
   40800    2.0199264   -4.7986817    4887.8798            1 
   40900    2.0061028   -4.7593965    4985.8656            1 
   41000     2.009216   -4.7795619    4921.5304       -1e+20 
   41100    2.0125234   -4.8240447    4901.6118       -1e+20 
   41200    1.9375482   -4.8210158    4924.8845       -1e+20 
   41300    2.0325183   -4.8220211    4912.2057            1 
   41400    2.0322084   -4.8690394    4903.2815            1 
   41500     1.959619   -4.8539219    4880.1776            2 
   41600    2.0069949   -4.8296447    4913.9595            1 
   41700    2.0072984     -4.77651     4933.523            1 
   41800    1.9747476   -4.8123471    4933.2165            1 
   41900    2.0037142   -4.7919638    4897.6061            1 
   42000    2.0345688   -4.8434222    4925.9181            1 
   42100    1.9653598    -4.795543     4909.944            1 
   42200    2.0066475   -4.7850984     4933.375            1 
   42300    2.0586011   -4.7922407    4946.0179            1 
   42400     1.970778   -4.7903447     4953.195            1 
   42500    1.9823475   -4.7967036    4915.8384            1 
   42600     1.993138   -4.7863018    4909.7672            1 
   42700    1.9631412   -4.8075332    4918.4139            1 
   42800    2.0304863   -4.7928938    4891.9715            1 
   42900    1.9577004   -4.7805437     4934.535            1 
   43000    2.0104523    -4.762994     4928.143            1 
   43100    1.9825407   -4.7645224    4947.5027            1 
   43200    2.0331135   -4.7220516    4931.1553            1 
   43300     1.981001   -4.7676339    4931.1032            1 
   43400    1.9879965   -4.8103454    4933.9699            1 
   43500    2.0545171   -4.7961904    4878.5714            1 
   43600    1.9845153   -4.8534508    4913.0277            1 
   43700    2.0101648   -4.8381571    4915.0336            2 
   43800    2.0168583    -4.726884    4927.5005            1 
   43900    1.9568884    -4.720947    4958.9673            1 
   44000    2.0374491   -4.7958478    4924.8375            1 
   44100    2.0021953   -4.8195105    4921.4514            2 
   44200    1.9804313   -4.8188169    4904.4715            1 
   44300    2.0110297    -4.793023    4919.7829            1 
   44400    2.0141826   -4.8007092    4943.6586            1 
   44500    2.0130028   -4.8643841    4917.8884            1 
   44600    1.9823685   -4.8331479    4873.1196            2 
   44700    2.0131873   -4.8200938    4932.2088            1 
   44800     1.997797   -4.8153044    4923.9202       -1e+20 
   44900    1.9300849    -4.781929     4873.288            1 
   45000    1.9939071   -4.8049944    4933.9644            1 
   45100    1.9973804   -4.8236944    4907.9075            1 
   45200    1.9845962   -4.8032674    4896.7431            1 
   45300     1.994435   -4.7577428    4933.7237            3 
   45400    1.9786814   -4.7502865    4944.2608            1 
   45500    1.9726918   -4.8192633    4894.0176            1 
   45600    2.0191172   -4.8095131    4926.6489            2 
   45700     2.017151   -4.7856863    4927.0551            1 
   45800    2.0140954   -4.8373466    4924.1402       -1e+20 
   45900    2.0061254   -4.8129814    4903.0724       -1e+20 
   46000    2.0151966   -4.7798644    4916.0725       -1e+20 
   46100    1.9958523   -4.8324718    4941.9672            1 
   46200    2.0068828    -4.808143    4896.7416            1 
   46300     1.987138     -4.77066    4898.6764       -1e+20 
   46400    2.0168197   -4.7836584    4942.8521            1 
   46500    1.9749393   -4.7827486    4917.5581            1 
   46600    1.9517901   -4.8321175    4896.0108            1 
   46700    2.0022406   -4.7833788    4925.7514            1 
   46800    2.0380278   -4.7820335    4926.2521            1 
   46900    1.9550396   -4.7982047    4941.3191       -1e+20 
   47000    2.0088253    -4.785094    4898.3387            2 
   47100    1.9874428   -4.7903778      4919.63            1 
   47200    1.9914558    -4.828574     4933.335       -1e+20 
   47300    2.0097272   -4.7670112    4885.4674            4 
   47400    1.9887003   -4.7907406    4940.0658            2 
   47500    2.0169191    -4.810211    4938.2057            1 
   47600     2.014093   -4.7793462    4931.9943            1 
   47700    1.9828101   -4.8211304    4912.2965            1 
   47800    1.9801692   -4.7940625    4915.8102            1 
   47900    2.0211347   -4.7831808    4935.8105            1 
   48000    1.9873339   -4.7934561    4924.2093            1 
   48100    2.0072762   -4.8008372    4905.5833            1 
   48200    2.0520637   -4.7997091    4949.4536            1 
   48300     1.978076   -4.7682603    4956.1928       -1e+20 
   48400    2.0221074   -4.7921852    4898.1039            1 
   48500    2.0164838   -4.8710266    4884.8416            1 
   48600    2.0108634   -4.8330641    4925.6125            1 
   48700    1.9876014   -4.7659789    4939.9273            1 
   48800    1.9675923   -4.7814893    4919.7877            1 
   48900    1.9861535   -4.8200769    4890.6719            1 
   49000    1.9803293   -4.8665852    4904.2917       -1e+20 
   49100    2.0356277   -4.8241143    4884.3264            1 
   49200     1.985597   -4.7911093    4947.9838            1 
   49300    2.0054862   -4.7960343     4929.755            1 
   49400    2.0492486   -4.8135434    4923.5393            1 
   49500    1.9593343   -4.8082564    4929.3322            1 
   49600     2.002776   -4.7693378    4899.7493            1 
   49700    2.0144263    -4.824377     4905.231            1 
   49800    1.9685413   -4.8071545    4941.4204            1 
   49900     1.985289   -4.7290952    4928.7322            1 
   50000    2.0004971   -4.8153602    4920.0443            1 
   50100    2.0061869   -4.8543966    4909.6927       -1e+20 
   50200    2.0120269   -4.8063697    4890.5004            1 
   50300    1.9814361   -4.7557773    4959.3401            1 
   50400     2.008216   -4.7340893    4962.8498            1 
   50500    2.0437957   -4.8023177    4944.4943            1 
   50600    1.9954704   -4.8207573    4895.8332            1 
   50700    1.9666608    -4.773341    4917.3343            1 
   50800    1.9919288   -4.7705062    4934.8772            1 
   50900    2.0267471   -4.7670212    4916.8138            1 
   51000    1.9977596   -4.8430064     4906.881            1 
   51100    1.9799607   -4.8221575    4918.0774            1 
   51200    2.0227971   -4.7702591    4937.4504            1 
   51300    1.9963837   -4.7453852     4921.083            1 
   51400    1.9865266   -4.8483951    4910.8338            1 
   51500    2.0072474   -4.8605119    4906.3425            1 
   51600    1.9991058   -4.8120444    4915.8692            1 
   51700    1.9989143   -4.8012862    4907.0264            1 
   51800    1.9799095   -4.7703635    4922.7225       -1e+20 
   51900    2.0221205   -4.8194274    4940.8745       -1e+20 
   52000    1.9908273     -4.82484    4906.1361            1 
   52100    2.0151999   -4.7816016    4915.9707            2 
   52200    1.9776333   -4.8007394    4937.3142            1 
   52300    2.0271342   -4.7646644    4941.4284            1 
   52400    1.9722123   -4.7750114    4948.9204       -1e+20 
   52500    2.0430061    -4.744645    4909.8229            1 
   52600    1.9426917   -4.7468011    4917.2127            2 
   52700     2.006968   -4.7844641    4921.6417            1 
   52800    1.9727845   -4.8032355    4909.3704            1 
   52900     1.958979   -4.8550879    4884.9159            1 
   53000    2.0432615   -4.8540132    4885.5643            1 
   53100    1.9857427   -4.8366239    4927.7905       -1e+20 
   53200    1.9887363   -4.7776879    4922.5542            2 
   53300    2.0358853   -4.7947698    4912.8973            1 
   53400    1.9554952    -4.811973    4926.8399            1 
   53500     2.017479   -4.8197617     4902.695            1 
   53600    1.9768902    -4.806454    4905.0003       -1e+20 
   53700    1.9896998   -4.8277976    4950.9965            1 
   53800    2.0153054   -4.7909942    4897.1496            1 
   53900    2.0007249   -4.8402094    4895.5507            2 
   54000    2.0392864   -4.8536649    4936.3482            1 
   54100    1.9618321   -4.8231069    4917.5133            1 
   54200     2.010217   -4.8388163    4879.9886       -1e+20 
   54300    1.9874112   -4.8283244    4917.0421            1 
   54400    1.9874115   -4.7913809      4905.62            1 
   54500    2.0430672   -4.8090626    4937.9691            2 
   54600    1.9718812   -4.7762091    4925.0786            1 
   54700    2.0110567    -4.770865    4906.1904            1 
   54800    1.9538994   -4.7984425    4905.2807            2 
   54900    1.9881658   -4.8293251     4916.511            1 
   55000      2.01114   -4.7635602    4930.6548            1 
   55100    2.0134323   -4.7558978    4970.9218            1 
   55200    2.0055428   -4.7254446     4938.125            1 
   55300    1.9996227   -4.7564459    4949.8138       -1e+20 
   55400    1.9901846    -4.789601    4945.9919            1 
   55500    2.0100653   -4.8095162    4895.3481            1 
   55600    1.9607434   -4.8461823    4894.5836            1 
   55700    1.9739944    -4.784934    4947.7257            2 
   55800    2.0058367   -4.7065095    4923.5521            1 
   55900    1.9722275   -4.7542878    4939.8041            1 
   56000    1.9714586   -4.8181226    4903.6437            1 
   56100    2.0198419    -4.835236    4886.1162            1 
   56200    1.9707267    -4.806757     4935.722            1 
   56300    2.0282305   -4.7710229    4897.9775            1 
   56400    1.9746156   -4.7923599    4944.9064            2 
   56500    2.0051557   -4.7950002    4917.9284            1 
   56600     2.016296   -4.8332204    4906.7871       -1e+20 
   56700    1.9641409   -4.7932187    4924.1441            1 
   56800    2.0568356   -4.8028301    4901.1323            1 
   56900    1.9635573   -4.7776809    4942.1103            1 
   57000    2.0265289    -4.791166    4935.4121       -1e+20 
   57100    1.9424338   -4.7839467    4921.2386            1 
   57200    1.9819434    -4.800506     4903.661            2 
   57300    2.0146863   -4.7889842    4918.2869            1 
   57400    1.9914424   -4.8279289    4901.2083            2 
   57500    1.9901486   -4.8266357    4884.8963            1 
   57600    1.9913597   -4.8159556    4927.7373       -1e+20 
   57700    1.9784898   -4.7780467    4928.6721            3 
   57800    2.0498837   -4.7971733     4932.697            1 
   57900    1.9989286   -4.8015253    4916.5087            1 
   58000    1.9696814   -4.7785071    4932.8893            3 
   58100    2.0590182   -4.7965698    4933.3084            1 
   58200    2.0226254   -4.8203367    4917.5908            1 
   58300    1.9754398   -4.7890424    4928.3358            1 
   58400     2.031957   -4.8149026    4918.5105            1 
   58500    1.9977059   -4.7919199    4909.2575       -1e+20 
   58600    1.9848196   -4.7759451    4942.8916            1 
   58700    2.0296374   -4.7620263    4908.1581            2 
   58800    1.9883257    -4.795664    4904.4468            1 
   58900    1.9940359   -4.8209814     4950.326            1 
   59000    2.0371966   -4.7744119    4931.2885            1 
   59100    1.9733416   -4.7300689    4901.4853            1 
   59200    1.9670997   -4.7966019    4924.1316            1 
   59300    1.9907263   -4.7797906    4927.9622            1 
   59400    2.0498336   -4.7898964     4923.332            1 
   59500    1.9531976   -4.8025812    4944.1291            1 
   59600    2.0435703   -4.8304933    4920.4839            1 
   59700    1.9822311   -4.8504604    4873.6562            2 
   59800    1.9471248    -4.850214    4896.6424            1 
   59900    1.9897926   -4.7859085    4903.8823            2 
   60000     2.023781   -4.8006606    4929.7536            1 
   60100    1.9955845   -4.7782661    4945.0955            1 
   60200    2.0199336   -4.8182626    4919.1715            2 
   60300    1.9936717   -4.7794262    4936.6877            1 
   60400    1.9623846   -4.7913309    4926.0908            2 
   60500    2.0414689   -4.7838784    4890.1603            2 
   60600    1.9410208   -4.7664257    4947.8997            1 
   60700    2.0359844   -4.8013834    4929.0784            1 
   60800    1.9933021   -4.7577449    4924.7455            1 
   60900    1.9752246   -4.7774191    4922.7603            1 
   61000    2.0018743   -4.8102531    4884.5309            1 
   61100    1.9770187   -4.8930257    4898.7741            1 
   61200    2.0222162   -4.8740793    4908.8694            1 
   61300    2.0188306   -4.8905864    4876.4993            1 
   61400    1.9621255   -4.8228062    4891.1623            1 
   61500    1.9979714    -4.847432    4907.8332       -1e+20 
   61600    2.0164368   -4.7688794    4917.2181            1 
   61700    2.0128231   -4.7883813    4921.2218            2 
   61800    1.9961016   -4.8484947    4921.3569            1 
   61900    2.0570196   -4.8148325    4903.7243            2 
   62000    1.9986705    -4.802975    4956.1849            1 
   62100    1.9718878    -4.818669    4905.6703            1 
   62200    1.9902162   -4.7946403    4900.2996            1 
   62300    1.9993159   -4.7888097    4938.0066            1 
   62400    1.9960776   -4.7931634    4915.1417            1 
   62500    2.0130532   -4.8354306    4911.3643            1 
   62600    2.0036507   -4.8073517    4930.2132            1 
   62700    2.0436467   -4.7950754    4931.8157            1 
   62800    2.0391088   -4.8468459    4897.1534            1 
   62900    1.9573658   -4.8166051    4943.9813            1 
   63000    2.0035832   -4.7631978    4908.2062            1 
   63100    2.0059003   -4.7352014    4935.1676            1 
   63200     1.996495   -4.7729448    4948.5237            1 
   63300    1.9947274   -4.8152106    4920.4454            1 
   63400    2.0272271    -4.803961    4895.8376            1 
   63500    1.9760863   -4.8394054    4901.6731            1 
   63600    1.9996661   -4.7981345    4924.8086            1 
   63700    2.0441221   -4.7881754    4936.7584            1 
   63800    2.0033557   -4.8175603    4937.5148            1 
   63900    2.0132648   -4.8366734    4899.7357            2 
   64000    1.9679414   -4.8308958     4891.831            1 
   64100    2.0092044   -4.8294129    4919.5434            1 
   64200     1.998049   -4.7884325    4924.3849            1 
   64300    2.0140279   -4.8158044    4909.3026       -1e+20 
   64400    1.9964925   -4.7735302     4950.484            3 
   64500    2.0011014   -4.7563213    4963.7165       -1e+20 
   64600    1.9865694   -4.7916888    4899.6979            1 
   64700      1.99746   -4.8118921    4920.0922            1 
   64800     2.001856   -4.7935313    4941.5106            1 
   64900    2.0217168   -4.7724001    4932.8386            1 
   65000    1.9584319   -4.8020875     4911.749            2 
   65100    1.9932696   -4.8337375     4917.754            1 
   65200    2.0503436   -4.7947159    4909.9205            1 
   65300    2.0036269   -4.8092559    4953.3735            1 
   65400    1.9954604   -4.8062939    4933.0867            1 
   65500     2.009961   -4.7965668    4888.8494            1 
   65600    1.9895724   -4.8063723    4931.2907            1 
   65700    1.9955925   -4.7753462    4947.3228            1 
   65800    2.0651362    -4.779582     4928.998            2 
   65900    1.9956495   -4.7875172    4933.8616            1 
   66000    1.9741595   -4.7787465    4899.7132            1 
   66100    1.9342996   -4.8214616    4886.2526            1 
   66200    1.9947095   -4.8235484    4915.4243       -1e+20 
   66300    1.9876972   -4.7823684     4884.192            2 
   66400    1.9659645   -4.8112052    4897.7627            1 
   66500    1.9750991     -4.77694    4948.7058       -1e+20 
   66600    2.0500603   -4.7838889    4935.7692       -1e+20 
   66700    1.9872602   -4.8043043    4922.2729       -1e+20 
   66800    2.0016073   -4.7961163    4935.0367            1 
   66900     2.050741   -4.7818159    4948.4813            1 
   67000    1.9828228   -4.7546727    4915.2231            1 
   67100    1.9795616   -4.8165982     4919.553            1 
   67200    2.0215475   -4.7726069    4922.1326            1 
   67300    2.0052988   -4.7984713    4935.2248            1 
   67400    1.9674918   -4.8196852    4895.2886            1 
   67500    1.9914798   -4.7670929    4908.8746            1 
   67600    2.0124974   -4.7732591    4976.4673            1 
   67700    2.0038574   -4.7915894    4928.9938       -1e+20 
   67800    2.0245163   -4.8059964    4921.2581            1 
   67900    1.9830534   -4.8213109    4913.1374            1 
   68000    1.9937663   -4.8109957    4904.6828            1 
   68100    2.0094273   -4.7753459    4939.5545            1 
   68200    1.9850125   -4.7805219    4915.2639            1 
   68300    1.9768991   -4.7699655    4927.5456       -1e+20 
   68400    1.9693038    -4.772786    4908.8816            1 
   68500    2.0426974   -4.8280926    4909.1974            1 
   68600    2.0079157   -4.8292908    4963.0637            1 
   68700    2.0007968   -4.8026115     4927.074            2 
   68800    2.0076734   -4.7959693    4885.6262            1 
   68900    1.9927827   -4.7819645    4932.7834            1 
   69000    2.0122251   -4.7737818    4946.7807            1 
   69100    1.9747829   -4.7573293     4900.481            1 
   69200    2.0506477   -4.8425953    4923.5898            1 
   69300    1.9684606    -4.849178    4933.0083            1 
   69400    2.0045823   -4.8193897     4900.374            1 
   69500    2.0095159   -4.7600621    4919.6872            1 
   69600    1.9979493   -4.7773346    4959.5206            1 
   69700    2.0047624   -4.7626957    4910.4792       -1e+20 
   69800    1.9954837   -4.7925757    4918.7599            1 
   69900    1.9224132   -4.7753604    4928.2616            1 
   70000    2.0291043   -4.7820287    4903.4109            1 
   70100    1.9936356   -4.7902244    4900.0714            1 
   70200    1.9765794   -4.8397838    4910.2058            1 
   70300    1.9729878   -4.8121819    4878.1693            4 
   70400    2.0190962   -4.8238726    4915.5711            1 
   70500    2.0027053   -4.8005743    4914.8624            1 
   70600    1.9837823   -4.8333899    4925.9856            1 
   70700    2.0273255   -4.8106835     4907.845       -1e+20 
   70800    1.9847465   -4.8202181    4907.8749            1 
   70900    1.9988777   -4.7878796    4906.3895            1 
   71000    2.0614342   -4.8156341    4931.9287            1 
   71100    2.0070718   -4.8383106    4929.7858       -1e+20 
   71200    2.0050259   -4.8491485    4880.8587            1 
   71300    1.9772417   -4.8321784     4872.174            1 
   71400    1.9779552    -4.834631    4922.8178            1 
   71500    2.0195035    -4.805744    4918.9692            1 
   71600     1.984952    -4.810358    4937.1282            1 
   71700    2.0416544   -4.7888788    4929.3713       -1e+20 
   71800     2.012911   -4.8106019    4909.0886            1 
   71900    1.9695637   -4.8567976    4906.9857            1 
   72000    1.9920256    -4.813197    4892.4567            1 
   72100    2.0116193   -4.8003751    4930.8874            1 
   72200    2.0128418   -4.7996101    4971.5049            1 
   72300    2.0025052    -4.788015    4903.8854            1 
   72400    1.9798913   -4.8064641    4900.5418            1 
   72500    2.0253837   -4.7754592    4918.9019            1 
   72600    2.0287214    -4.760884    4956.1677       -1e+20 
   72700    2.0080175   -4.8323891    4896.8667            1 
   72800    2.0122036     -4.80181    4931.2602            1 
   72900    1.9804697      -4.7696    4930.0588            2 
   73000    2.0648426   -4.8400609    4902.9636            1 
   73100    1.9499957   -4.7969484    4926.0545            1 
   73200    2.0071562   -4.8167606     4930.673            1 
   73300    2.0072322   -4.7957183    4911.5497            1 
   73400    2.0319288    -4.808132    4939.3801            1 
   73500    1.9761027   -4.7887324    4939.6235       -1e+20 
   73600    1.9940101   -4.7625948    4924.4419            1 
   73700    1.9830089   -4.7754442    4926.9571            1 
   73800     1.959253    -4.838707    4891.6173            1 
   73900    1.9862187   -4.8451416    4884.4177       -1e+20 
   74000    1.9769599    -4.774262    4926.8383            1 
   74100    2.0158823   -4.8095388    4910.4174            2 
   74200    2.0154084   -4.8475388    4894.4904            1 
   74300     1.977048   -4.8400128    4940.3681       -1e+20 
   74400     2.030884   -4.7948324    4917.4379            1 
   74500    1.9765481   -4.7774098    4904.9395       -1e+20 
   74600    2.0434401   -4.7874038    4931.8436            1 
   74700    2.0032292   -4.7967274    4960.3494       -1e+20 
   74800    2.0232063   -4.8702478    4893.5056            1 
   74900    1.9875083   -4.8294765    4911.4179            3 
   75000    2.0109557   -4.7700643    4909.2392            1 
   75100    1.9624814   -4.7771653    4921.0181            1 
   75200    2.0387363    -4.815642    4946.1618            2 
   75300     1.983923     -4.74716    4944.6653            1 
   75400    1.9966917   -4.8294709    4889.9166       -1e+20 
   75500     2.035428   -4.8499813    4911.2354            1 
   75600     1.964124   -4.7770195    4953.7967            1 
   75700    2.0376993   -4.7772984    4915.1136            1 
   75800    1.9579955   -4.7868929    4935.3844       -1e+20 
   75900    2.0194261   -4.7697948    4913.5337            1 
   76000    2.0013814   -4.7993436    4892.9524            1 
   76100    1.9811017   -4.8532055    4912.2795       -1e+20 
   76200     1.995946   -4.7875309    4916.6342            1 
   76300    2.0139784   -4.7963447    4923.2762            1 
   76400    1.9385018   -4.7836353    4919.3589            2 
   76500    2.0558296   -4.8227599    4918.6134       -1e+20 
   76600    1.9835698   -4.7692178    4932.3544            2 
   76700    1.9887173   -4.7997723    4933.6656            1 
   76800    2.0100995   -4.7750523    4921.9262       -1e+20 
   76900    1.9898677    -4.745484    4953.8219            1 
   77000    2.0591772   -4.7979758    4928.8467            1 
   77100    2.0030648   -4.8147387    4927.8382            1 
   77200    2.0342017   -4.7765165    4932.3311            1 
   77300    1.9805713   -4.8153416     4919.662            1 
   77400    1.9927136   -4.8320585    4908.4017            1 
   77500     2.060165   -4.8222264     4915.684       -1e+20 
   77600    2.0067657   -4.8565742    4904.7722            2 
   77700    1.9786663   -4.8403695    4907.7395            1 
   77800    2.0379807   -4.8211612     4907.538            2 
   77900    1.9570463   -4.7842262    4944.8955            1 
   78000    2.0247177    -4.783596    4924.1171            1 
   78100    1.9859993   -4.7781138    4922.4242            1 
   78200    1.9984129   -4.7800024     4949.129            1 
   78300    2.0314997   -4.7604199    4927.4856            1 
   78400    2.0429063   -4.8606869    4909.9871            1 
   78500    1.9562231   -4.8482562    4920.3822            1 
   78600     2.024374   -4.7969269    4884.1126            1 
   78700    1.9990869   -4.7685029    4942.3425            1 
   78800    2.0225858   -4.8068031    4951.1647       -1e+20 
   78900    1.9980522   -4.7703243    4917.7926            1 
   79000    1.9768256   -4.8096958    4911.8889            1 
   79100     2.032578   -4.7983368    4928.8053            2 
   79200    1.9612388    -4.757198    4931.8222       -1e+20 
   79300    2.0218346   -4.8024839    4913.7317            2 
   79400    1.9486501   -4.7990363    4937.7188            3 
   79500    2.0481596   -4.8031077    4915.7668            1 
   79600    2.0085571   -4.8102308    4919.1161       -1e+20 
   79700    1.9667602   -4.7672872    4921.9406            1 
   79800    2.0417885   -4.7998671     4946.325            2 
   79900    1.9821944   -4.7754953    4902.8661            1 
   80000    1.9619254    -4.782361    4923.3461            1 
   80100    2.0235988   -4.7799482     4922.955            1 
   80200      1.99727   -4.8227582    4915.4802            1 
   80300    1.9980802   -4.8026608     4936.052            1 
   80400    2.0192767   -4.7778959    4922.4516       -1e+20 
   80500    1.9895353   -4.8124313    4901.6923            1 
   80600    2.0404405   -4.8203349    4942.6255            1 
   80700    2.0014928   -4.7641728    4921.7633            1 
   80800    1.9787801   -4.7991737    4914.4668            1 
   80900    2.0210949   -4.7770434    4942.9782            1 
   81000    2.0172536   -4.7603692    4929.8709            1 
   81100    1.9819507    -4.787597    4951.1793            1 
   81200    2.0461328   -4.7659919    4925.2972            1 
   81300     1.977513   -4.7772194    4932.6064            1 
   81400     1.987091   -4.7949305    4928.9795       -1e+20 
   81500    2.0361704   -4.7716902    4927.3468            3 
   81600    2.0163787   -4.8139958    4928.8298       -1e+20 
   81700    2.0055962     -4.83783    4911.9641            2 
   81800    2.0192062    -4.786554    4914.0426            1 
   81900     1.989782   -4.7846138    4929.9552            1 
   82000    1.9984506   -4.8051586     4938.575            2 
   82100    1.9983212   -4.7955944    4920.4142            1 
   82200    1.9781136   -4.7749377    4898.5957            1 
   82300    1.9813987   -4.8156062    4915.8423            1 
   82400    1.9855316   -4.7991692    4942.1308            2 
   82500    2.0286608   -4.8003182    4885.6216            1 
   82600    1.9471222    -4.794443    4913.9683            1 
   82700    1.9869012   -4.8073771    4931.3607            1 
   82800    2.0212484   -4.7595571    4914.0247            2 
   82900    1.9792773   -4.8278456    4924.4277            2 
   83000    1.9780315   -4.8528784    4908.5944            1 
   83100    2.0181834   -4.7986151    4874.4117       -1e+20 
   83200    1.9711268   -4.7900977    4939.5182            1 
   83300    2.0030359   -4.7826234    4951.1334            1 
   83400    2.0426788   -4.7529338    4926.1929            1 
   83500    1.9535538   -4.7565508    4964.0296            1 
   83600    2.0177547   -4.8032141    4915.1998            1 
   83700    1.9927976   -4.7859327    4909.8197            1 
   83800     1.974916   -4.8102262    4940.1187            1 
   83900    2.0012941   -4.7680204    4887.8271            2 
   84000     1.968801   -4.7588533    4935.9034            1 
   84100    2.0022284    -4.747062    4930.7433       -1e+20 
   84200    1.9954172   -4.7956253    4934.6464       -1e+20 
   84300    2.0158569   -4.8077542    4932.9315            1 
   84400    2.0046383   -4.8161848    4911.7571            1 
   84500    2.0585989   -4.8257245    4938.3323            1 
   84600    1.9499032   -4.7813674    4918.5061            1 
   84700     1.966437   -4.7884663    4927.3149            4 
   84800    2.0307489   -4.7671868    4922.3498            1 
   84900    1.9747118   -4.7783893    4909.0499            2 
   85000    1.9914331   -4.7837108    4937.4098            1 
   85100    2.0112446   -4.7863303    4939.9039       -1e+20 
   85200    2.0122862   -4.7773195    4895.8424            1 
   85300    1.9699047   -4.7887296    4936.2517            1 
   85400    1.9902781   -4.7746669    4928.6899            1 
   85500    1.9878092   -4.7502887    4927.0211            1 
   85600    1.9920607   -4.7877106     4949.129            2 
   85700    2.0557902   -4.7698511    4924.2661            1 
   85800    2.0056185   -4.7842974    4935.5941       -1e+20 
   85900    1.9690242   -4.8146135    4957.4967            1 
   86000    2.0279507   -4.7971632    4895.6086            1 
   86100    2.0102137   -4.7978484    4918.0053            1 
   86200    1.9532822   -4.7739115    4955.1373            1 
   86300    2.0621452   -4.8016165    4915.8773            1 
   86400    2.0045603   -4.8194277    4924.5674            1 
   86500    1.9993229     -4.85811    4920.2008            1 
   86600    1.9982967   -4.8479352    4869.7124            1 
   86700    2.0158352   -4.8412949    4896.5025            1 
   86800    1.9847678   -4.8294671    4914.6077            1 
   86900    2.0203437   -4.7823744     4898.883            1 
   87000     1.971707   -4.7398765    4935.7142            1 
   87100    2.0295492   -4.7656376    4934.3503            1 
   87200    1.9973417   -4.8198249    4907.7795            1 
   87300    2.0061424   -4.8321692    4931.4496       -1e+20 
   87400    2.0204816   -4.8283497    4910.1945            1 
   87500    1.9954906    -4.815514    4904.1159            1 
   87600    2.0027756   -4.8012149    4927.7499            1 
   87700    2.0132785   -4.7464243    4956.3668       -1e+20 
   87800    2.0031723   -4.7852678     4909.616       -1e+20 
   87900    1.9967366   -4.8097059    4912.3088            1 
   88000    1.9752238   -4.8011911    4916.1466            1 
   88100    2.0383237   -4.8045542    4885.5017            1 
   88200    1.9630697   -4.7983704    4938.5899            1 
   88300    2.0007375   -4.7709803    4946.0457            1 
   88400    2.0304985   -4.7856069    4920.8552            1 
   88500    1.9639542   -4.7990126    4930.4609            1 
   88600    1.9835321   -4.7877985    4924.6491            2 
   88700    2.0474316   -4.7677394    4922.4071       -1e+20 
   88800    1.9621431   -4.7761827    4924.5563            1 
   88900    2.0097411   -4.7921682    4901.3501            1 
   89000    1.9744888     -4.81811    4906.4348            1 
   89100    2.0195247    -4.865449    4901.3373            2 
   89200    1.9939629   -4.8221582    4909.5904            2 
   89300    2.0335217   -4.8494752    4926.8644            1 
   89400    1.9885724   -4.8167133    4928.3259            1 
   89500    2.0589862   -4.8116795    4918.5193            1 
   89600    2.0069619   -4.8437611    4904.3335            1 
   89700    1.9895599   -4.8375689    4921.0252            1 
   89800    2.0552334   -4.8392803    4902.7055            2 
   89900    1.9889756   -4.8102906    4912.5061            1 
   90000    2.0105004   -4.8289767    4905.0191            2 
   90100    2.0151189   -4.8449289     4929.739            1 
   90200    2.0428538   -4.8322169    4914.6633            2 
   90300    1.9828302   -4.8248999    4933.3259       -1e+20 
   90400    2.0511159   -4.8098789    4910.8827            1 
   90500    2.0235562   -4.8601591    4902.1557            1 
   90600    1.9711841   -4.8134828    4928.7963            1 
   90700    2.0352018   -4.7886825     4916.938            1 
   90800    1.9397096   -4.8041358    4912.4813            1 
   90900    1.9946665   -4.8363053    4915.2485            1 
   91000    2.0095525   -4.7866014    4898.0178            1 
   91100     1.984543   -4.8341672    4926.7635            2 
   91200    2.0486176   -4.8212835    4909.1047            2 
   91300    1.9526899   -4.7575707    4919.0219            1 
   91400    2.0100441   -4.8006145    4944.8635            1 
   91500    2.0312902   -4.7795359    4925.3114            1 
   91600    1.9816358   -4.7830043    4924.5889            1 
   91700    1.9810497   -4.7969192    4928.9906            1 
   91800    1.9962661   -4.7896034    4886.3199            1 
   91900    2.0142486      -4.7679    4945.3597       -1e+20 
   92000    1.9789716   -4.7721655    4958.4158            1 
   92100    2.0413076    -4.770244    4933.2567            2 
   92200    2.0013081   -4.7779926     4942.577            1 
   92300    1.9817914   -4.8091312    4920.0018            1 
   92400    2.0387996   -4.8067333    4907.7364            1 
   92500    1.9839527    -4.808287    4930.3317            1 
   92600    1.9855281   -4.7967672    4900.9103            1 
   92700    2.0214229   -4.7851925    4938.6124            1 
   92800    1.9852348   -4.8132884     4915.886            1 
   92900    1.9932488   -4.8134176    4906.9641            1 
   93000    2.0354367     -4.79145    4929.0784            1 
   93100    1.9426098   -4.7439444    4948.4402            1 
   93200    2.0361083   -4.7673124    4897.4274            1 
   93300    1.9740791   -4.7861228    4941.6472            1 
   93400    1.9938934   -4.8033107    4920.6408            1 
   93500    2.0050702   -4.7790514     4889.421            1 
   93600    1.9694828   -4.7781956    4942.4493            1 
   93700    1.9959721   -4.7664872    4952.2294            1 
   93800    2.0302551   -4.7561065    4918.3655            2 
   93900    1.9505795   -4.7623256    4966.7849            1 
   94000    2.0363121   -4.7457755    4940.6439            1 
   94100    2.0263312   -4.7898115    4923.0719            1 
   94200    1.9560775   -4.7717618    4919.8135            1 
   94300    2.0073695   -4.7774597    4940.3442            1 
   94400    2.0088255   -4.7601157    4941.1628            1 
   94500    2.0151763   -4.8079645    4930.0016            3 
   94600    2.0395125   -4.8206553    4915.0067       -1e+20 
   94700    1.9604839   -4.8265063    4938.4704            2 
   94800    2.0265784   -4.7919245    4896.1637            2 
   94900     1.985102     -4.77462    4929.4099            1 
   95000    1.9963478   -4.7984117    4938.0915            1 
   95100    2.0220143   -4.8350272     4887.427            1 
   95200    1.9574458   -4.8278606    4912.6065            1 
   95300    2.0316373   -4.8415487    4912.8008            1 
   95400    2.0062865   -4.7661999    4953.7323            2 
   95500    2.0002203   -4.7612121    4931.9226            2 
   95600    1.9932362    -4.764324    4925.5293            1 
   95700    1.9760713    -4.777275    4924.4425            1 
   95800    1.9595223   -4.8271093    4900.1507            1 
   95900    2.0281812   -4.8354958    4899.2034            1 
   96000    1.9560167   -4.8273308    4893.0318            2 
   96100    2.0184998    -4.887381    4929.1332            1 
   96200    2.0044702    -4.788215    4905.5962            1 
   96300    1.9858766   -4.7807945    4936.5512            1 
   96400    1.9941993   -4.7626975    4917.2751            1 
   96500    1.9859294   -4.7485823    4950.0253            1 
   96600    2.0088322   -4.7963951    4948.0978            1 
   96700    2.0537026    -4.775117    4918.9955            1 
   96800     1.974426   -4.7919595    4959.6888            1 
   96900    2.0222509   -4.8203682    4907.6564            2 
   97000    2.0228259   -4.8048794    4920.4208            3 
   97100    1.9841993   -4.7990972    4935.8415            1 
   97200     2.012997   -4.8324615    4897.5088            3 
   97300    1.9666245   -4.8155748    4872.9925            1 
   97400    1.9840246   -4.8292096     4926.749            1 
   97500    1.9925219   -4.7395264    4928.5467            1 
   97600    1.9981522   -4.7751604    4912.0716            1 
   97700    1.9699149   -4.8365463    4906.1645            1 
   97800    2.0046096   -4.8527179    4899.0672            1 
   97900    2.0355008   -4.8428561    4910.2505            1 
   98000    1.9787874   -4.8239107    4907.5111            1 
   98100    2.0232019   -4.8059271    4934.9082            1 
   98200    2.0279088   -4.8003964    4939.1624            2 
   98300     1.993752   -4.8177804    4915.7029            1 
   98400     1.970823   -4.7952176    4901.2983            1 
   98500    2.0042902   -4.7598006    4929.6942            1 
   98600    2.0055115   -4.7931743    4937.2299            1 
   98700    1.9703868   -4.8092698    4899.4047            1 
   98800     2.013847   -4.8510185    4899.8987       -1e+20 
   98900    1.9989964   -4.7807943    4918.8293            1 
   99000    1.9959162   -4.8225523    4916.2308            1 
   99100    1.9832296   -4.8089441    4908.4886            1 
   99200    2.0145925   -4.8135153    4910.6099            1 
   99300    2.0215011   -4.8471377    4884.5455            1 
   99400    1.9408628   -4.7908828    4926.1199            1 
   99500    2.0042331   -4.7873563    4907.8119            1 
   99600    2.0170926   -4.8196753     4917.018            2 
   99700        2.012   -4.8238313    4930.6331            1 
   99800    1.9661565   -4.7572196    4895.8702            1 
   99900    1.9915693   -4.7368074    4964.2247            1 
  100000    2.0354962   -4.7915405    4945.9779       -1e+20 
  100100    1.9739156   -4.7582624    4919.8628            1 
  100200    2.0101556   -4.7980038    4909.6685            1 
  100300    1.9682882   -4.8043014    4902.1274            1 
  100400    1.9531266   -4.8168674    4909.1347            1 
  100500     2.008504   -4.8002146    4915.4112            1 
  100600    2.0205552   -4.8220788    4940.2414            1 
  100700    2.0022878   -4.7845641    4945.5933            1 
  100800    2.0424533   -4.7715815    4902.9874            1 
  100900    1.9734204   -4.8159302    4929.7877            1 
  101000     2.017631   -4.8246384    4905.3002            1 
  101100    1.9914335   -4.8109344    4913.2256            1 
  101200    1.9839029   -4.7885934     4949.447            1 
  101300    2.0063632   -4.7966571    4929.8697            1 
  101400    1.9904242   -4.8283557     4882.717            1 
  101500    2.0062903   -4.8307767    4922.6675            1 
  101600    1.9918894   -4.7832092    4920.8268            1 
  101700     1.966957   -4.7978483    4911.8453            2 
  101800    1.9990288    -4.762302    4914.8059       -1e+20 
  101900    1.9919489   -4.7713582    4929.0775            1 
  102000    1.9873627   -4.8065326     4909.301       -1e+20 
  102100    1.9990903   -4.7971892     4923.867            1 
  102200    2.0348547   -4.7849276    4917.8499            1 
  102300    1.9635788    -4.815744    4966.0134       -1e+20 
  102400     1.996775   -4.8003596    4894.2833            1 
  102500    2.0016367   -4.7699959    4898.2009            1 
  102600    1.9988877   -4.8387311     4911.976            1 
  102700    2.0331262   -4.8644485    4912.0279            2 
  102800    2.0150352   -4.7516481     4930.086            1 
  102900    2.0277986    -4.811702    4907.2697            1 
  103000    1.9596498   -4.8346179    4932.8169            1 
  103100    2.0036848   -4.8152955    4909.4493            1 
  103200    2.0089825   -4.7808051    4929.5352            2 
  103300    1.9972598   -4.7612639    4949.1909            1 
  103400    1.9838874   -4.7962028    4906.5584            1 
  103500    1.9970024   -4.7669128    4928.4288       -1e+20 
  103600    1.9972415   -4.7595508    4963.3495            1 
  103700    1.9604957   -4.7200457    4939.9594            1 
  103800     2.021176   -4.7824823    4900.0805            1 
  103900    1.9825829   -4.8047107    4951.4408            1 
  104000    2.0517856   -4.8152667     4912.091            1 
Loop time of 169.059 on 28 procs for 100000 steps with 4000 atoms

Performance: 102212.861 tau/day, 591.510 timesteps/s
99.7% CPU use with 28 MPI tasks x no OpenMP threads

MPI task timing breakdown:
Section |  min time  |  avg time  |  max time  |%varavg| %total
---------------------------------------------------------------
Pair    | 14.669     | 15.463     | 16.133     |  10.1 |  9.15
Neigh   | 2.8595     | 2.9031     | 3.008      |   2.1 |  1.72
Comm    | 10.955     | 13.244     | 15.297     |  31.0 |  7.83
Output  | 3.8554     | 3.8561     | 3.8676     |   0.1 |  2.28
Modify  | 129.9      | 131.88     | 134.61     |  14.2 | 78.01
Other   |            | 1.717      |            |       |  1.02

Nlocal:        142.857 ave         152 max         135 min
Histogram: 2 3 4 3 6 2 1 3 1 3
Nghost:        1966.82 ave        1979 max        1945 min
Histogram: 1 1 1 1 2 5 5 3 3 6
Neighs:        13284.9 ave       14566 max       12255 min
Histogram: 1 3 4 7 2 4 1 3 2 1
FullNghs:      26571.3 ave       28880 max       24882 min
Histogram: 3 4 3 6 1 5 1 2 2 1

Total # of neighbors = 743996
Ave neighs/atom = 185.99900
Neighbor list builds = 8339
Dangerous builds = 265

#clear
#
#next RN
#
#jump SELF
Total wall time: 0:02:50
