
units lj                  # Use reduced LJ style units
atom_style atomic         # Uncharged point particles
atom_modify map hash      # Needed for indexing of clusters etc
                          # Used to be able to find where atoms are in relation to each other.

# Define a lattice with which to populate the simulation cell. With units
# set to 'lj' the second argument to the lattice command is the reduced
# density rho* and the spacings are multiples of that required to acheive
# that density. Also define a simulation cell called 'box' in lattice units
# and fill it with atoms. Here we're creating a box which is ten lattice
# constants in each direction.
lattice fcc 1.0 spacing 1 1 1                 # All equal sizes - gives the right reduced density.
Lattice spacing in x,y,z = 1.5874011 1.5874011 1.5874011

region box block 0 10 0 10 0 10 units lattice # Defines a region, "box", in lattice units
create_box 1 box                              # Creates a simulation box as specified above,
Created orthogonal box = (0.0000000 0.0000000 0.0000000) to (15.874011 15.874011 15.874011)
  3 by 4 by 4 MPI processor grid
                                              # with one type of atom
create_atoms 1 box                            # Creates particles on lattice points
Created 4000 atoms
  using lattice units in orthogonal box = (0.0000000 0.0000000 0.0000000) to (15.874011 15.874011 15.874011)
  create_atoms CPU = 0.002 seconds


# Set the mass of the first (and only) atom type.
mass 1 1.0

# Lennard-Jones interactions between particles, 3.5 sigma cut-off. Apply
# long range tail corrections to energy and pressure and set all coefficients
# to unity since we work in reduced units here. Note that this doesn't shift
# the potential such that it goes to zero at the cutoff. That would require
# pair_modify('shift', 'yes').
pair_style lj/cut  3.5      # non-GPU version
pair_modify tail  yes
pair_coeff 1  1  1.0  1.0   # Intearaction between 1 and 1 set with epsilon = 1 and sigma = 1

write_data data.*
System init for write_data ...
Neighbor list info ...
  update every 1 steps, delay 10 steps, check yes
  max neighbors/atom: 2000, page size: 100000
  master list distance cutoff = 3.8
  ghost atom cutoff = 3.8
  binsize = 1.9, bins = 9 9 9
  1 neighbor lists, perpetual/occasional/extra = 1 0 0
  (1) pair lj/cut, perpetual
      attributes: half, newton on
      pair build: half/bin/atomonly/newton
      stencil: half/bin/3d
      bin: standard

#############################
#   M E L T   S Y S T E M   #
#############################

velocity all create 2.4 2750902 mom yes dist gaussian # Assign velocities
                                                    # Temperature 2.4, random number seed, zero linear momentum
						                                                        # Gaussian distribution

timestep 0.002   # simulation timestep
thermo 1000       # output thermodynamic data every 1000 steps

# Define a fix  in this case with index 1 applied to all
# particles in the simulation. This fix is for simulations
# in the anisotropic NPT ensemble. Note that we use the MTK
# correction.
fix 1 all npt temp 2.4 2.4 0.1 iso 5.68 5.68 0.5 mtk yes tchain 5 pchain 5 # Use NPT ensemble
                                                                         # Set temperature and pressure and damping
                                                                         # Numbers of thermostats in chain and in barostat
run 1000         # run for 10000 steps
Per MPI rank memory allocation (min/avg/max) = 3.642 | 3.644 | 3.648 Mbytes
Step Temp E_pair E_mol TotEng Press Volume 
       0          2.4   -8.3859253            0   -4.7868253   -2.2405722         4000 
    1000    2.3434012   -4.4238704            0  -0.90964738    5.8682558    5151.8188 
Loop time of 0.220225 on 48 procs for 1000 steps with 4000 atoms

Performance: 784651.592 tau/day, 4540.808 timesteps/s
99.4% CPU use with 48 MPI tasks x no OpenMP threads

MPI task timing breakdown:
Section |  min time  |  avg time  |  max time  |%varavg| %total
---------------------------------------------------------------
Pair    | 0.090823   | 0.099986   | 0.10954    |   1.5 | 45.40
Neigh   | 0.017305   | 0.018756   | 0.020307   |   0.5 |  8.52
Comm    | 0.06355    | 0.076572   | 0.088895   |   2.0 | 34.77
Output  | 2.5378e-05 | 2.6197e-05 | 3.2931e-05 |   0.0 |  0.01
Modify  | 0.020371   | 0.023336   | 0.026509   |   1.1 | 10.60
Other   |            | 0.00155    |            |       |  0.70

Nlocal:        83.3333 ave          95 max          78 min
Histogram: 8 10 8 7 5 5 2 1 1 1
Nghost:        1391.50 ave        1422 max        1362 min
Histogram: 4 2 3 6 11 8 4 3 2 5
Neighs:        7406.25 ave        8468 max        6555 min
Histogram: 2 6 8 5 10 4 6 2 1 4

Total # of neighbors = 355500
Ave neighs/atom = 88.875000
Neighbor list builds = 87
Dangerous builds = 20

# Equilibrate just above the melting temperature to avoid step fn in T

fix 1 all npt temp 1.25 1.25 0.1 iso 5.68 5.68 0.5 mtk yes tchain 5 pchain 5
run 1000
Per MPI rank memory allocation (min/avg/max) = 3.642 | 3.644 | 3.648 Mbytes
Step Temp E_pair E_mol TotEng Press Volume 
    1000    2.3434012   -4.4238704            0  -0.90964738    5.8682558    5151.8188 
    2000    1.2429145   -5.8542389            0   -3.9903333    5.7194736    4334.1532 
Loop time of 0.216072 on 48 procs for 1000 steps with 4000 atoms

Performance: 799733.932 tau/day, 4628.090 timesteps/s
99.7% CPU use with 48 MPI tasks x no OpenMP threads

MPI task timing breakdown:
Section |  min time  |  avg time  |  max time  |%varavg| %total
---------------------------------------------------------------
Pair    | 0.091803   | 0.099786   | 0.11456    |   1.2 | 46.18
Neigh   | 0.015523   | 0.016285   | 0.018091   |   0.4 |  7.54
Comm    | 0.058989   | 0.075381   | 0.087365   |   1.8 | 34.89
Output  | 2.4289e-05 | 2.5072e-05 | 3.1842e-05 |   0.0 |  0.01
Modify  | 0.018806   | 0.022657   | 0.028171   |   1.5 | 10.49
Other   |            | 0.001939   |            |       |  0.90

Nlocal:        83.3333 ave          91 max          76 min
Histogram: 2 0 6 7 12 2 13 2 2 2
Nghost:        1559.08 ave        1579 max        1541 min
Histogram: 2 2 8 11 4 8 3 5 3 2
Neighs:        8794.40 ave        9967 max        8047 min
Histogram: 4 3 11 7 11 7 2 2 0 1

Total # of neighbors = 422131
Ave neighs/atom = 105.53275
Neighbor list builds = 75
Dangerous builds = 8


# Small amount of linear quench

fix 1 all npt temp 1.25 ${temp} 0.1 iso 5.68 5.68 0.5 mtk yes tchain 5 pchain 5
fix 1 all npt temp 1.25 1.42 0.1 iso 5.68 5.68 0.5 mtk yes tchain 5 pchain 5
run 2000
Per MPI rank memory allocation (min/avg/max) = 3.643 | 3.645 | 3.648 Mbytes
Step Temp E_pair E_mol TotEng Press Volume 
    2000    1.2429145   -5.8542389            0   -3.9903333    5.7194736    4334.1532 
    3000    1.3292085   -5.7325491            0   -3.7392348    5.6248163    4400.9181 
    4000    1.4281288   -5.5905218            0   -3.4488642    5.8224041    4454.2274 
Loop time of 0.450873 on 48 procs for 2000 steps with 4000 atoms

Performance: 766513.096 tau/day, 4435.840 timesteps/s
99.7% CPU use with 48 MPI tasks x no OpenMP threads

MPI task timing breakdown:
Section |  min time  |  avg time  |  max time  |%varavg| %total
---------------------------------------------------------------
Pair    | 0.19641    | 0.2076     | 0.24323    |   1.9 | 46.04
Neigh   | 0.029409   | 0.030827   | 0.035115   |   0.7 |  6.84
Comm    | 0.12314    | 0.16005    | 0.17958    |   2.5 | 35.50
Output  | 4.7707e-05 | 4.8579e-05 | 6.1423e-05 |   0.0 |  0.01
Modify  | 0.036392   | 0.04792    | 0.057884   |   2.6 | 10.63
Other   |            | 0.004426   |            |       |  0.98

Nlocal:        83.3333 ave          89 max          78 min
Histogram: 3 4 5 8 6 6 3 8 3 2
Nghost:        1524.25 ave        1547 max        1502 min
Histogram: 1 3 7 7 6 7 8 5 3 1
Neighs:        8543.02 ave        9250 max        7834 min
Histogram: 2 3 4 4 12 7 9 4 2 1

Total # of neighbors = 410065
Ave neighs/atom = 102.51625
Neighbor list builds = 137
Dangerous builds = 0

#############################
# F R E E Z E  S Y S T E M  #
#############################

# Define solid atoms. This closely follows ten Wolde  Ruiz-Montero and Frenkel  Faraday Discuss  1996  104  93-110
# Compute components of the per-atom q6 vector
compute q6 all orientorder/atom degrees 1 6 components 6 nnn NULL cutoff 1.3 # compute the Q6 parameter.
                                                                             # Use all neighbours within 1.3 unit cell.

# get number of connections
compute coord_number all coord/atom orientorder q6 0.5

# An atom is solid if it has 8 or more connections (of a possible 14)
variable is_solid atom c_coord_number>=8
group solid dynamic all var is_solid    # Must be dynamic to update
dynamic group solid defined

# do clustering
compute cluster solid cluster/atom 1.3 # Create a cluster where all atoms within are solid and max 1.3 units from another member

# define chunks one chunk per cluster
compute clus_chunks solid chunk/atom c_cluster nchunk every compress yes  # Says which atoms are in which chunk

# count the size of each chunk
compute size_chunks solid property/chunk clus_chunks count


# Find the maximum entry in the vector of chunk sizes
variable max_n equal max(c_size_chunks)


# Thermo style which includes this variable
thermo_style custom step temp pe vol v_max_n

thermo ${N}  # Print the thermo information every 100 steps
thermo 1000  

# Reset the npt fix at a lower temperature (below freezing)
fix 1  all npt temp  ${temp} ${temp}  0.1  iso  5.68  5.68  0.5  mtk yes tchain  5  pchain  5
fix 1  all npt temp  1.42 ${temp}  0.1  iso  5.68  5.68  0.5  mtk yes tchain  5  pchain  5
fix 1  all npt temp  1.42 1.42  0.1  iso  5.68  5.68  0.5  mtk yes tchain  5  pchain  5

dump dmp2 all dcd ${N} traj_${rand}.dcd
dump dmp2 all dcd 1000 traj_${rand}.dcd
dump dmp2 all dcd 1000 traj_462431.dcd


# fix rnuntil all halt ${N} v_max_n >= 3980 error soft message no   # Stop when solidified


run 1000000 # 5000000  # Run for this many steps
Neighbor list info ...
  update every 1 steps, delay 10 steps, check yes
  max neighbors/atom: 2000, page size: 100000
  master list distance cutoff = 3.8
  ghost atom cutoff = 3.8
  binsize = 1.9, bins = 9 9 9
  4 neighbor lists, perpetual/occasional/extra = 1 3 0
  (1) pair lj/cut, perpetual
      attributes: half, newton on
      pair build: half/bin/atomonly/newton
      stencil: half/bin/3d
      bin: standard
  (2) compute orientorder/atom, occasional
      attributes: full, newton on
      pair build: full/bin/atomonly
      stencil: full/bin/3d
      bin: standard
  (3) compute coord/atom, occasional
      attributes: full, newton on
      pair build: full/bin/atomonly
      stencil: full/bin/3d
      bin: standard
  (4) compute cluster/atom, occasional
      attributes: full, newton on
      pair build: full/bin/atomonly
      stencil: full/bin/3d
      bin: standard
Per MPI rank memory allocation (min/avg/max) = 9.346 | 9.351 | 9.356 Mbytes
Step Temp PotEng Volume v_max_n 
    4000    1.4281288   -5.5905218    4454.2274            2 
    5000    1.3992156   -5.5878223    4457.1378            3 
    6000    1.3948414   -5.5606619    4489.0942            4 
    7000    1.4025072   -5.5799802    4493.9528            4 
    8000    1.3896904   -5.5964261    4475.4354            3 
    9000    1.4216942   -5.5949457    4466.3642            3 
   10000    1.4283733   -5.5771728    4467.7625            3 
   11000    1.4236842   -5.6186433     4455.385            2 
   12000    1.4045692    -5.564083    4482.8317            4 
   13000    1.4182646   -5.5752288     4468.266            1 
   14000     1.438888   -5.5700488    4474.5593            2 
   15000    1.4435216   -5.6162251     4465.571            1 
   16000    1.4506645   -5.5503529    4487.0669            2 
   17000    1.4364353   -5.5692623    4471.3929            1 
   18000    1.4022003   -5.5922391    4448.2431            1 
   19000    1.3791309    -5.552936    4474.2927            2 
   20000    1.3919172   -5.5408679    4482.5346            3 
   21000    1.4003019   -5.6084955     4489.752            2 
   22000    1.4409979   -5.6028485    4460.4696            2 
   23000    1.4189647   -5.5685149    4459.2779            2 
   24000    1.4068179   -5.5675315    4487.1486            1 
   25000    1.4205606   -5.5660758     4459.699            1 
   26000    1.4298687   -5.6131259    4469.3756            2 
   27000     1.405686   -5.5949565    4476.8155            1 
   28000    1.4144828   -5.5971136    4471.0977            2 
   29000    1.4172633   -5.5905504    4476.0401            1 
   30000    1.3990261   -5.6352149    4467.0947            3 
   31000      1.40831    -5.571531     4448.732            3 
   32000    1.4313416   -5.5738073     4465.255            3 
   33000    1.4178944   -5.5962439    4452.6608            3 
   34000    1.4236776   -5.5235216    4454.7782            2 
   35000     1.392294   -5.5552545     4459.766            2 
   36000    1.4172368    -5.482144    4486.0981            4 
   37000     1.440417   -5.5786205    4485.0782            1 
   38000    1.4337698    -5.579646     4489.062            5 
   39000    1.4105365    -5.546573    4470.2179            3 
   40000    1.4389498   -5.5526734    4482.6421            2 
   41000    1.4319085   -5.5612328    4454.1833            3 
   42000     1.458978   -5.6099083    4483.4688            2 
   43000    1.4304899   -5.5905777    4478.2587            2 
   44000    1.4256471   -5.5744115    4479.3836            3 
   45000    1.4280632   -5.5473219    4468.3756            2 
   46000    1.4359605   -5.6012928    4467.9782            2 
   47000    1.4398604   -5.5406748    4487.0361            6 
   48000    1.4223429   -5.5851191     4485.854            2 
   49000    1.3985843   -5.6003701    4463.5689            1 
   50000    1.4295162   -5.6008895    4459.5797            2 
   51000     1.415341   -5.5974202    4482.0602            2 
   52000    1.4134446   -5.6130211    4469.4699            3 
   53000    1.4534856   -5.5807863    4459.4435            3 
   54000     1.422812   -5.5768071    4476.3565            1 
   55000    1.4276959   -5.5832381     4467.302            1 
   56000    1.4079395   -5.5843896    4450.9251            2 
   57000    1.4301225   -5.5582973    4488.2003            1 
   58000    1.4352898   -5.5260353    4485.3625            2 
   59000    1.4349662   -5.5961514    4486.5207            1 
   60000    1.4120495   -5.6032469    4486.4501            2 
   61000    1.3983006   -5.5816748    4470.9539            2 
   62000    1.4106488   -5.5580452    4494.5993            1 
   63000    1.4242315   -5.6082267    4462.1385            3 
   64000    1.4064474   -5.5016506    4471.5248            2 
   65000    1.4332409   -5.6240587    4459.5117            2 
   66000    1.4255017   -5.5410296    4476.2448            2 
   67000    1.4289589   -5.6039955    4466.8958            3 
   68000    1.4366508   -5.5467543     4482.038            2 
   69000    1.4350499    -5.577695    4474.0656            2 
   70000    1.4138951   -5.5536269    4475.4794            1 
   71000    1.4367264   -5.5643048    4470.3984            2 
   72000    1.4524052   -5.5804052    4465.4014            2 
   73000    1.4110154   -5.5730827    4467.0652            3 
   74000    1.4392618   -5.6277115    4449.9209            5 
   75000    1.4556705   -5.6103812    4457.1325            3 
   76000    1.4396182   -5.5508573    4494.6394            2 
   77000    1.4010316   -5.6071097    4469.9722            2 
   78000    1.4333173   -5.6013154    4485.1393            5 
   79000    1.4362798   -5.5766596    4476.6564            1 
   80000    1.4092826   -5.5607745      4492.11            2 
   81000    1.4127848   -5.6016852    4449.6103            1 
   82000    1.4053362   -5.5164233    4493.2892            1 
   83000    1.4484948   -5.5823171     4458.437            2 
   84000    1.4352846   -5.5531138    4481.1304            2 
   85000    1.3952014   -5.5670875    4477.6488            2 
   86000    1.4582011   -5.5801538    4477.5075            3 
   87000    1.4191307   -5.5887618    4449.6259            3 
   88000    1.4137053   -5.5814374    4471.4261            3 
   89000    1.4044415    -5.565076    4475.9283            1 
   90000    1.3819249   -5.5817592    4470.3852            3 
   91000    1.4493561   -5.6084732    4485.3102            3 
   92000    1.3947761   -5.5650972    4478.8534            2 
   93000    1.4636629   -5.6140846    4498.8397            2 
   94000    1.4289443   -5.5741272    4480.5023            2 
   95000    1.4209385   -5.5864474    4478.2074            3 
   96000    1.4011933   -5.5988226    4424.0824            2 
   97000     1.434473   -5.5941652    4471.4401            2 
   98000    1.4496603   -5.6042333    4466.4924            2 
   99000    1.3995905   -5.5841307    4477.6751            2 
  100000    1.4258737   -5.5797644     4453.125            1 
  101000     1.452278   -5.5342387    4473.4705            1 
  102000    1.3992147   -5.5422518     4474.903            7 
  103000    1.4206745   -5.5625244    4459.2138            4 
  104000    1.4304341   -5.6008197    4450.3784            5 
  105000    1.3864821   -5.5405871    4483.9291            1 
  106000     1.437615   -5.5863413    4472.1418            2 
  107000    1.3871694    -5.598898    4461.5959            3 
  108000    1.4222505   -5.5830028    4473.8457            2 
  109000    1.4170752   -5.5863341    4474.2041            3 
  110000    1.4114303    -5.555312    4468.4084            2 
  111000    1.4160057   -5.5748179    4469.7077            3 
  112000    1.4096694    -5.561652    4483.3832            1 
  113000    1.4074213   -5.5483131    4483.1161            4 
  114000    1.4258234    -5.572828    4483.9075            1 
  115000    1.3802206   -5.5834551    4459.8888            3 
  116000    1.4159807   -5.5959388    4460.1037            2 
  117000    1.4322374    -5.572568    4479.5293            3 
  118000    1.4061299    -5.587491    4485.2691            2 
  119000    1.4340628   -5.5980273    4464.6151            4 
  120000     1.402678   -5.5836722    4497.0892            3 
  121000    1.4029589   -5.5705198    4461.8909            2 
  122000    1.4157065   -5.5899131     4468.389            2 
  123000    1.4142376   -5.5698145    4459.6121            2 
  124000    1.4085038   -5.5771646    4483.6072            2 
  125000    1.4125033   -5.5605641    4467.1945            2 
  126000    1.4423367    -5.552247    4485.2679            3 
  127000    1.4306325   -5.5775797    4479.8337            2 
  128000    1.4139971   -5.5616948    4451.9549            5 
  129000    1.4217976   -5.5686972    4488.2201            2 
  130000    1.4338197    -5.564446    4461.8688            6 
  131000    1.4205715   -5.6006922    4450.6256            5 
  132000     1.415769   -5.5544095     4475.094            2 
  133000    1.4040059   -5.6450335    4454.0157            2 
  134000     1.465717   -5.5931271    4465.7478            2 
  135000    1.4191257   -5.5716353    4483.9748            2 
  136000    1.4333053    -5.534992    4477.2425            4 
  137000    1.3939608   -5.5554488    4488.5598            5 
  138000    1.4397728   -5.5814099    4453.8122            3 
  139000    1.4237683   -5.5438543    4497.6553            2 
  140000    1.4046525   -5.5433649    4477.4903            2 
  141000    1.4140923   -5.5765211    4470.7699            2 
  142000    1.4109308   -5.6066576    4479.0704            2 
  143000     1.433416   -5.6118526    4471.1222            3 
  144000    1.4425759   -5.5723914    4474.0233            5 
  145000    1.4114822   -5.5940594    4464.5986            4 
  146000    1.3969471   -5.5563366    4485.1147            1 
  147000    1.3860064   -5.6145484    4465.2069            2 
  148000    1.4123387    -5.575666    4496.2221            3 
  149000    1.4248318   -5.5756542    4457.3107            4 
  150000    1.4359076   -5.5481631    4485.1434            2 
  151000    1.4356468   -5.5684406     4491.613            3 
  152000    1.4048943   -5.5966565     4459.549            1 
  153000    1.4271011   -5.5434103    4460.0405            1 
  154000    1.3807056   -5.5565431    4483.5842            2 
  155000    1.4414135   -5.5623978    4461.2803            4 
  156000    1.4186384   -5.5835649    4454.2775            2 
  157000    1.4553369    -5.560829    4488.9184            4 
  158000     1.416723   -5.5646143     4482.399            2 
  159000     1.459435   -5.5284947    4491.4199            3 
  160000    1.4341294   -5.5947201    4456.9615            5 
  161000    1.4563103   -5.5791542    4453.7186            2 
  162000    1.4515808   -5.5677579    4469.0786            4 
  163000    1.4174245   -5.6172442    4463.1523            4 
  164000    1.4256487   -5.5823739    4477.5297            3 
  165000    1.4597502   -5.6042118    4483.6498            4 
  166000    1.4131514   -5.5912367     4482.818            2 
  167000    1.4071062    -5.575634    4489.6428            2 
  168000    1.4501099   -5.5174235    4491.6113            2 
  169000    1.4328266   -5.5509766    4477.6997            2 
  170000    1.4491708   -5.5435527    4502.5086            3 
  171000    1.4195038   -5.5737693    4481.2075            2 
  172000    1.4535088   -5.5558226    4462.0112            2 
  173000    1.3994075   -5.5716812    4456.2104            2 
  174000    1.4086384   -5.5986556     4445.991            2 
  175000     1.425262   -5.5852862    4461.4299            1 
  176000    1.3867251   -5.5675948    4472.8081            2 
  177000    1.4237952   -5.6005529    4483.5135            2 
  178000    1.4354657    -5.567622      4476.45            1 
  179000    1.4212373   -5.5702826    4495.1507            2 
  180000     1.404327   -5.5518118    4489.3035            1 
  181000    1.4268127   -5.5780167     4481.487            4 
  182000    1.4401125   -5.5574965    4465.6994            2 
  183000    1.4007859   -5.5350459    4461.5891            4 
  184000    1.3929465   -5.6235776    4465.8146            1 
  185000    1.4389267    -5.568707     4454.457            2 
  186000    1.4241218   -5.5886752    4488.0285            2 
  187000    1.4258318    -5.571755     4483.322            2 
  188000    1.4223555     -5.60599    4491.6337            3 
  189000    1.4331997   -5.5781254    4472.3773            1 
  190000    1.4573421   -5.6232968    4452.6802            7 
  191000    1.3989982   -5.5474134    4467.7574            1 
  192000    1.4099542   -5.5861427    4483.0571            5 
  193000    1.4374876   -5.5672368    4497.5713            1 
  194000    1.4019449   -5.5955545    4459.2814            3 
  195000    1.4052715   -5.5428677    4480.8598            3 
  196000    1.4277593   -5.5314115    4494.4069            3 
  197000    1.3853933    -5.567709    4492.5773            4 
  198000    1.3929246    -5.574702    4474.6937            3 
  199000    1.3939874   -5.5820753    4475.9164            1 
  200000    1.4190441   -5.5683427    4490.9517            3 
  201000    1.3909495   -5.5454297    4498.1821            4 
  202000    1.4028469   -5.5731971    4471.3848            2 
  203000    1.4147482   -5.5917088    4456.4863            1 
  204000    1.4038149   -5.5554188    4464.2859            2 
  205000     1.393107   -5.5769234    4467.6685            2 
  206000    1.4180173   -5.5580611    4469.3298            2 
  207000    1.4018558   -5.6037157    4494.2928            2 
  208000    1.4150259   -5.5521826    4472.0098            2 
  209000    1.4022133   -5.5190409    4479.4838            2 
  210000    1.4380809   -5.5992825    4468.3402            8 
  211000    1.4180331    -5.610694    4487.1967            2 
  212000    1.4086043    -5.562359    4475.2781            2 
  213000    1.3962549   -5.6088016    4466.6675            2 
  214000    1.3882032   -5.5677524    4469.1006            2 
  215000    1.4275369   -5.6111312    4485.9648            3 
  216000    1.4132317   -5.5649115    4480.3228            3 
  217000    1.4102744   -5.5801021     4457.321            2 
  218000    1.4177357   -5.5905998     4480.498            2 
  219000    1.4045198   -5.5264407    4463.1396            3 
  220000    1.4387799   -5.5696267    4491.7311            2 
  221000    1.4255852   -5.6000012    4477.4821            3 
  222000    1.4349406   -5.5707646    4465.7808            2 
  223000    1.4407584   -5.6021003    4468.0367            1 
  224000    1.4058593   -5.5754122    4478.6935            5 
  225000    1.4390764   -5.5564139    4446.3205            1 
  226000    1.3960447   -5.5757642    4473.3121            6 
  227000      1.45334   -5.6015001    4464.7881            2 
  228000    1.4288724    -5.642884    4445.9712            1 
  229000    1.4237978   -5.5475877    4447.4413            1 
  230000    1.4169702   -5.5867513    4456.5957            3 
  231000    1.4253596   -5.6090478    4465.2945            1 
  232000    1.4225109   -5.5464128    4461.8626            3 
  233000    1.3831678   -5.5946014    4467.5317            3 
  234000    1.4040607   -5.5354597    4473.9383            2 
  235000    1.4027972   -5.5618821    4454.9307            2 
  236000    1.4144191   -5.6018126    4459.5415            2 
  237000    1.4232981   -5.5621362    4474.6246            1 
  238000    1.4419945    -5.569509      4478.02            1 
  239000    1.3859642   -5.5712155    4461.5959            2 
  240000    1.4068518   -5.5860319    4475.6923            3 
  241000    1.4338376   -5.6069042    4476.1247            2 
  242000    1.4087004   -5.6005068    4485.7991            3 
  243000    1.4112844   -5.5560416      4491.27            3 
  244000    1.3879783   -5.5798702    4478.4427            5 
  245000    1.4283608   -5.6036905    4460.5499            4 
  246000    1.4276912   -5.5471622    4486.4468            2 
  247000    1.4268786   -5.5424856     4483.075            2 
  248000    1.4240869   -5.6004117     4470.239            2 
  249000    1.4293611   -5.5741649    4453.6805            3 
  250000    1.4090069   -5.5578212    4477.4998            2 
  251000    1.4147734   -5.5596809     4470.702            2 
  252000    1.4208593    -5.571745    4482.1753            2 
  253000    1.4283754    -5.567177     4493.634            1 
  254000    1.4358837    -5.562194    4468.1061            3 
  255000    1.4185187   -5.5663136    4472.3524            4 
  256000    1.4364133   -5.6006055    4471.7857            2 
  257000    1.4040575   -5.5985242    4480.4949            2 
  258000     1.415277   -5.5772839    4469.5982            3 
  259000    1.3853855   -5.5482917    4491.6496            1 
  260000    1.3984129   -5.5453743    4485.8619            1 
  261000    1.4091203    -5.625904    4460.0362            2 
  262000    1.4132594   -5.5779784    4479.7602            2 
  263000    1.3910324   -5.5903317    4446.2483            2 
  264000    1.4248621     -5.58778    4482.3134            1 
  265000    1.3945768   -5.5864983    4473.7092            1 
  266000     1.425744   -5.5674752    4459.7017            4 
  267000    1.4257799   -5.5725597    4478.1202            1 
  268000    1.3896285   -5.5872974    4464.2233            5 
  269000    1.3934875   -5.5722364    4467.3051            2 
  270000     1.393461   -5.5779579    4469.1458            5 
  271000    1.4175638   -5.5767728    4486.3921            2 
  272000    1.4257548   -5.5705893    4472.2902            2 
  273000    1.3998294   -5.5714424    4462.9242            4 
  274000    1.4241669   -5.5701678    4466.6235            2 
  275000    1.4293232   -5.6240358    4471.0255            5 
  276000    1.4158415   -5.5129055    4502.6705            3 
  277000    1.3745086   -5.5878313    4475.0353            2 
  278000    1.4263022   -5.6062537    4472.9227            2 
  279000    1.4370477   -5.5778233    4480.6197            1 
  280000     1.398648   -5.5822532    4476.8008            2 
  281000     1.380962   -5.6021917    4434.4074            1 
  282000    1.4131001   -5.5404494    4458.7384            2 
  283000    1.4309774   -5.5796436    4477.0018            1 
  284000    1.4303931   -5.5517614     4505.813            3 
  285000    1.3917776   -5.5949256    4457.7681            2 
  286000     1.414842    -5.529068    4496.8096            3 
  287000    1.4038421   -5.5898701    4481.7944            1 
  288000    1.4311654   -5.5565896    4480.2053            1 
  289000     1.392094   -5.5735928    4467.1196            1 
  290000      1.40432   -5.6077328    4475.6855            2 
  291000    1.3824161   -5.5414673    4482.8296            1 
  292000    1.4212729   -5.5880133    4459.9338            1 
  293000    1.4208232   -5.5884775    4454.8859            1 
  294000    1.4141127   -5.5872006    4471.8498            3 
  295000    1.4176899   -5.5722543    4495.6474            3 
  296000    1.4275786   -5.5927986    4480.6239            2 
  297000    1.4235499   -5.6031093    4491.2632            2 
  298000    1.4120524   -5.5619265    4482.7867            3 
  299000    1.4072353   -5.6044158    4477.7373            2 
  300000    1.4416531   -5.5797282    4476.6999            1 
  301000    1.3970682   -5.5796122    4489.6166            2 
  302000     1.435763   -5.6113485    4466.0347            1 
  303000    1.4140898   -5.5884072    4457.3629            2 
  304000    1.4232998   -5.5793329    4466.4173            5 
  305000    1.4068086   -5.5846486    4462.6144            2 
  306000    1.4315584   -5.5608101    4447.3705            2 
  307000    1.4016769   -5.5637755    4492.1804            7 
  308000    1.3871339   -5.6106038    4463.2857            2 
  309000    1.4129237   -5.6185206    4461.8583            3 
  310000    1.4269809   -5.5893387    4478.4883            1 
  311000    1.3997541   -5.5497608     4480.523            3 
  312000     1.418437    -5.566683    4491.6468            2 
  313000    1.4417387   -5.5329601    4485.1048            1 
  314000     1.377037   -5.5895097    4446.9826            1 
  315000    1.3881357   -5.5457408    4494.1819            2 
  316000    1.4508743   -5.5835478    4475.7278            2 
  317000    1.4379538   -5.5699166    4466.8836            2 
  318000    1.4096075   -5.5698641    4470.0925            3 
  319000    1.4242441    -5.580999    4474.2688            2 
  320000    1.4132315   -5.6058427    4473.8428            2 
  321000    1.4187702   -5.6306761    4469.3917            5 
  322000    1.4357658   -5.6090598    4435.1437            2 
  323000    1.4362987   -5.5069165    4452.8276            1 
  324000      1.41708   -5.6090879    4459.8083            2 
  325000    1.4214901   -5.5735273    4479.4196            2 
  326000    1.4149539   -5.5957709    4471.9791            3 
  327000    1.4145013   -5.5712039    4466.4394            4 
  328000    1.3937838   -5.5790279    4461.0513            2 
  329000    1.4476018   -5.5353302    4473.7309            2 
  330000    1.3940262    -5.514437    4478.4902            1 
  331000    1.4290285   -5.5973516    4473.5934            2 
  332000    1.4564664   -5.5553647    4480.2136            2 
  333000     1.442334   -5.5447885    4460.2803            6 
  334000    1.4075588   -5.5838254    4468.1299            2 
  335000    1.4432241   -5.5837737    4484.1366            2 
  336000     1.435118     -5.60163    4479.1551            3 
  337000    1.4337521   -5.6230416    4458.5246            1 
  338000     1.425548   -5.5713054    4484.4426            3 
  339000    1.4377271   -5.5980959    4469.3326            2 
  340000    1.4383737   -5.6143297    4471.5889            2 
  341000    1.4323248   -5.5723388    4489.2212            3 
  342000    1.4152206   -5.5287152    4477.6566            8 
  343000    1.3979496   -5.5678474    4467.3102            3 
  344000     1.414728   -5.5583522    4483.5982            4 
  345000    1.4169181   -5.5467312    4475.6402            2 
  346000    1.4146399   -5.5796556    4477.7395            1 
  347000    1.3742767   -5.5521079    4466.2845            3 
  348000    1.4315972   -5.5917208    4447.4229            2 
  349000    1.4260872   -5.5975807    4465.9266            4 
  350000    1.4117688   -5.5623037     4488.692            3 
  351000    1.4014205   -5.5541216    4462.1718            4 
  352000     1.400868   -5.5516269    4498.6043            2 
  353000    1.4387797   -5.5578228    4467.0262            2 
  354000    1.4219432   -5.5727131    4480.7032            2 
  355000     1.410219   -5.5591929    4452.3813            2 
  356000    1.4296722    -5.571984    4453.6513            5 
  357000     1.421266   -5.5908073    4477.5434            4 
  358000    1.4305873   -5.5302222    4479.8671            3 
  359000    1.3920482    -5.605827    4459.5135            1 
  360000    1.3883511   -5.5213796    4501.1956            5 
  361000    1.4301257   -5.6219237    4473.1331            2 
  362000    1.4197634   -5.5938731    4479.0903            2 
  363000    1.4225517   -5.5973945     4469.961            1 
  364000    1.4301188   -5.6201481    4458.6105            1 
  365000    1.4446016   -5.5720723     4467.307            4 
  366000    1.4326616   -5.5769307    4452.1221            4 
  367000    1.4569233   -5.5725272    4442.5805            1 
  368000    1.4288662   -5.5657784    4480.2427            1 
  369000    1.4094738   -5.6043855    4465.9097            2 
  370000    1.4018314   -5.5260331    4484.1454            2 
  371000    1.4290768   -5.5947329    4461.6663            1 
  372000    1.4383397   -5.5755144    4453.7742            2 
  373000    1.4342438   -5.5418886    4460.9158            3 
  374000    1.3787078   -5.5791076     4455.067            1 
  375000    1.4122589    -5.532537    4478.2405            2 
  376000    1.4548558   -5.5854337    4476.2185            4 
  377000    1.4406128   -5.5821361    4476.5696            4 
  378000    1.4358804   -5.5791746    4473.4153            4 
  379000    1.4197658   -5.6048409    4470.7687            2 
  380000    1.4091432   -5.5724039    4484.3143            3 
  381000    1.3985388   -5.5705422    4475.6247            4 
  382000    1.4106964   -5.5787227    4474.8873            1 
  383000    1.4234801   -5.5732789    4474.5939            2 
  384000    1.4200134    -5.565696    4476.0776            3 
  385000    1.4053329   -5.5553937     4458.085            3 
  386000    1.4334625   -5.5631591    4475.0757            2 
  387000    1.4293217   -5.6112501    4470.8577            3 
  388000    1.3958185   -5.5412258     4473.274            2 
  389000    1.4124666   -5.5576707    4462.9466            1 
  390000    1.4044868   -5.5221757    4478.9769            2 
  391000    1.4341772   -5.5751759    4470.6308            5 
  392000    1.4184699   -5.6075532    4453.5051            4 
  393000    1.4395416   -5.5259925    4469.1994            2 
  394000    1.4457434   -5.5705395     4479.355            2 
  395000    1.4185146   -5.5618618    4470.1014            3 
  396000    1.4207191   -5.5904178    4474.1264            2 
  397000    1.4290473   -5.5904275    4463.3712            6 
  398000    1.4403086   -5.5767212    4461.5295            3 
  399000    1.4415234   -5.5669669    4483.6894            2 
  400000    1.3866113    -5.589828    4508.2762            2 
  401000    1.4438456   -5.5728246    4486.8291            1 
  402000    1.4040217   -5.5889609    4469.8348            5 
  403000    1.4318155   -5.5625065    4477.3396            1 
  404000    1.4336095   -5.5565884    4472.3685            6 
  405000    1.4250264   -5.5544722    4487.4347            2 
  406000    1.3900202   -5.5482744    4472.3353            3 
  407000     1.385048   -5.5831595    4449.7199            3 
  408000    1.4032824    -5.573371    4465.5307            2 
  409000    1.4066348    -5.567095    4485.1578            2 
  410000      1.43462   -5.5818768    4484.9762            2 
  411000     1.406983   -5.5645526    4485.6442            1 
  412000    1.4350983   -5.5855859    4462.9496            5 
  413000    1.4671729    -5.580025    4449.1481            3 
  414000    1.4304719   -5.5882065    4472.6539            2 
  415000    1.3976124   -5.6129603    4470.7546            3 
  416000    1.4330297   -5.5791853    4483.6823            2 
  417000    1.4313475   -5.5941207     4453.531            4 
  418000    1.3933528   -5.5638294    4465.5315            1 
  419000     1.452523   -5.5845006    4469.9813            2 
  420000    1.4240547   -5.5670105    4478.5895            3 
  421000    1.4317642   -5.5508354     4466.771            1 
  422000    1.4116792   -5.6090285    4455.9869            3 
  423000    1.4232317   -5.6052943    4471.0094            3 
  424000    1.3920149   -5.5552584    4487.5569            2 
  425000    1.4218471   -5.5489081    4485.3842            1 
  426000     1.447808   -5.5553114    4478.0419            3 
  427000    1.3833583   -5.5412909    4492.4565            2 
  428000    1.4069602   -5.6036007    4465.4913            3 
  429000    1.4082042   -5.5741937    4479.6974            2 
  430000    1.4293406   -5.6017095    4476.8679            1 
  431000    1.4566406   -5.5351805    4478.8407            2 
  432000    1.4100798   -5.5410203     4484.739            2 
  433000    1.4070298   -5.5454915    4489.3087            2 
  434000    1.4038014   -5.5456696    4471.7002            2 
  435000    1.4240561   -5.5596335    4464.2403            2 
  436000    1.4352464   -5.5658663    4466.1573            2 
  437000    1.4563001   -5.5692626     4464.485            5 
  438000    1.4432557   -5.5967186    4459.0818            2 
  439000    1.4263922   -5.5572626    4461.7752            1 
  440000    1.4064968   -5.6047711     4445.774            2 
  441000    1.4232124   -5.5764301    4466.3244            1 
  442000    1.4406913    -5.570625    4484.7065            2 
  443000    1.3988944   -5.5475977    4460.7042            3 
  444000    1.4039215     -5.56073     4492.357            2 
  445000    1.4384821   -5.5621729    4470.0278            1 
  446000    1.4306651   -5.6343846    4473.3118            6 
  447000    1.4449915   -5.5874685    4464.9145            5 
  448000    1.4035453   -5.5930709     4461.203            3 
  449000     1.422528   -5.5921063    4468.3499            2 
  450000    1.3899637   -5.5489592      4472.32            2 
  451000    1.4413668   -5.5607446    4472.7842            1 
  452000    1.4212199   -5.5626179    4453.0075            2 
  453000    1.4097884   -5.5775242    4458.1151            3 
  454000    1.4288615   -5.5652859    4483.2978            1 
  455000    1.4091692   -5.5500579    4458.6984            2 
  456000    1.4085781   -5.5439154    4474.7428            1 
  457000    1.4080734   -5.5517553    4477.7454            2 
  458000    1.4025565   -5.5618062    4473.8395            1 
  459000    1.4483659   -5.5526506    4473.6396            2 
  460000    1.4243733   -5.5630507    4480.1962            2 
  461000    1.4323274   -5.5802126    4471.0226            2 
  462000    1.4265871   -5.5779076    4466.8704            1 
  463000    1.4303293    -5.579687    4459.5904            2 
  464000    1.4094703   -5.6239861    4454.4832            3 
  465000     1.398124   -5.5890094    4450.3127            2 
  466000    1.4102148   -5.5679421    4483.7526            3 
  467000    1.4018818   -5.5919332    4459.6811            2 
  468000    1.4035789   -5.5722356    4470.8282            4 
  469000    1.4389903   -5.5980846     4487.016            3 
  470000    1.4254958   -5.5480146     4459.667            2 
  471000    1.4374809    -5.606597    4462.8167            2 
  472000     1.404235   -5.5767264     4471.416            3 
  473000    1.4172384   -5.5716931    4469.5684            4 
  474000     1.401144   -5.5793215    4465.0263            1 
  475000    1.4079265   -5.5767147    4465.3342            2 
  476000    1.4118816   -5.5205702    4479.5328            2 
  477000    1.4268751   -5.5703494    4468.4714            2 
  478000    1.4256663   -5.5281227    4477.3781            2 
  479000    1.4540107   -5.6055843    4476.4974            3 
  480000    1.4083222    -5.642018    4445.9968            2 
  481000    1.4064492   -5.5441819    4471.5293            2 
  482000    1.3956458   -5.6062518    4458.9103            3 
  483000    1.4000576   -5.5977001    4456.4789            1 
  484000      1.43437   -5.5759664    4489.2528            4 
  485000    1.3949281   -5.5416359    4487.7598            3 
  486000    1.3964835    -5.534728     4466.784            2 
  487000    1.4441062    -5.559946     4484.685            2 
  488000    1.4822451   -5.5864357    4476.1222            3 
  489000    1.4199091    -5.601216    4470.7303            3 
  490000    1.4323456   -5.5474839    4487.7204            3 
  491000    1.4294878   -5.5585725    4487.5032            5 
  492000     1.457674    -5.546818    4471.3626            3 
  493000    1.4048403   -5.6036292    4470.5918            1 
  494000    1.4264012   -5.5963178    4473.6211            2 
  495000      1.38649   -5.5925239    4488.5275            2 
  496000    1.4337274   -5.5656099    4484.7144            2 
  497000    1.4048596   -5.5707399    4465.1198            2 
  498000    1.4397551   -5.5684064     4453.886            4 
  499000    1.3886669   -5.5356092    4504.8637            3 
  500000    1.4326761   -5.5676176    4478.5454            2 
  501000    1.4293286    -5.553464    4456.1916            1 
  502000    1.4025874   -5.5709665    4472.4507            1 
  503000    1.4115173   -5.5891925    4487.5802            2 
  504000    1.4235509   -5.5715501    4478.9283            2 
  505000    1.4401517   -5.5540045    4496.8808            3 
  506000    1.3969324   -5.5977683    4470.9413            2 
  507000    1.4376704   -5.5602302    4474.6285            4 
  508000    1.4179675   -5.5899519    4442.4909            2 
  509000    1.3914614   -5.6040232    4453.2312            2 
  510000    1.3756665   -5.6263246    4476.7957            2 
  511000     1.439241   -5.5799323    4467.7344            1 
  512000    1.4058255   -5.6026431    4471.1736            3 
  513000    1.4384894   -5.5852088    4486.0573            2 
  514000    1.3799942    -5.595749     4481.793            1 
  515000    1.4559739   -5.5922526     4458.271            4 
  516000    1.4051068   -5.5539854    4476.0686            3 
  517000     1.421391   -5.5791533    4469.0833            3 
  518000     1.410812   -5.5835898     4470.436            6 
  519000    1.4554534   -5.5586774    4474.9706            2 
  520000    1.4024634   -5.5652107    4477.5592            3 
  521000    1.3765759   -5.5766394    4463.8619            2 
  522000    1.4420718   -5.6034287    4467.6002            1 
  523000    1.3907468   -5.5559201    4460.0426            2 
  524000     1.439479   -5.6352343    4453.6902            2 
  525000    1.4532894   -5.5701233    4463.2493            2 
  526000    1.4086166   -5.5837065      4451.03            4 
  527000     1.429483   -5.5481468    4464.1806            1 
  528000    1.4158104   -5.5587873    4484.5603            2 
  529000    1.3807387   -5.6096536    4480.8283            2 
  530000    1.3860345   -5.5913228    4443.8862            2 
  531000    1.4162353   -5.6208575     4461.687            1 
  532000    1.3943429   -5.5616533    4506.1915            3 
  533000    1.4500697   -5.5480841    4467.9494            2 
  534000    1.4336927   -5.5729453    4456.6812            4 
  535000    1.4625542   -5.5883647    4451.0843            4 
  536000    1.4205701   -5.5516228     4480.991            5 
  537000    1.4126164   -5.5878363    4475.5032            2 
  538000    1.4248083   -5.5878388    4472.8324            2 
  539000    1.3934119   -5.5807295    4474.8068            7 
  540000    1.3955796   -5.5468798    4503.5093            1 
  541000    1.4358455   -5.5277018    4491.7068            2 
  542000    1.4120557   -5.5886748    4501.1702            2 
  543000    1.4103836    -5.599934    4458.9654            2 
  544000    1.3809824   -5.5597984    4456.3404            3 
  545000    1.4177813   -5.5896521    4485.0258            1 
  546000    1.4206668   -5.5897743    4477.3157            2 
  547000    1.4402506   -5.6012609    4474.1395            3 
  548000     1.391419   -5.5870969    4482.2828            1 
  549000    1.3917302   -5.6065175    4463.0749            4 
  550000    1.3913212   -5.5899927    4473.0699            4 
  551000    1.4446655   -5.6071203    4466.7688            2 
  552000    1.4358014   -5.5733986    4463.6568            3 
  553000    1.3981386   -5.5451307    4469.8622            2 
  554000    1.4422548   -5.5750058    4473.3521            4 
  555000    1.4449169   -5.4955163    4497.5137            3 
  556000    1.4139776    -5.594311    4457.3747            1 
  557000    1.3978856   -5.5928289    4489.0998            3 
  558000    1.4238512   -5.5142904    4483.0035            2 
  559000    1.3995725   -5.5870189    4466.3997            2 
  560000    1.4522923   -5.5418456    4477.5929            1 
  561000    1.4075657   -5.5800534    4450.1155            5 
  562000    1.4258162    -5.550317    4459.1525            2 
  563000    1.4072195   -5.5974631    4454.3787            3 
  564000    1.4073777   -5.5534042    4475.2305            3 
  565000    1.4290944    -5.536795    4484.7088            2 
  566000    1.3958882   -5.6101669    4478.9387            2 
  567000    1.4036717   -5.6236004    4454.1265            3 
  568000    1.4066423   -5.5771594     4472.481            3 
  569000    1.3938908   -5.6171005    4485.4469            5 
  570000    1.4252638   -5.5447399    4498.5872            3 
  571000    1.3916662   -5.5894099    4477.2739            2 
  572000     1.443788   -5.5430075    4474.6088            2 
  573000    1.4328305   -5.5694878    4466.1807            3 
  574000     1.414923   -5.5653265    4485.7492            1 
  575000    1.4563659   -5.6024293    4453.0435            2 
  576000    1.4135059     -5.59062    4484.9811            2 
  577000    1.4009417   -5.5610598    4486.2618            1 
  578000    1.4237834   -5.5425325    4464.7952            4 
  579000    1.4252468   -5.5432744    4503.4034            2 
  580000    1.4174415   -5.6074235    4478.2311            2 
  581000    1.3996768   -5.5765345    4465.2846            3 
  582000    1.4125381    -5.603497    4477.5667            4 
  583000     1.440016   -5.5976453    4465.7144            4 
  584000    1.4281669   -5.5455508     4472.794            2 
  585000    1.4217168   -5.5687269    4466.7483            2 
  586000    1.3756709   -5.5672894    4486.8389            2 
  587000    1.4209591   -5.6353662    4455.8596            3 
  588000    1.4199014   -5.5619222    4463.5469            1 
  589000    1.4304576   -5.5640838    4480.8439            3 
  590000    1.3949028   -5.6015782    4454.7176            1 
  591000    1.3848086   -5.5463778    4470.1707            5 
  592000    1.4427602   -5.5982528     4463.849            2 
  593000    1.4236533   -5.5510981    4474.9629            2 
  594000    1.4482086    -5.578323    4467.4557            3 
  595000    1.4022659   -5.5589158    4462.9529            2 
  596000    1.4490018   -5.5768154    4450.6128            2 
  597000     1.427824   -5.5833215    4470.8947            1 
  598000    1.4350026   -5.5704436    4450.9167            1 
  599000    1.4155184   -5.6031384    4463.1542            3 
  600000    1.4234326   -5.5247016    4465.2939            3 
  601000    1.4123767   -5.5412744    4472.8267            1 
  602000     1.438053   -5.5686542    4472.7663            1 
  603000    1.4204458   -5.5555596    4452.7156            2 
  604000     1.440727   -5.5919408    4490.1401            1 
  605000    1.4225869    -5.562962    4479.0689            4 
  606000    1.4303129   -5.6210326    4476.3411            2 
  607000    1.4132035     -5.58605    4466.8534            1 
  608000    1.4201901   -5.6180405    4463.7405            3 
  609000    1.4308623   -5.5756747    4462.2893            1 
  610000    1.4204267   -5.6079774    4463.6514            6 
  611000    1.4210212   -5.5690394    4479.7042            2 
  612000    1.4099806   -5.5489225    4479.3784            2 
  613000    1.4390096   -5.5522436    4477.1245            3 
  614000     1.395636   -5.5647462    4480.3934            2 
  615000    1.3962529   -5.5718137     4482.295            2 
  616000    1.4106078   -5.5971775    4482.4535            2 
  617000    1.3960558   -5.5771157    4471.2633            3 
  618000    1.3716951    -5.563383    4485.2914            4 
  619000    1.4151556   -5.6225786    4467.0757            3 
  620000    1.4241365   -5.5705659    4502.0193            3 
  621000    1.4123003   -5.5491119    4488.8463            1 
  622000    1.4349411   -5.5677734    4482.8836            1 
  623000    1.3973937   -5.5686158    4480.8646            4 
  624000    1.3852371   -5.5458702    4463.9664            3 
  625000    1.4141396   -5.5575668    4471.6746            2 
  626000    1.4318957    -5.583004    4498.0372            3 
  627000    1.4348409   -5.6016545    4478.1167            2 
  628000    1.4430253   -5.5716606    4465.9151            5 
  629000    1.4023479   -5.5790579    4463.0096            2 
  630000    1.4504336   -5.5902086    4441.4289            1 
  631000    1.4155045   -5.5933382    4461.8776            1 
  632000    1.4406808   -5.5554285    4461.5502            2 
  633000    1.4451445   -5.5718001    4484.4104            2 
  634000    1.4109084   -5.5515492    4488.0452            1 
  635000    1.4604128   -5.5977439    4472.0096            2 
  636000    1.4176887   -5.6350274    4459.7237            2 
  637000     1.393651   -5.5802323    4452.7822            2 
  638000    1.4037446   -5.5655881    4472.3471            3 
  639000    1.4402518   -5.5305771    4490.5611            3 
  640000    1.3964733   -5.5391314    4477.5401            2 
  641000    1.4418477   -5.5784183    4465.4188            2 
  642000    1.3998013   -5.5819319    4473.4707            2 
  643000    1.4230125   -5.5631295    4485.3068            5 
  644000    1.3990007    -5.558917    4465.4409            2 
  645000    1.4465257   -5.5824517    4477.1894            2 
  646000    1.4239358   -5.5876831    4466.0733            3 
  647000    1.3974373   -5.5884329    4467.5458            8 
  648000    1.4276796   -5.5506373    4483.0697            1 
  649000    1.4025147   -5.5889216    4465.5247            2 
  650000     1.409716   -5.6099493    4487.1202            2 
  651000    1.4198963   -5.6015718     4474.395            2 
  652000    1.4020717   -5.5850579    4459.5383            2 
  653000    1.4258965   -5.5866064    4484.3774            3 
  654000    1.4216981    -5.590386    4463.7418            2 
  655000    1.4257922   -5.5486448     4463.732            2 
  656000    1.4248817   -5.5501559    4486.9015            2 
  657000    1.4144265   -5.5824009    4473.3009            1 
  658000     1.430719   -5.5667795    4474.2089            2 
  659000    1.4142117   -5.5473659    4455.8152            1 
  660000    1.4106137   -5.5830094    4465.9956            2 
  661000    1.4424983   -5.5904588    4447.7434            6 
  662000    1.4002349   -5.5494742    4469.9042            2 
  663000     1.409093   -5.5471048    4486.7681            3 
  664000    1.4563754   -5.5599605    4485.4696            2 
  665000    1.4140196   -5.6041409    4466.8722            2 
  666000    1.4441764   -5.5874634    4466.2719            1 
  667000    1.4460066   -5.5660158    4484.0233            4 
  668000    1.4282605   -5.5870106    4480.4452            3 
  669000    1.3922794   -5.5747128    4489.9416            3 
  670000    1.4238467   -5.5646982    4489.3452            1 
  671000    1.4058919   -5.5433454    4456.8961            5 
  672000    1.4184027   -5.5763091    4476.1045            2 
  673000     1.404506   -5.5706939    4456.6596            2 
  674000    1.4393428   -5.5878331    4443.8836            3 
  675000    1.4412678   -5.5697223    4469.8077            1 
  676000     1.456181   -5.5495728    4486.7752            2 
  677000    1.4361031   -5.6152455    4480.9697            4 
  678000    1.4235778   -5.5956155    4493.5815            5 
  679000    1.4271649   -5.5626385    4467.8299            2 
  680000    1.4123743    -5.583118     4489.528            2 
  681000    1.4439796   -5.5734066    4436.0185            4 
  682000    1.4101093   -5.5339919    4474.4275            3 
  683000    1.4087086   -5.5669454    4457.2536            1 
  684000     1.424532   -5.5925717    4459.1819            2 
  685000    1.4068789   -5.5835337    4467.3319            2 
  686000    1.4410127   -5.5578461    4466.5141            2 
  687000    1.4387863   -5.5893746    4447.0751            1 
  688000    1.4281203   -5.5553632    4465.8624            3 
  689000    1.4740589    -5.583226    4464.7371            5 
  690000    1.4274625   -5.5694628    4474.5284            1 
  691000    1.4179188    -5.595303    4481.2218            3 
  692000    1.4353382   -5.5617172    4497.7572            2 
  693000    1.4285758   -5.5428587    4455.2773            2 
  694000    1.4308551   -5.5740827    4471.0663            3 
  695000    1.4219751   -5.5812252    4448.8357            2 
  696000    1.4189062   -5.6203676    4441.3997            1 
  697000    1.4151448   -5.5783276    4457.6975            3 
  698000    1.4458586   -5.5928297     4477.563            7 
  699000    1.4273632   -5.5195072    4504.0287            1 
  700000    1.4493475   -5.5646308    4489.8107            1 
  701000    1.4671257   -5.5510127    4495.1717            1 
  702000    1.4305192   -5.5374195    4478.6628            1 
  703000    1.4272376   -5.6000936     4479.441            4 
  704000    1.4288184   -5.5769314    4477.5271            2 
  705000    1.4040599   -5.5510233    4482.1303            6 
  706000    1.3900378   -5.6134241    4469.8984            2 
  707000    1.4087849   -5.5893998    4470.4408            3 
  708000     1.393751   -5.6000562    4463.2091            3 
  709000    1.4010609   -5.5488014    4479.0409            1 
  710000     1.412847   -5.5998478    4453.1354            1 
  711000     1.381932   -5.5506106    4478.0557            1 
  712000     1.405115   -5.5473912    4476.5898            3 
  713000     1.411055   -5.5728973    4473.2263            2 
  714000    1.4019157   -5.5569627    4484.3603            2 
  715000    1.4233711   -5.5209063    4480.6291            5 
  716000      1.40716   -5.5878777    4475.1297            3 
  717000    1.4161005    -5.627449    4492.8365            1 
  718000    1.4109262   -5.5603483    4470.1664            6 
  719000    1.4296747   -5.5717914    4484.8087            2 
  720000    1.3986022   -5.5844737    4480.4596            1 
  721000    1.4278611   -5.5609689    4474.3435            5 
  722000    1.4247592   -5.5716846    4461.0823            3 
  723000    1.4162779   -5.5660093    4478.4366            2 
  724000    1.4071814   -5.5904321    4449.0752            1 
  725000     1.435675   -5.5629758    4475.6252            1 
  726000    1.3862136   -5.6126662    4449.5843            3 
  727000    1.4342355   -5.5296172    4495.6352            1 
  728000    1.4262807   -5.5538595    4472.7223            2 
  729000    1.4052444   -5.5672571    4489.9583            5 
  730000    1.3923827   -5.5794759    4463.0594            2 
  731000    1.4145559   -5.6020843    4446.8172            1 
  732000    1.4192744   -5.5483544    4481.6757            2 
  733000    1.4021501   -5.6063955    4468.5331            2 
  734000    1.4248652    -5.568276    4513.4686            1 
  735000    1.3864694   -5.5752862    4482.3922            1 
  736000    1.4177916   -5.5775015    4492.6849            1 
  737000    1.4247601   -5.5691752    4473.1952            4 
  738000    1.4096106   -5.6006211    4460.1701            2 
  739000    1.4172691   -5.5915378    4455.5059            2 
  740000    1.4408819   -5.5684601    4486.0171            2 
  741000    1.4265822   -5.5512106    4472.7641            3 
  742000     1.416028   -5.5841975    4464.3049            1 
  743000    1.4212405   -5.5946612     4459.835            2 
  744000    1.4245501   -5.5933632    4467.9225            4 
  745000    1.3989589    -5.548512    4496.6746            2 
  746000    1.4193288   -5.5787717    4475.2224            5 
  747000    1.4427151   -5.5911994    4439.6383            2 
  748000    1.4391302   -5.4989605    4468.0798            3 
  749000    1.4242499   -5.5420668    4477.1336            2 
  750000    1.4131224   -5.6035719     4466.136            3 
  751000    1.4383464   -5.5899821     4457.898            3 
  752000    1.4473498   -5.6046399     4453.645            1 
  753000    1.4138912   -5.5946886    4473.5167            1 
  754000    1.4145472   -5.5835961    4467.4168            6 
  755000    1.4398699   -5.5636302    4480.5472            1 
  756000    1.4547359   -5.5365011    4463.9665            1 
  757000    1.3976492   -5.5596387    4461.0929            2 
  758000    1.4371379   -5.6023402    4469.2162            2 
  759000    1.4050053    -5.582994    4465.4039            3 
  760000    1.3864315   -5.5597642    4466.1605            3 
  761000    1.4355782   -5.5712887    4453.6944            5 
  762000    1.4133427    -5.558245    4489.9587            1 
  763000     1.403433   -5.6052866    4462.1343            4 
  764000    1.4228859   -5.5816028    4463.4071            2 
  765000    1.4205792   -5.6000229    4443.9636            2 
  766000    1.4359716   -5.5729895    4469.1909            3 
  767000    1.4470052   -5.5106111    4484.6587            2 
  768000    1.4307396   -5.5570288    4477.8832            1 
  769000    1.4534044   -5.6111288    4460.3915            3 
  770000    1.4114731    -5.590215    4465.4063            2 
  771000    1.4025359   -5.5552771    4485.9538            3 
  772000    1.4250481   -5.5779975    4476.5115            1 
  773000    1.3882647   -5.6034377    4457.9873            2 
  774000    1.4305474   -5.5741441    4479.1801            2 
  775000    1.4153664   -5.6234115    4442.9909            3 
  776000    1.4079801   -5.5689532    4469.2072            2 
  777000    1.4233253    -5.568627     4455.026            1 
  778000     1.414837   -5.5452457    4487.8378            4 
  779000    1.4161861   -5.5380242    4502.7798            2 
  780000    1.4271036   -5.5693765    4464.4818            1 
  781000    1.3974031   -5.5471255    4475.5337            4 
  782000    1.4062983   -5.5479212    4490.2485            4 
  783000    1.3879935   -5.5657867    4485.7623            2 
  784000    1.4411977   -5.5469102    4487.4424            1 
  785000     1.421994     -5.59263    4483.5372            5 
  786000    1.4286851   -5.6041915     4455.118            1 
  787000    1.4084882   -5.5693465    4503.9697            5 
  788000    1.4385956   -5.5171947    4496.4607            2 
  789000    1.4053342   -5.5655901    4479.1415            4 
  790000    1.4494745   -5.5730211    4476.8225            1 
  791000    1.4373082   -5.5497678    4512.7441            2 
  792000    1.3973493   -5.5334562    4495.3158            1 
  793000    1.4235253    -5.573977    4475.7275            2 
  794000    1.4009159    -5.525398    4484.3297            3 
  795000    1.4168294   -5.5915368     4461.358            2 
  796000    1.4679193   -5.5415129    4487.6212            1 
  797000    1.4372663   -5.5628186    4490.2325            3 
  798000     1.421855   -5.5782139    4473.0285            2 
  799000    1.4154246   -5.5975515    4453.5887            1 
  800000    1.4329315   -5.5492068    4483.1341            2 
  801000    1.4188206   -5.5998529    4456.9413            2 
  802000    1.4021035   -5.5627047    4492.5613            1 
  803000    1.4084638   -5.5780837    4472.5478            3 
  804000    1.4526541   -5.5670119    4499.7935            1 
  805000    1.4006933   -5.5737971    4478.0452            3 
  806000    1.4364516   -5.5988657    4477.9848            1 
  807000    1.4376738   -5.5204867    4476.8468            3 
  808000    1.4215238   -5.5359974    4470.9745            2 
  809000    1.4659586   -5.5680246    4504.1586            1 
  810000     1.409896   -5.5888709    4474.8296            3 
  811000    1.4496393   -5.5715155    4474.5486            1 
  812000    1.4318689    -5.578903    4481.7559            1 
  813000    1.4293684   -5.5942581    4486.6366            2 
  814000    1.4225209   -5.5701711    4498.8172            2 
  815000    1.4247762   -5.5274027    4498.4064            3 
  816000    1.4052386   -5.5524849    4444.6604            2 
  817000    1.4685599   -5.5889063    4484.1486            1 
  818000    1.4257557   -5.6126581    4453.0416            3 
  819000    1.4297011   -5.5829735     4462.567            1 
  820000    1.4333382   -5.5765414    4463.5883            2 
  821000    1.4115796   -5.6153904    4462.5541            2 
  822000    1.4267116   -5.5535868    4457.6981            2 
  823000    1.4578188   -5.5706607    4459.6076            1 
  824000    1.4403518   -5.5616552    4461.0208            2 
  825000    1.4341011   -5.5727936    4473.7911            3 
  826000    1.4057174    -5.621461    4468.3764            1 
  827000    1.4206618   -5.6187385    4472.4385            4 
  828000    1.4127301   -5.5714699    4454.8098            3 
  829000    1.4133132   -5.5738873    4480.4263            4 
  830000     1.406838   -5.5925436    4457.0782            1 
  831000    1.4441068   -5.5671142     4468.674            2 
  832000    1.4050873   -5.5945936    4469.2515            4 
  833000     1.429019   -5.5990119    4465.6024            2 
  834000    1.4168783   -5.5806421    4490.6061            4 
  835000    1.3974471   -5.5572546    4466.3069            2 
  836000    1.4403515   -5.5672401    4470.8858            1 
  837000    1.4450592   -5.5894031    4467.3228            2 
  838000    1.3927413   -5.5889497    4441.8976            3 
  839000    1.4243913   -5.5559513     4474.203            2 
  840000    1.4444142   -5.6006879    4460.6489            4 
  841000    1.4252704   -5.6005261    4462.0334            3 
  842000    1.4072953   -5.5686258    4454.8022            2 
  843000    1.4114477   -5.5433883    4519.8039            5 
  844000    1.4341786   -5.5832153      4492.07            3 
  845000    1.4626972   -5.5782094     4470.406            5 
  846000    1.4182703   -5.6085687    4466.8701            3 
  847000      1.40751   -5.5427215    4474.5515            1 
  848000    1.4049138   -5.5889673     4463.232            4 
  849000    1.3990848   -5.5492057    4451.7636            1 
  850000    1.4085071   -5.5550885    4456.1682            3 
  851000    1.4070212   -5.5713908    4472.5542            4 
  852000    1.4256823   -5.5683442    4462.9049            1 
  853000    1.4465034   -5.5479503      4491.55            4 
  854000    1.4016496   -5.5800248    4478.0746            1 
  855000    1.4268894   -5.5879298     4480.023            1 
  856000    1.4014873   -5.5173602    4483.6966            4 
  857000    1.4321275   -5.5615977    4491.6434            2 
  858000    1.4065893   -5.5841806    4484.7933            2 
  859000      1.44682   -5.5921769    4457.9837            2 
  860000    1.4401531    -5.572417    4484.1926            2 
  861000    1.4341755   -5.5665111    4485.9838            4 
  862000    1.4435569   -5.5946059    4476.3462            3 
  863000    1.4111987   -5.5964978    4468.6751            2 
  864000    1.4195504   -5.6062985    4462.2737            3 
  865000    1.4227702   -5.5857009    4456.3842            2 
  866000    1.4136869   -5.5823622    4482.3011            4 
  867000    1.4224595   -5.5980914    4489.3335            3 
  868000    1.3850563   -5.5543348    4483.7071            2 
  869000    1.4023427   -5.5809993    4463.3891            2 
  870000    1.4341449   -5.5910689    4471.0057            2 
  871000    1.4002176   -5.5296969    4462.7749            2 
  872000    1.4161717   -5.5844166    4458.2554            5 
  873000    1.4122072   -5.5969646    4459.3474            3 
  874000    1.4200852   -5.6094036    4430.7843            1 
  875000    1.3863497   -5.5452442    4471.2117            2 
  876000    1.4551212    -5.519032    4487.3831            5 
  877000    1.4499913   -5.5639359    4487.5933            2 
  878000    1.4095361    -5.580574     4460.824            2 
  879000    1.4203837   -5.5701198    4477.4275            4 
  880000    1.4509203   -5.6191383    4470.5549            2 
  881000    1.4170987   -5.5696352    4466.8648            3 
  882000    1.4212738   -5.5650145    4480.5444            2 
  883000    1.4419815   -5.5831678    4467.2124            1 
  884000    1.4541873   -5.5765996    4487.2312            3 
  885000    1.4296411   -5.5774867    4474.8248            3 
  886000    1.4071227   -5.5936342    4472.8514            3 
  887000    1.4123254   -5.5694419    4464.0973            2 
  888000    1.4093623   -5.5412432    4494.8974            2 
  889000    1.4071155   -5.5774655    4466.4174            2 
  890000    1.4043891   -5.5731846    4457.0376            3 
  891000    1.4000557   -5.5981905    4475.5459            2 
  892000     1.401216   -5.5907116    4483.0844            4 
  893000    1.4152857    -5.585846    4485.6482            2 
  894000    1.4286289   -5.5490826    4477.2183            4 
  895000    1.4707845   -5.5995205    4468.0006            3 
  896000    1.4177141    -5.575518    4476.4993            4 
  897000    1.4324663   -5.5479469    4485.1069            6 
  898000    1.4444647   -5.5625773     4455.718            2 
  899000    1.3876724   -5.5582784    4473.1538            2 
  900000    1.4185288   -5.5956988    4449.5359            2 
  901000    1.4214198   -5.5760298    4492.7198            1 
  902000    1.4104055   -5.5864187    4470.5166            1 
  903000     1.449918   -5.5872522    4494.2574            1 
  904000    1.4215882   -5.6006863     4467.746            2 
  905000    1.4016733   -5.5610126    4471.8294            3 
  906000    1.3937788    -5.578902    4481.2079            2 
  907000    1.4241108   -5.5685676    4455.0693            1 
  908000    1.4202242   -5.5793005    4469.5764            2 
  909000    1.4140487    -5.586897    4484.3281            2 
  910000    1.4270557   -5.5494074    4499.4993            1 
  911000     1.407337   -5.6041401     4466.427            4 
  912000     1.413126   -5.5909097    4474.7964            2 
  913000    1.4300223   -5.5937142    4472.7724            2 
  914000    1.4372942   -5.5525432    4482.6844            2 
  915000    1.4262384   -5.5687567    4483.2291            1 
  916000    1.4413637   -5.5820379    4485.8614            2 
  917000    1.4106735   -5.5511643    4501.7308            1 
  918000    1.4047984   -5.6376721    4466.0245            2 
  919000    1.4250598   -5.5580863    4480.6042            2 
  920000    1.4314585   -5.5502429     4476.767            1 
  921000    1.4382513   -5.5942031    4466.2992            4 
  922000    1.4114141    -5.564653    4458.4526            4 
  923000     1.435139   -5.5885006    4468.2281            2 
  924000    1.4292713   -5.5792283    4489.1261            2 
  925000    1.4519532   -5.5407819    4453.5526            2 
  926000    1.4306056   -5.5947183    4457.3992            2 
  927000    1.4110596   -5.5727999    4463.7031            3 
  928000    1.4079738   -5.5936362    4466.3234            1 
  929000    1.4190027   -5.6113824     4458.095            3 
  930000    1.4466324   -5.5578177    4460.1456            1 
  931000    1.4325962   -5.6011985    4460.3321            3 
  932000    1.4218072   -5.6036374    4451.6573            2 
  933000    1.4103905   -5.5668993    4462.7628            2 
  934000    1.4092515   -5.6048841    4460.6901            2 
  935000    1.4260528   -5.5730426    4494.4499            3 
  936000     1.430308   -5.6048515    4486.2751            3 
  937000    1.4406553   -5.5546147    4481.0983            1 
  938000    1.4296248   -5.5857039    4492.7469            2 
  939000    1.4197675   -5.5874088    4456.8978            2 
  940000     1.418737   -5.5879834    4460.5785            3 
  941000    1.4239423   -5.5913839    4481.5882            3 
  942000    1.4222058   -5.5488191    4467.7144            1 
  943000    1.4006642   -5.5665537    4473.9737            1 
  944000    1.4060475   -5.5549746    4466.2951            2 
  945000    1.4076096   -5.5826167    4475.6616            3 
  946000    1.4140834   -5.5728152    4471.1441            4 
  947000    1.4193836   -5.6209513    4476.5337            2 
  948000    1.4458669   -5.5659883    4486.5887            3 
  949000    1.4247981   -5.5888889    4475.2225            2 
  950000    1.4088901   -5.6010359    4459.5431            2 
  951000     1.436216   -5.5235748     4485.417            1 
  952000    1.4318745   -5.5693893    4474.9142            2 
  953000    1.4144398   -5.5650735    4490.1197            2 
  954000    1.4354794   -5.6153833    4432.6196            3 
  955000    1.4105503   -5.5621066    4474.7937            1 
  956000    1.4254568    -5.632847    4460.7337            2 
  957000    1.4281542   -5.5894659    4466.7364            4 
  958000    1.4215862   -5.5846589    4475.1995            2 
  959000    1.3948811   -5.5594081    4468.8413            2 
  960000    1.4100464   -5.5783008    4500.6865            4 
  961000    1.4115121   -5.5820266    4466.5402            3 
  962000    1.4246062   -5.5609838    4479.1305            3 
  963000    1.4483767   -5.5497496    4458.1336            4 
  964000    1.4474668   -5.6441485    4451.5097            3 
  965000    1.4114435   -5.5792343    4462.4899            2 
  966000    1.4366069    -5.555916    4472.9015            2 
  967000     1.422027   -5.5804223    4469.8888            2 
  968000    1.4097753   -5.5808047     4486.609            5 
  969000    1.3860876   -5.5911762     4481.739            1 
  970000     1.446213   -5.6002614    4469.1492            1 
  971000    1.4314353   -5.5887366    4469.9576            2 
  972000    1.4404716   -5.5748938    4471.6145            4 
  973000    1.4381625   -5.5734534    4462.6193            2 
  974000     1.434689   -5.6006407    4474.4294            3 
  975000    1.3900657   -5.5623237    4486.7365            5 
  976000    1.3890012   -5.5092675     4484.546            4 
  977000    1.4028723   -5.6016327    4481.2899            4 
  978000    1.4258469   -5.6056998    4473.8184            2 
  979000    1.4058392   -5.6053899    4462.2558            1 
  980000    1.4413668   -5.5848119    4476.4123            1 
  981000    1.4162319   -5.5960591    4495.8864            2 
  982000    1.4472792   -5.5759795    4475.4441            1 
  983000    1.4066203   -5.5508089     4488.986            3 
  984000    1.4242336   -5.5476743    4497.0342            2 
  985000    1.4176187   -5.5905257    4462.8162            4 
  986000    1.4081851    -5.563443    4462.6287            3 
  987000    1.4089506   -5.6056376    4458.7857            2 
  988000    1.4385258   -5.6164132     4459.453            3 
  989000    1.4181328   -5.5955351    4475.9968            1 
  990000    1.4162323   -5.5578812    4474.4062            1 
  991000    1.4013888    -5.571024    4474.5088            2 
  992000    1.4447998   -5.5608838    4470.2865            2 
  993000    1.4241416   -5.5453832    4481.5563            6 
  994000     1.396577   -5.5657877    4478.8186            3 
  995000    1.4266964   -5.5567387    4475.7545            4 
  996000    1.4538396   -5.5932244    4455.1873            1 
  997000    1.4160866   -5.5443362    4496.6463            4 
  998000    1.4376135   -5.5693858    4481.8355            2 
  999000      1.39852   -5.5231843    4480.6099            2 
 1000000     1.423318   -5.6053016    4470.5913            3 
 1001000    1.4045086    -5.578126    4475.1137            2 
 1002000     1.400459   -5.5558539    4494.8054            1 
 1003000    1.3964549   -5.5659099    4490.8903            1 
 1004000    1.4499454   -5.5749044    4475.0413            5 
Loop time of 2023.15 on 48 procs for 1000000 steps with 4000 atoms

Performance: 85411.306 tau/day, 494.278 timesteps/s
99.4% CPU use with 48 MPI tasks x no OpenMP threads

MPI task timing breakdown:
Section |  min time  |  avg time  |  max time  |%varavg| %total
---------------------------------------------------------------
Pair    | 113.8      | 118.81     | 125.82     |  23.5 |  5.87
Neigh   | 17.45      | 17.618     | 17.929     |   2.4 |  0.87
Comm    | 109.6      | 116.63     | 122.17     |  28.7 |  5.76
Output  | 1.1724     | 1.1734     | 1.1896     |   0.2 |  0.06
Modify  | 1745.1     | 1753.6     | 1760.2     |   9.1 | 86.67
Other   |            | 15.37      |            |       |  0.76

Nlocal:        83.3333 ave          92 max          77 min
Histogram: 4 1 10 3 13 6 7 3 0 1
Nghost:        1520.85 ave        1540 max        1508 min
Histogram: 5 8 5 8 6 6 3 2 2 3
Neighs:        8503.02 ave        9483 max        7754 min
Histogram: 3 2 9 7 9 7 7 1 2 1
FullNghs:      16972.2 ave       18806 max       15609 min
Histogram: 4 5 4 10 6 9 7 2 0 1

Total # of neighbors = 814666
Ave neighs/atom = 203.66650
Neighbor list builds = 70816
Dangerous builds = 22

#clear
#
#next RN
#
#jump SELF
Total wall time: 0:33:44
