
units lj                  # Use reduced LJ style units
atom_style atomic         # Uncharged point particles
atom_modify map hash      # Needed for indexing of clusters etc
                          # Used to be able to find where atoms are in relation to each other.

lattice fcc 1.0 spacing 1 1 1
Lattice spacing in x,y,z = 1.5874011 1.5874011 1.5874011
region box block 0 10 0 10 0 10 units lattice
create_box 2 box
Created orthogonal box = (0.0000000 0.0000000 0.0000000) to (15.874011 15.874011 15.874011)
  3 by 4 by 4 MPI processor grid
create_atoms 1 box
Created 4000 atoms
  using lattice units in orthogonal box = (0.0000000 0.0000000 0.0000000) to (15.874011 15.874011 15.874011)
  create_atoms CPU = 0.003 seconds
set type 1 type/fraction 2 0.73 78393
Setting atom values ...
  2936 settings made for type/fraction
mass 1 1.0
mass 2 1.0
pair_style lj/cut  3.5
pair_modify tail  yes
pair_coeff 1  1  1.0  1.0   # Intearaction between 1 and 1 set with epsilon = 1 and sigma = 1
pair_coeff 1  2  1.5  0.8
pair_coeff 2  2  0.5  0.88

write_data data.0
System init for write_data ...
Neighbor list info ...
  update every 1 steps, delay 10 steps, check yes
  max neighbors/atom: 2000, page size: 100000
  master list distance cutoff = 3.8
  ghost atom cutoff = 3.8
  binsize = 1.9, bins = 9 9 9
  1 neighbor lists, perpetual/occasional/extra = 1 0 0
  (1) pair lj/cut, perpetual
      attributes: half, newton on
      pair build: half/bin/atomonly/newton
      stencil: half/bin/3d
      bin: standard
WARNING: Not all mixed pair coeffs generated from mixing. Use write_data with 'pair ij' option to store all pair coeffs. (../write_data.cpp:312)


#############################
#   M E L T   S Y S T E M   #
#############################

velocity all create 2.4 6229865 mom yes dist gaussian # Assign velocities
                                                    # Temperature 2.4, random number seed, zero linear momentum
                                                                                # Gaussian distribution

timestep 0.002   # simulation timestep
thermo 1000       # output thermodynamic data every 1000 steps bf 100

# Define a fix  in this case with index 1 applied to all
# particles in the simulation. This fix is for simulations
# in the anisotropic NPT ensemble. Note that we use the MTK
# correction.
fix 1 all npt temp 2.4 2.4 0.1 iso 5.68 5.68 0.5 mtk yes tchain 5 pchain 5 # Use NPT ensemble
                                                                         # Set temperature and pressure and damping
                                                                         # Numbers of thermostats in chain and in barostat
run 10000          # run for 10000 steps
Per MPI rank memory allocation (min/avg/max) = 3.642 | 3.644 | 3.648 Mbytes
Step Temp E_pair E_mol TotEng Press Volume 
       0          2.4   -4.0230884            0  -0.42398835   -3.6147038         4000 
    1000    2.4011489   -3.6094339            0 -0.0086109301    5.7313635    3672.8999 
    2000     2.391132   -3.6181726            0 -0.032371202    5.4801955    3693.3365 
    3000    2.4259352   -3.5609721            0  0.077020965    5.7890133    3682.4234 
    4000    2.4287496   -3.5910492            0  0.051164427    5.8673774    3660.6361 
    5000    2.4588624   -3.5861037            0   0.10126776    5.4986017    3703.8672 
    6000    2.3751143   -3.5147474            0  0.047033425     5.255851     3755.293 
    7000    2.3516399   -3.5718014            0 -0.045223414    5.5792328    3690.5664 
    8000    2.4165367    -3.583995            0  0.039903735    5.5753045    3693.4638 
    9000    2.3949705   -3.5855372            0 0.0060204399    5.6266101    3686.7607 
   10000    2.4077745   -3.5585381            0  0.052220783    5.9429533    3667.5037 
Loop time of 2.63563 on 48 procs for 10000 steps with 4000 atoms

Performance: 655630.380 tau/day, 3794.157 timesteps/s
99.6% CPU use with 48 MPI tasks x no OpenMP threads

MPI task timing breakdown:
Section |  min time  |  avg time  |  max time  |%varavg| %total
---------------------------------------------------------------
Pair    | 1.1918     | 1.2615     | 1.3537     |   3.0 | 47.86
Neigh   | 0.21783    | 0.22443    | 0.23762    |   0.8 |  8.52
Comm    | 0.78931    | 0.8874     | 0.96135    |   4.0 | 33.67
Output  | 0.00025957 | 0.00026449 | 0.00033656 |   0.0 |  0.01
Modify  | 0.21446    | 0.24607    | 0.27971    |   3.1 |  9.34
Other   |            | 0.01593    |            |       |  0.60

Nlocal:        83.3333 ave          93 max          73 min
Histogram: 1 1 3 7 11 8 8 3 3 3
Nghost:        1742.94 ave        1765 max        1721 min
Histogram: 4 2 7 2 9 7 5 8 1 3
Neighs:        10414.0 ave       11865 max        8674 min
Histogram: 1 2 3 5 8 10 7 8 2 2

Total # of neighbors = 499874
Ave neighs/atom = 124.96850
Neighbor list builds = 903
Dangerous builds = 214

# Equilibrate just above the melting temperature to avoid step fn in T

fix 1 all npt temp 1.25 1.25 0.1 iso 5.68 5.68 0.5 mtk yes tchain 5 pchain 5
run 2000
Per MPI rank memory allocation (min/avg/max) = 3.644 | 3.646 | 3.649 Mbytes
Step Temp E_pair E_mol TotEng Press Volume 
   10000    2.4077745   -3.5585381            0  0.052220783    5.9429533    3667.5037 
   11000    1.2672057   -5.3066528            0   -3.4063195    5.7445143     2806.212 
   12000    1.2514849   -5.2781299            0   -3.4013719    5.4899897    2827.5558 
Loop time of 0.655025 on 48 procs for 2000 steps with 4000 atoms

Performance: 527613.109 tau/day, 3053.317 timesteps/s
99.6% CPU use with 48 MPI tasks x no OpenMP threads

MPI task timing breakdown:
Section |  min time  |  avg time  |  max time  |%varavg| %total
---------------------------------------------------------------
Pair    | 0.29586    | 0.32582    | 0.35276    |   2.2 | 49.74
Neigh   | 0.041525   | 0.043597   | 0.046609   |   0.6 |  6.66
Comm    | 0.20661    | 0.23565    | 0.27218    |   3.0 | 35.98
Output  | 5.3153e-05 | 5.4296e-05 | 7.1187e-05 |   0.0 |  0.01
Modify  | 0.040281   | 0.044852   | 0.048916   |   1.3 |  6.85
Other   |            | 0.005056   |            |       |  0.77

Nlocal:        83.3333 ave          93 max          73 min
Histogram: 1 2 3 4 6 12 11 6 2 1
Nghost:        2079.56 ave        2111 max        2054 min
Histogram: 1 5 9 4 8 10 8 1 0 2
Neighs:        13520.4 ave       15726 max       11800 min
Histogram: 5 3 7 5 9 5 8 5 0 1

Total # of neighbors = 648979
Ave neighs/atom = 162.24475
Neighbor list builds = 141
Dangerous builds = 13

#############################
# L I N E A R  Q U E N C H  #
#############################

# Define solid atoms. This closely follows ten Wolde  Ruiz-Montero and Frenkel  Faraday Discuss  1996  104  93-110
# Compute components of the per-atom q6 vector
compute q6 all orientorder/atom degrees 1 6 components 6 nnn NULL cutoff 1.3 # compute the Q6 parameter.
                                                                             # Use all neighbours within 1.3 unit cell.

# get number of connections
compute coord_number all coord/atom orientorder q6 0.5

# An atom is solid if it has 8 or more connections (of a possible 14)
variable is_solid atom c_coord_number>=8
group solid dynamic all var is_solid    # Must be dynamic to update
dynamic group solid defined

# do clustering
compute cluster solid cluster/atom 1.3 # Create a cluster where all atoms within are solid and max 1.3 units from another member

# define chunks one chunk per cluster
compute clus_chunks solid chunk/atom c_cluster nchunk every compress yes  # Says which atoms are in which chunk

# count the size of each chunk
compute size_chunks solid property/chunk clus_chunks count


# Find the maximum entry in the vector of chunk sizes
variable max_n equal max(c_size_chunks)


# Thermo style which includes this variable
# thermo_style custom step temp pe vol v_max_n

thermo ${N}  # Print the thermo information every 100 steps
thermo 1000  

# Reset the npt fix at a lower temperature (below freezing)
fix 1  all npt temp  ${temp} ${temp}  0.1  iso  5.68  5.68  0.5  mtk yes tchain  5  pchain  5
fix 1  all npt temp  0.45 ${temp}  0.1  iso  5.68  5.68  0.5  mtk yes tchain  5  pchain  5
fix 1  all npt temp  0.45 0.45  0.1  iso  5.68  5.68  0.5  mtk yes tchain  5  pchain  5

dump dmp2 all dcd ${N} traj.dcd
dump dmp2 all dcd 1000 traj.dcd


compute msd all msd com yes
variable twopoint equal c_msd[4]/6/(step*dt+1.0e-6)
fix 9 all vector 10 c_msd[4]
variable fit equal slope(f_9)/6/(10*dt)
thermo_style custom step temp pe c_msd[4] v_twopoint v_fit v_max_n

fix 1 all npt temp 1.25 ${temp} 0.1 iso 5.68 5.68 0.5 mtk yes tchain 5 pchain 5
fix 1 all npt temp 1.25 0.45 0.1 iso 5.68 5.68 0.5 mtk yes tchain 5 pchain 5
run 2000000 # 5000000  # Run for this many steps
Neighbor list info ...
  update every 1 steps, delay 10 steps, check yes
  max neighbors/atom: 2000, page size: 100000
  master list distance cutoff = 3.8
  ghost atom cutoff = 3.8
  binsize = 1.9, bins = 8 8 8
  4 neighbor lists, perpetual/occasional/extra = 1 3 0
  (1) pair lj/cut, perpetual
      attributes: half, newton on
      pair build: half/bin/atomonly/newton
      stencil: half/bin/3d
      bin: standard
  (2) compute orientorder/atom, occasional
      attributes: full, newton on
      pair build: full/bin/atomonly
      stencil: full/bin/3d
      bin: standard
  (3) compute coord/atom, occasional
      attributes: full, newton on
      pair build: full/bin/atomonly
      stencil: full/bin/3d
      bin: standard
  (4) compute cluster/atom, occasional
      attributes: full, newton on
      pair build: full/bin/atomonly
      stencil: full/bin/3d
      bin: standard
Per MPI rank memory allocation (min/avg/max) = 9.841 | 9.847 | 9.850 Mbytes
Step Temp PotEng c_msd[4] v_twopoint v_fit v_max_n 
   12000    1.2514849   -5.2781299 2.8406881e-30   1.9727e-32 8.3333333e+20            1 
   13000    1.2493433   -5.2567959   0.65415329 0.0041932902  0.054834465            1 
   14000    1.2564266   -5.2677787    1.3567966 0.0080761697  0.056241233            3 
   15000    1.2563076   -5.2295027    2.0287602   0.01127089  0.056051572            2 
   16000    1.2299424   -5.3228827    2.6008914  0.013546309   0.05516807            2 
   17000    1.2524981    -5.317825    3.2337957  0.015851939  0.054072277            4 
   18000     1.262118   -5.3330825    3.8838528    0.0179808  0.053648037            2 
   19000    1.2496923   -5.3407592    4.4269102  0.019416272  0.053270688            2 
   20000    1.2444692    -5.311403    5.2017642  0.021674017  0.053124851            3 
   21000    1.2452324   -5.3161405    5.8084675  0.023049474   0.05326946            2 
   22000    1.2547116   -5.3035641    6.4284349  0.024350132  0.053272465            3 
   23000    1.2420612   -5.3220822    6.9983729  0.025356423  0.053131858            2 
   24000    1.2434897    -5.327433    7.6765692  0.026654754  0.053030746            2 
   25000    1.2709439   -5.3235398    8.2881179  0.027627059  0.052852966            2 
   26000    1.2626843   -5.3203401    9.0372352  0.028965497  0.052991829            1 
   27000    1.2410098    -5.338233    9.7064511  0.029958182  0.053188173            4 
   28000    1.2208201   -5.2746566    10.328371  0.030739199  0.053281816            2 
   29000    1.2533837   -5.3060784    10.886406  0.031282775  0.053289144            2 
   30000    1.2662115   -5.3388214    11.369071  0.031580751  0.053165926            1 
   31000    1.2211103    -5.259593    12.137151  0.032626749  0.053007511            2 
   32000    1.2584659   -5.2755994     12.79545  0.033321485  0.052991911            1 
   33000    1.2787892   -5.2706957    13.549484  0.034215868  0.053018536            2 
   34000    1.2608784   -5.2989639    14.123478  0.034616368  0.053130268            1 
   35000    1.2403212   -5.3049378     14.82211  0.035290738  0.053164982            3 
   36000    1.2507319   -5.3204789    15.374689  0.035589557  0.053177409            3 
   37000     1.245405    -5.333199    16.065824  0.036184288  0.053213703            5 
   38000     1.240636   -5.3369902     16.64828  0.036509385  0.053227857            2 
   39000    1.2426759   -5.3612273    17.222308  0.036799804  0.053218534            1 
   40000    1.2710901   -5.3283624    17.854142  0.037196129  0.053183772            4 
   41000    1.2241019    -5.326039    18.489894  0.037581085    0.0531653            3 
   42000    1.2367539   -5.3323473      19.2605  0.038215277  0.053163729            3 
   43000    1.2274727   -5.2654717    19.924227  0.038612842   0.05320491            3 
   44000    1.2311068   -5.3159399    20.490842  0.038808412  0.053219914            2 
   45000    1.2604661   -5.3323209    21.249949  0.039351757  0.053270123            3 
   46000    1.2418591   -5.3013777    21.954069  0.039771864  0.053327826            3 
   47000    1.2254772   -5.3287527     22.49586  0.039886276  0.053346263            3 
   48000    1.2347341   -5.3313998    23.192374  0.040264537  0.053377317            2 
   49000    1.2126075   -5.3110935    23.786713  0.040453593  0.053398489            3 
   50000    1.2289842    -5.323262    24.363965  0.040606607  0.053398888            4 
   51000     1.241067   -5.3284133    24.921088  0.040720732  0.053402358            2 
   52000    1.2252236   -5.3000053    25.774997  0.041306084  0.053422622            1 
   53000    1.2386033   -5.3417696    26.220108  0.041226584  0.053418659            3 
   54000    1.2391625   -5.3116207    27.178036  0.041941414  0.053429554            1 
   55000    1.2445342    -5.369432    27.398047  0.041512192  0.053435074            2 
   56000    1.2175599   -5.2833152    28.192293  0.041952816  0.053411343            2 
   57000    1.2105198   -5.3217338      28.9283  0.042292837  0.053413834            2 
   58000    1.2374998   -5.3708431    29.366687  0.042193515  0.053427664            4 
   59000     1.211684   -5.3378292    30.067732  0.042468548  0.053400954            1 
   60000    1.2470421   -5.3295724    30.851847  0.042849788  0.053403543            3 
   61000    1.2195275   -5.3220923    31.445257  0.042958001  0.053401424            1 
   62000    1.2436672   -5.3849267    32.091014  0.043133083  0.053412468            2 
   63000    1.2416542   -5.3083868    32.972318  0.043614177  0.053433739            2 
   64000    1.2008444   -5.3281282    33.355584   0.04343175  0.053457167            2 
   65000    1.2322519   -5.3062538    34.114984  0.043737158  0.053462403            2 
   66000     1.228854    -5.374319    34.535789  0.043605794    0.0534697            3 
   67000    1.2275993    -5.337772    35.249273  0.043842379  0.053464198            2 
   68000    1.2410055   -5.3394135    35.739086  0.043797899  0.053473168            3 
   69000    1.2518794   -5.3204505    36.414385  0.043978726  0.053444847            3 
   70000     1.220753   -5.3473724    36.970129  0.044012058  0.053402566            2 
   71000    1.2207196   -5.3352266     37.47096  0.043979999  0.053361634            3 
   72000    1.2152757   -5.3313873    38.082274  0.044076705  0.053328049            3 
   73000    1.2448467    -5.361657    38.662908  0.044135739   0.05328417            1 
   74000    1.2421328   -5.3525277    39.287725  0.044242934  0.053235755            3 
   75000    1.2255433   -5.3412332    39.613669  0.044015188  0.053173854            3 
   76000    1.2276573   -5.3138205    40.380337  0.044276685  0.053102758            1 
   77000    1.2178093   -5.3360889    40.977072   0.04434748  0.053055086            2 
   78000    1.2375821   -5.3187684    41.707971  0.044559798  0.053004175            2 
   79000    1.2252074   -5.3511304    42.151783  0.044463906  0.052951791            3 
   80000    1.2029106   -5.4003563     42.40568  0.044172583  0.052875863            2 
   81000    1.2107425    -5.357186    43.057939  0.044298291  0.052794029            3 
   82000    1.2101944   -5.3282561    43.423688  0.044129764  0.052697393            5 
   83000    1.2292993   -5.3830318    44.052602   0.04422952    0.0525911            1 
   84000    1.2537154   -5.3507093    44.761235  0.044405987  0.052498772            2 
   85000    1.2099203   -5.3487444    45.412279  0.044521842  0.052421855            2 
   86000    1.2179172   -5.3345432    45.952578  0.044527692  0.052342111            3 
   87000    1.1860959   -5.3644367    46.408794  0.044452867  0.052262321            1 
   88000    1.1957902    -5.307688    47.276793   0.04476969  0.052188074            2 
   89000    1.1989448   -5.3486127    47.892791  0.044843437  0.052120926            4 
   90000     1.185348    -5.377891    48.187075  0.044617662  0.052054731            2 
   91000    1.2133773   -5.3691433    48.954788  0.044830391  0.051987318            3 
   92000    1.2330304   -5.3589999    49.621436  0.044946952  0.051932868            2 
   93000    1.2414094   -5.3705035    50.376523  0.045140253   0.05188751            2 
   94000    1.2081161   -5.3814655    51.025985  0.045235802  0.051851985            1 
   95000    1.2105485   -5.3185488    51.585759  0.045250666  0.051819017            3 
   96000    1.2186819   -5.3565616    51.996533   0.04513588  0.051781233            2 
   97000    1.2075202   -5.3626216    52.646377  0.045228846  0.051738871            2 
   98000    1.2085428   -5.3394639     53.07333  0.045130382  0.051690398            2 
   99000    1.2258402   -5.3385582    53.778963  0.045268487  0.051633448            3 
  100000    1.1860684   -5.3654658    53.854689  0.044878907  0.051565708            1 
  101000    1.1912873   -5.3684186    54.448807  0.044924758   0.05149377            3 
  102000    1.2076891   -5.3778429    54.963299  0.044904656  0.051424393            1 
  103000    1.2156587   -5.3799559    55.432756  0.044848508  0.051351804            1 
  104000    1.2265081   -5.4049056    55.649749  0.044591145  0.051267751            7 
  105000    1.1907009   -5.3551695     56.55142  0.044882079  0.051192205            3 
  106000    1.2126024   -5.3867672    56.769693  0.044630261  0.051113838            3 
  107000    1.2072738     -5.36853    57.417982  0.044718054  0.051032694            4 
  108000    1.2167339   -5.3228314     58.10476   0.04483392  0.050953069            3 
  109000     1.215733   -5.4185664    58.658505  0.044845952  0.050885627            4 
  110000    1.2231851    -5.401686    59.367932  0.044975706  0.050820984            3 
  111000    1.2219849   -5.4130377     59.83366  0.044920165  0.050750906            2 
  112000    1.1902864   -5.3514697    60.494987  0.045011151   0.05068865            4 
  113000    1.1988346   -5.4015838    60.948946    0.0449476  0.050627253            3 
  114000    1.2186935   -5.3854635    61.571269  0.045008238  0.050570701            2 
  115000    1.1954458   -5.3814367    62.120118  0.045014578  0.050510355            2 
  116000    1.2119459   -5.3956981    62.654004   0.04501006  0.050451623            1 
  117000    1.2015462   -5.3729805    63.541534  0.045257503  0.050402069            2 
  118000    1.2178751   -5.3739818    63.944106  0.045158267  0.050350557            2 
  119000    1.2027462   -5.3920322    64.455902  0.045137186  0.050300171            5 
  120000    1.2015066   -5.3642766     65.09286  0.045203375  0.050247637            3 
  121000    1.1944415   -5.3750094    65.428137    0.0450607   0.05019112            2 
  122000    1.1945049   -5.4208114    66.038671  0.045108382  0.050138589            6 
  123000    1.2130124   -5.4305756    66.529665  0.045074299  0.050090961            3 
  124000    1.2049747   -5.3591356    67.788525  0.045556805  0.050048974            2 
  125000    1.2016738   -5.3734437    68.139551  0.045426367   0.05001032            2 
  126000    1.1992534   -5.3995134    68.695989  0.045433855  0.049979507            2 
  127000    1.2198779   -5.4056379    69.122595  0.045356033  0.049940733            3 
  128000       1.2033   -5.3832855    69.833997  0.045464842  0.049902133            2 
  129000    1.2102381   -5.3948484    70.362184  0.045453607  0.049867718            2 
  130000    1.1856328   -5.4161032    70.577898  0.045242242  0.049829891            3 
  131000    1.1943691   -5.3817379    71.257985  0.045329507  0.049787018            1 
  132000    1.1810994    -5.406852    71.805264  0.045331606    0.0497453            3 
  133000    1.1965878   -5.3770466    72.675388  0.045535957  0.049710352            6 
  134000    1.2033346   -5.4031896    72.881041  0.045324031  0.049677508            2 
  135000    1.2072248    -5.388895    73.319451   0.04525892  0.049642931            3 
  136000    1.1951402   -5.4021508    74.421446  0.045601376  0.049611624            1 
  137000    1.2052838   -5.3810018    75.364469  0.045842134  0.049592923            2 
  138000    1.2182936   -5.3669893    75.778548  0.045759993   0.04957211            2 
  139000    1.1696374   -5.4031618    76.320309  0.045755581  0.049543918            2 
  140000    1.2194612   -5.4083749    76.379987  0.045464278  0.049515275            3 
  141000    1.2161924   -5.3906655    77.244498  0.045652777  0.049483742            2 
  142000    1.2006047   -5.4130046    77.796919  0.045655469  0.049457836            2 
  143000    1.2149302   -5.4276324    78.368381  0.045669219  0.049433326            3 
  144000    1.2012426    -5.374235    79.225373  0.045848017  0.049410883            1 
  145000     1.199184   -5.3741131    80.095038  0.046031631  0.049397839            2 
  146000    1.1768235   -5.3761746    80.634926  0.046024501  0.049389766            2 
  147000    1.2137021   -5.4006624    81.264813  0.046068488  0.049388732            2 
  148000    1.1799769   -5.4119845    82.169164  0.046266421  0.049391263            1 
  149000    1.1984004   -5.4151891    82.258242  0.046005728  0.049392236            2 
  150000    1.1965281   -5.4322245    83.181061    0.0462117  0.049390467            3 
  151000    1.1842514   -5.3954728    83.637099  0.046157339  0.049391193            5 
  152000    1.1751851    -5.392166    84.868474  0.046528768   0.04939096            2 
  153000     1.193734   -5.4021248    84.973169  0.046281682  0.049393299            2 
  154000    1.1857559    -5.365936    85.355594  0.046188092   0.04938705            3 
  155000    1.1879987   -5.3797645    85.747758  0.046100945  0.049377926            3 
  156000    1.2028812   -5.4403782    85.987398  0.045933439  0.049364118            3 
  157000    1.1655042   -5.4856937     86.56027  0.045944941  0.049351332            4 
  158000    1.1983813    -5.438435    87.601874   0.04620352  0.049337163            3 
  159000    1.1935339   -5.3782745    88.314698  0.046286529  0.049330125            2 
  160000    1.1982654   -5.4025268    88.879252  0.046291277  0.049323427            2 
  161000    1.1734055    -5.413594    89.669627   0.04641285   0.04931698            2 
  162000    1.2076421   -5.4226103    90.415101  0.046509826  0.049314955            2 
  163000    1.1729007   -5.3942505    91.160831  0.046605742  0.049315974            2 
  164000    1.1870289   -5.3849987     91.66947  0.046580015  0.049317548            2 
  165000    1.1906137   -5.3795959    92.308508  0.046620458  0.049320625            1 
  166000    1.1877253   -5.4442944    92.689328  0.046530787   0.04932397            2 
  167000    1.1908779   -5.4104593     93.59226  0.046702724  0.049326647            2 
  168000    1.1957773   -5.4041187     94.16482   0.04670874  0.049333623            2 
  169000      1.16828   -5.4342487    94.890513  0.046790194   0.04933891            2 
  170000    1.1580964   -5.4343011    94.967118  0.046552509   0.04934455            3 
  171000    1.1955561   -5.4106172    96.312004  0.046935674  0.049353905            2 
  172000     1.180742   -5.4221643    96.531016  0.046768903  0.049362937            2 
  173000    1.2030042   -5.4266905    97.039417  0.046743457  0.049364957            3 
  174000    1.1940811   -5.4435036    97.538369  0.046713778  0.049366221            3 
  175000    1.2096833   -5.4586957    97.599437  0.046475922  0.049362413            2 
  176000    1.1831925   -5.4095887    98.545932  0.046660006   0.04935931            3 
  177000    1.2040612   -5.4375865    98.833807  0.046531924  0.049355563            3 
  178000    1.1855693   -5.4425078    99.133844  0.046410975   0.04934722            1 
  179000    1.2007544   -5.4675458    99.657803  0.046395625  0.049336388            3 
  180000    1.1833378   -5.4017342    100.35986  0.046462897  0.049328628            5 
  181000    1.1652347   -5.4434004    101.28494  0.046632109  0.049322372            3 
  182000    1.1977749   -5.4591181    101.74914  0.046588433  0.049316616            1 
  183000    1.1628795   -5.4737448     102.5489   0.04669804  0.049311852            2 
  184000    1.1976972   -5.4338751    102.74172  0.046531578   0.04930611            3 
  185000    1.1733004   -5.4381889    103.35454  0.046556099  0.049295056            1 
  186000    1.1753604   -5.4603019    103.77564  0.046494462  0.049288122            1 
  187000    1.1895721    -5.440471    104.34042  0.046497515  0.049280284            6 
  188000    1.1753813   -5.4380702     105.2408  0.046649289  0.049273031            2 
  189000    1.1467251   -5.4431384    105.57297  0.046548927  0.049268547            1 
  190000    1.1852359   -5.4374785    106.30623  0.046625538  0.049261409            4 
  191000    1.1821949   -5.4245645    106.94325  0.046659361  0.049255003            4 
  192000    1.2026925   -5.4582924     107.6504  0.046723266  0.049247266            3 
  193000    1.1880232   -5.4935568    107.60585  0.046461938  0.049236478            2 
  194000    1.1773517   -5.4488858    108.41608  0.046570481  0.049233524            2 
  195000    1.1807627   -5.4302822    109.33697  0.046725201  0.049227597            3 
  196000    1.1743743   -5.4274277    110.25641  0.046877726  0.049221029            3 
  197000    1.1719858   -5.4582289    110.00094  0.046531702  0.049215928            3 
  198000    1.1668351   -5.4475772    110.77789  0.046623693  0.049204877            3 
  199000     1.154506   -5.4947911    110.72756  0.046368323  0.049190359            2 
  200000    1.1581227   -5.4804336    111.69595  0.046539981  0.049175851            4 
  201000    1.1759642   -5.4806449    112.12981  0.046488314  0.049164171            2 
  202000    1.1929418   -5.4859209    112.51519  0.046417157  0.049152096            1 
  203000    1.1846396   -5.4684125    113.17051  0.046457518  0.049138143            4 
  204000    1.1678438    -5.456298     113.7677  0.046473735  0.049121235            2 
  205000    1.1923134   -5.4109935    114.65829  0.046609063  0.049108845            2 
  206000    1.1889387   -5.4686668    114.90745  0.046483595  0.049094872            5 
  207000    1.1971182   -5.4821349    115.11924    0.0463443  0.049080798            6 
  208000    1.1593711   -5.4542923    115.85645  0.046416849  0.049068716            1 
  209000    1.1404897   -5.4299824    116.96755  0.046637779  0.049056382            2 
  210000    1.1843904   -5.4601137    117.38986  0.046583277  0.049045479            3 
  211000    1.1979244   -5.4335821    117.87614  0.046554557  0.049033544            2 
  212000    1.1441866   -5.4573771    118.55516  0.046601872  0.049022374            7 
  213000    1.1835877   -5.4613714    118.70898  0.046443263   0.04901242            4 
  214000    1.1568661    -5.463278    119.55633  0.046556205  0.048999609            6 
  215000    1.1918691   -5.4441293    119.77606  0.046424829  0.048986567            2 
  216000    1.1740927   -5.4626069    120.25107  0.046393161  0.048973351            2 
  217000    1.1718388   -5.4540626    120.76864  0.046378125  0.048957535            2 
  218000    1.1664326   -5.4697647    121.10631  0.046294462  0.048937759            6 
  219000    1.1751088   -5.4335632    121.80024  0.046347122  0.048917088            5 
  220000    1.1556046   -5.4538461    122.18532   0.04628232  0.048897106            2 
  221000    1.1616975   -5.4603476    122.95704   0.04636389  0.048877265            2 
  222000    1.1618963   -5.4384904    123.34354  0.046300129  0.048856225            1 
  223000    1.1558834   -5.5141194    123.39332  0.046111108  0.048835369            2 
  224000     1.189132   -5.4346076    123.90108  0.046094153  0.048813783            3 
  225000    1.1849294   -5.4896275    124.22334  0.046008644  0.048789019            2 
  226000    1.1667283   -5.4647507      125.521  0.046283553  0.048764861            3 
  227000    1.1551091   -5.4662439    125.80098  0.046182446  0.048743103            2 
  228000    1.1456521   -5.4902434    126.43713  0.046212401  0.048723141            2 
  229000     1.174403   -5.5088563    126.94578    0.0461957   0.04870211            4 
  230000    1.1801315   -5.4762548    127.23502  0.046099645  0.048680058            1 
  231000     1.196374   -5.4673276    127.71464  0.046073101  0.048655911            4 
  232000    1.1681528   -5.4842586    127.77219  0.045895183   0.04863287            1 
  233000     1.162477   -5.4895776    128.55875  0.045979523  0.048608363            3 
  234000    1.1581965    -5.450682    128.99242  0.045937471  0.048583829            4 
  235000    1.1572537   -5.4282907    130.15956  0.046155871  0.048560458            3 
  236000    1.1657823   -5.4984369    129.74967  0.045815562  0.048537269            2 
  237000    1.1400777   -5.4924413    130.27394  0.045806589  0.048511076            4 
  238000    1.1636965   -5.4976987    130.90149  0.045833854  0.048486777            2 
  239000    1.1471363   -5.4610174    131.64454  0.045901166  0.048463832            5 
  240000    1.1576956   -5.4977595    132.09515  0.045866371  0.048441024            3 
  241000    1.1744084   -5.4793773    133.03071  0.045999552  0.048415433            3 
  242000    1.1538936   -5.4674812    133.27388  0.045893211  0.048390829            5 
  243000    1.1505685   -5.4949814     132.9187  0.045582546  0.048364425            3 
  244000    1.1584324   -5.4945574    134.04008  0.045778715  0.048335862            3 
  245000    1.1620008   -5.4690366    134.06763  0.045601235  0.048307626            1 
  246000    1.1563591   -5.4987999    134.42946  0.045538434  0.048277168            3 
  247000    1.1528783   -5.4820752     135.3695  0.045671223  0.048251112            3 
  248000    1.1542217   -5.4956731    135.55896  0.045550727  0.048222689            1 
  249000      1.17305   -5.4934678    136.79568  0.045781688  0.048196094            3 
  250000    1.1470889   -5.5592764    136.77765  0.045592551  0.048170465            3 
  251000    1.1688559   -5.4745502     137.7349   0.04572872   0.04814602            2 
  252000    1.1476052   -5.4897773    138.19197  0.045698403   0.04812024            2 
  253000     1.198251   -5.4805147    138.23885  0.045533217  0.048093804            3 
  254000    1.1767164   -5.4861167    139.16229   0.04565692  0.048065946            3 
  255000    1.1394415   -5.5266088    139.25752  0.045508995  0.048039662            3 
  256000    1.1341702   -5.5257278     140.0278  0.045581965  0.048013224            2 
  257000    1.1482355   -5.5387058    139.96135  0.045383059  0.047985488            4 
  258000    1.1711929    -5.511896     141.2832  0.045634108  0.047958171            2 
  259000    1.1415475   -5.4938648    141.45882  0.045514422  0.047932181            7 
  260000    1.1516994   -5.4926217    142.10977  0.045548004  0.047907274            5 
  261000    1.1523823   -5.5249806    142.53621  0.045509647  0.047882245            4 
  262000    1.1393924    -5.511512      143.121  0.045521948  0.047856613            4 
  263000    1.1434579   -5.5009526    143.72197   0.04553928  0.047833882            2 
  264000    1.1622138   -5.5068272    144.78947  0.045703747  0.047809747            2 
  265000    1.1294129   -5.4736562    144.56117  0.045459487  0.047786201            3 
  266000    1.1583563   -5.5088815    145.66038   0.04563295  0.047762816            2 
  267000    1.1610433    -5.521306    145.66311  0.045462892  0.047738598            4 
  268000    1.1445792   -5.5343898    145.70159  0.045305221  0.047713298            1 
  269000    1.1771322   -5.5045352    146.22954  0.045300352  0.047688164            2 
  270000    1.1484656   -5.5380522    147.15836  0.045419247  0.047664257            3 
  271000    1.1524453   -5.4924516    148.13302  0.045551359   0.04764032            2 
  272000     1.136007    -5.472178      148.326  0.045443014  0.047616735            2 
  273000    1.1554779   -5.5083553    148.89866   0.04545136  0.047592937            1 
  274000    1.1509732   -5.5335465    149.57252  0.045490427  0.047567223            2 
  275000    1.1469882     -5.47681    149.20885  0.045214803   0.04754175            2 
  276000    1.1217673   -5.4765849    150.43903  0.045422413  0.047518007            4 
  277000    1.1572003   -5.5157113     150.3536  0.045232732  0.047494508            2 
  278000    1.1505082   -5.5454023    150.67498  0.045166362  0.047467936            3 
  279000    1.1278919   -5.4955828    152.09572  0.045428829  0.047441491            2 
  280000     1.124536   -5.5160542    152.05982    0.0452559  0.047416486            3 
  281000    1.1316241   -5.5624286     152.0103  0.045080161  0.047391614            4 
  282000    1.1261637   -5.5292228    153.32284  0.045308167   0.04736709            3 
  283000    1.1110951   -5.4967896    153.72647  0.045266922  0.047344381            2 
  284000    1.1504471   -5.5489651    154.41012  0.045308134  0.047323044            2 
  285000     1.128785   -5.5486295    155.14812  0.045364947  0.047301382            2 
  286000    1.1467094   -5.5424802    154.91003  0.045136956  0.047279967            2 
  287000    1.1275841   -5.5374447    156.13619  0.045335713  0.047256365            1 
  288000    1.1344378   -5.5287453    156.50373  0.045284644  0.047234416            3 
  289000    1.1288859   -5.4868364    156.50041  0.045126991  0.047212973            4 
  290000    1.1248922   -5.5326176    157.83177  0.045353958  0.047190668            4 
  291000     1.117078   -5.5242829    158.56233  0.045407311  0.047167648            4 
  292000    1.1383091    -5.517241     158.4731  0.045226342  0.047145925            2 
  293000    1.1399703   -5.5044237    158.63434  0.045117845  0.047121811            4 
  294000    1.1275686   -5.5141357     159.4579  0.045197816  0.047100091            2 
  295000    1.1160249    -5.518992     160.0965     0.045225  0.047078571            1 
  296000    1.1417961   -5.5223641    160.82755  0.045278027  0.047057575            4 
  297000    1.1342242    -5.558458    161.31876  0.045263401  0.047036425            5 
  298000     1.128617    -5.510349    161.66778   0.04520911   0.04701249            6 
  299000    1.1250051   -5.5593116    161.45542  0.044998724  0.046989988            3 
  300000    1.1259669   -5.5403667    162.04015  0.045011153  0.046965825            2 
  301000    1.1258023   -5.5355468    162.78788  0.045068628  0.046942296            2 
  302000    1.1508776   -5.5280516    163.23518   0.04504282  0.046918661            2 
  303000    1.1392782   -5.5363198    163.50749  0.044969056  0.046895941            3 
  304000    1.1307276   -5.5282017    164.48197  0.045088258   0.04687212            7 
  305000    1.1368821   -5.5043875    165.25541  0.045151751  0.046850993            3 
  306000    1.1476645   -5.5219736    165.49306  0.045068917  0.046830731            2 
  307000    1.1142538   -5.5441742    165.95849   0.04504845  0.046809067            2 
  308000    1.1152742    -5.540566    166.27389  0.044987525  0.046787343            3 
  309000     1.127095    -5.547484    167.32762  0.045126112  0.046768193            8 
  310000     1.125343     -5.51842    167.79915  0.045107298   0.04674849            2 
  311000    1.1111718   -5.5278369    168.53592  0.045159679  0.046729001            4 
  312000    1.1479307   -5.5067809    168.67415  0.045051856  0.046709759            2 
  313000    1.1407285   -5.5318648    168.94686  0.044980528  0.046689876            4 
  314000    1.1500187   -5.6115747    168.64135  0.044756198  0.046669581            2 
  315000      1.13473    -5.534733    169.53106  0.044849487  0.046649094            2 
  316000    1.1439208   -5.5320774    169.78275  0.044773933   0.04662824            2 
  317000    1.1351802   -5.5376583      170.777   0.04489406  0.046604135            2 
  318000    1.1210275   -5.5448709    170.72841  0.044740149  0.046580529            4 
  319000    1.1034487   -5.5516031    171.44124  0.044786114  0.046557387            2 
  320000    1.1279776   -5.5216448    172.26714  0.044861234  0.046533626            4 
  321000    1.1084584   -5.5372365    172.54524  0.044793676  0.046510418            2 
  322000    1.1408061   -5.5368113    172.63437  0.044677631  0.046487165            1 
  323000    1.1031662   -5.5430798    173.69245  0.044812295  0.046463945            2 
  324000    1.1186083   -5.5747428    174.14711  0.044790924  0.046441332            3 
  325000    1.1444122   -5.5194689    175.76312  0.045067466  0.046421716            6 
  326000    1.1169409   -5.5323077     175.7199  0.044918176  0.046402406            3 
  327000    1.1583426   -5.5810424    174.80589  0.044547883  0.046381996            1 
  328000      1.15255   -5.5366167    176.23167  0.044774306  0.046359688            2 
  329000    1.1273118   -5.5310835    176.33003  0.044663127  0.046338132            2 
  330000    1.1512258   -5.5468639    177.21073  0.044750183  0.046315571            2 
  331000    1.1091014   -5.5287912     177.4756   0.04468167  0.046292215            3 
  332000    1.1143777    -5.549526    177.64967   0.04459078  0.046268647            2 
  333000    1.1046562   -5.5605524    178.22836  0.044601692  0.046245572            1 
  334000    1.1209155   -5.5526109    177.92576  0.044392656  0.046223444            2 
  335000    1.1195879    -5.531517    178.48982  0.044400452  0.046199163            2 
  336000    1.1336081   -5.5932827    178.65058   0.04430818  0.046173996            2 
  337000    1.1149962   -5.5485873    179.72309  0.044441912  0.046148871            4 
  338000    1.1422153   -5.5255946    180.83625  0.044584874  0.046126457            1 
  339000    1.1158183    -5.570371    180.36585   0.04433772  0.046104642            3 
  340000    1.1207052   -5.5728527    180.60725  0.044266483  0.046079997            3 
  341000    1.1166048   -5.5610752    181.67137  0.044396719   0.04605597            3 
  342000    1.1361265   -5.5986794    181.16943  0.044144599  0.046032175            1 
  343000    1.1001791   -5.5301412    182.94811  0.044448034  0.046008643            6 
  344000    1.1094744   -5.5692469    182.21902  0.044142204  0.045984189            4 
  345000     1.148981   -5.5711951    183.27235  0.044268684  0.045958988            1 
  346000    1.1255103   -5.5658668     183.7545  0.044256863  0.045934841            1 
  347000    1.1240917   -5.5873862     183.9456  0.044175217  0.045910595            3 
  348000     1.122921   -5.5728277    185.42991  0.044403715  0.045885545            6 
  349000    1.1143838   -5.5886864    185.01374   0.04417711  0.045862742            3 
  350000    1.1065961    -5.542793    185.99414  0.044284318  0.045840638            3 
  351000    1.1066228   -5.5617467    186.07901  0.044178302  0.045817025            6 
  352000    1.1033377    -5.568825    185.95222  0.044022779  0.045792917            5 
  353000    1.1238246   -5.5370805    186.85521   0.04411124  0.045766353            3 
  354000    1.1221327   -5.6069592    185.93791  0.043770694  0.045738892            2 
  355000    1.1154369   -5.5680896    187.14759  0.043931358  0.045711386            5 
  356000     1.109558   -5.5977995    187.21548  0.043823848  0.045683349            4 
  357000    1.1436556   -5.5738791    188.47964  0.043996182  0.045656442            4 
  358000    1.1217337   -5.5889102    188.37577  0.043849109  0.045630164            3 
  359000    1.1227875   -5.6053904    188.96351  0.043863396  0.045604824            3 
  360000    1.1044193   -5.6038731    190.11708  0.044008584  0.045578939            2 
  361000    1.1181285   -5.5639572    191.25816  0.044150082  0.045552748            4 
  362000    1.1194559   -5.5915652     191.6251  0.044112591  0.045527481            2 
  363000    1.1377956   -5.5902595    191.09595  0.043869594   0.04550377            4 
  364000    1.0887975   -5.6156579    190.78366  0.043677579  0.045478769            3 
  365000    1.1007043   -5.6298218    192.18217  0.043877208  0.045454587            4 
  366000    1.1073108   -5.5816695    192.41102  0.043809431  0.045430716            5 
  367000    1.0943667   -5.6348791    192.75692  0.043768601  0.045406549            2 
  368000    1.0970792   -5.6026464    192.74663  0.043647334  0.045381417            2 
  369000    1.1096674    -5.602743    193.65234  0.043733591  0.045355599            4 
  370000    1.1064129   -5.5689888    194.70545  0.043852579  0.045329558            3 
  371000    1.1139929   -5.6135764    194.33029  0.043650109  0.045303554            4 
  372000    1.0991193   -5.5813823    194.91807  0.043664443  0.045278091            2 
  373000    1.1251718   -5.5762078    194.74937  0.043509689  0.045251219            4 
  374000    1.0854875   -5.5530154    195.46957  0.043553826  0.045224533            3 
  375000    1.1017886   -5.5980961    196.04277  0.043565059   0.04519757            2 
  376000    1.0928675    -5.616314    196.93134   0.04364613  0.045170208            2 
  377000    1.0935875   -5.5944332    196.93651  0.043531501  0.045143388            3 
  378000    1.1010582   -5.5868999    196.66286   0.04335601  0.045116581            2 
  379000    1.0724153    -5.591311    197.16142  0.043351236  0.045088043            2 
  380000    1.1094446   -5.5982494    197.92988  0.043405676  0.045059654            2 
  381000    1.1002397   -5.6340969    197.65636  0.043231925  0.045031815            6 
  382000    1.1055734    -5.576145    199.52286   0.04352593  0.045003984            3 
  383000     1.111591   -5.5991704    198.48092  0.043185578  0.044977043            3 
  384000    1.0918569   -5.5789128    200.31189  0.043470462  0.044949953            1 
  385000    1.1040222   -5.5753876    200.04924  0.043300701   0.04492415            4 
  386000     1.116586   -5.6356299    200.46107  0.043277433  0.044898109            2 
  387000     1.113488   -5.5951823    201.38651  0.043364882  0.044872428            3 
  388000     1.102838   -5.5848589    202.49803  0.043491846  0.044847121            3 
  389000    1.1099731   -5.6009535     201.6592  0.043200344  0.044821045            4 
  390000    1.1189123   -5.5924704    202.41062  0.043250132  0.044795327            3 
  391000    1.1105869   -5.6004065    202.91339  0.043246672  0.044768823            3 
  392000     1.096861   -5.5577389    202.88434  0.043130173  0.044741543            2 
  393000     1.084858   -5.6120107     202.9721  0.043039038  0.044715807            2 
  394000    1.0857241   -5.6258608    204.07739  0.043163575   0.04469001            2 
  395000    1.0607561   -5.6123629     204.9647  0.043241498  0.044665263            2 
  396000    1.1049801   -5.5647107    205.90341  0.043329841  0.044640244            2 
  397000    1.1170303   -5.6006693    205.78303  0.043195431  0.044616047            3 
  398000    1.0591838   -5.6316013    206.14882  0.043163488  0.044590801            1 
  399000    1.0935012   -5.6422233    206.28916  0.043084621  0.044566634            6 
  400000    1.0891651   -5.6071614    207.29606   0.04318668  0.044541946            3 
  401000    1.0966216   -5.6321641    208.40823  0.043310105  0.044519229            4 
  402000    1.0821952   -5.6354322    208.01046  0.043119913  0.044495806            2 
  403000    1.0935125   -5.6476692    209.02007  0.043221685  0.044472561            3 
  404000    1.0921969    -5.599173    209.89424  0.043295016  0.044449147            9 
  405000    1.1127036   -5.6403506    209.44162  0.043094984  0.044425916            3 
  406000     1.089612   -5.6161763    210.35279  0.043175859  0.044401869            2 
  407000    1.0781261   -5.5921404    210.89548  0.043180892  0.044378328            4 
  408000    1.0715214   -5.6387655    210.68997  0.043033082   0.04435522            3 
  409000    1.0981798   -5.6488172    210.82801  0.042955992  0.044332075            5 
  410000     1.064802   -5.6030528    212.04255  0.043098078  0.044309647            1 
  411000    1.0990212   -5.6265016    212.36725  0.043059053   0.04428858            3 
  412000    1.0841044   -5.6042048    213.47921  0.043179452  0.044268154            4 
  413000    1.1037237   -5.6350485    212.76579  0.042930951  0.044246458            3 
  414000    1.0765243   -5.6215042    214.63919  0.043204345  0.044225286            2 
  415000    1.1075687   -5.5786236    215.44755  0.043262559  0.044206145            1 
  416000     1.100289   -5.6689619     214.8841  0.043045692   0.04418533            2 
  417000    1.0589705   -5.6274882     215.1808  0.043001759  0.044165091            4 
  418000    1.0999643   -5.6229493    216.53936  0.043169729  0.044145875            2 
  419000    1.0869868   -5.6559774    217.19422   0.04319694  0.044126082            2 
  420000    1.0585638   -5.6424306    216.65387   0.04298688  0.044106276            4 
  421000    1.0783274   -5.6667454    217.22612  0.042998044  0.044085605            3 
  422000    1.0888733   -5.6409402    217.51548  0.042953293  0.044065425            2 
  423000    1.0602651   -5.6166143     217.7754  0.042902954  0.044045967            5 
  424000    1.0883625   -5.6582024    218.31072  0.042906982  0.044026609            4 
  425000     1.085945   -5.6290934    218.59145  0.042861069  0.044006357            5 
  426000    1.1211143   -5.6241612    219.49638  0.042937477  0.043986754            3 
  427000    1.0692335    -5.655246    220.01561  0.042938253  0.043967484            3 
  428000    1.0754441   -5.6482414    220.10014  0.042854389  0.043947837            5 
  429000      1.06934   -5.6364252    221.51012  0.043028383  0.043929058            3 
  430000    1.0766466   -5.6088909    221.40735  0.042908402  0.043910228            1 
  431000    1.0731379   -5.6402709      222.126  0.042947796  0.043891305            6 
  432000    1.0783545   -5.6600612    221.91043  0.042806796   0.04387254            2 
  433000    1.0753354   -5.6780675    222.90319  0.042898997  0.043852451            5 
  434000    1.0753913   -5.6604611    223.46321  0.042907683  0.043833999            3 
  435000    1.1034131   -5.6897894    223.73469  0.042861051  0.043816097            3 
  436000    1.0878451   -5.6324435    224.63344  0.042934527  0.043798544            4 
  437000    1.0682987   -5.6460005    225.40414  0.042983246    0.0437814            4 
  438000     1.062992   -5.6507265    225.66693  0.042935108  0.043763791            3 
  439000    1.0963218   -5.6449042    225.56864  0.042818648   0.04374435            2 
  440000    1.0749275   -5.6587756    225.91566  0.042787057  0.043725053            4 
  441000    1.0694436   -5.6779961    225.93248  0.042693212  0.043706405            9 
  442000    1.0793495   -5.6523534    227.71629  0.042932935  0.043688254            3 
  443000     1.073604   -5.6272673    227.66022  0.042825474  0.043670591            2 
  444000    1.0815882   -5.6711355    228.55748  0.042897425  0.043652261            3 
  445000    1.0841734   -5.6680197    228.62909  0.042814437  0.043634055           12 
  446000    1.0800169    -5.652075    228.94648  0.042777743   0.04361526            8 
  447000     1.092068   -5.6444281     229.3276  0.042753095  0.043596616            3 
  448000    1.0933129   -5.6790121    228.53236   0.04250974  0.043578607            4 
  449000    1.0912874   -5.6668422    229.81376  0.042652888  0.043559367            2 
  450000    1.0787777   -5.6626285    230.91082  0.042761262  0.043541085            7 
  451000    1.0682954   -5.6474534    230.69487  0.042626547  0.043522554            2 
  452000    1.0767408   -5.6848524    230.32039  0.042463199  0.043503143            1 
  453000    1.0742064   -5.6398915    230.69269  0.042437949  0.043482291            2 
  454000    1.0802104   -5.6486827    231.57349  0.042506147  0.043461109            2 
  455000    1.0761165   -5.6701339    231.80951  0.042455955  0.043440435            3 
  456000    1.0717685   -5.7095597      230.651  0.042151133   0.04341945            3 
  457000    1.0807982   -5.6584125    232.57033  0.042408886  0.043398682            3 
  458000    1.0732883   -5.6353027     232.2287   0.04225413  0.043378128            2 
  459000    1.0774681   -5.6383527    233.57318  0.042406169  0.043357512            4 
  460000    1.1021828   -5.6482952    233.45231  0.042292085  0.043336374            2 
  461000    1.0703158    -5.659262    234.16903  0.042329904  0.043314247            6 
  462000    1.0736034   -5.6766155    234.66941  0.042328536  0.043291038            5 
  463000    1.0555664   -5.6757929    233.42165  0.042012537  0.043268225            3 
  464000    1.0643889   -5.6349109    234.96929  0.042199943  0.043247428            3 
  465000     1.065682   -5.6871215     234.8389  0.042085825  0.043224616            3 
  466000    1.0514562   -5.6807994    235.69418  0.042148458  0.043201168            2 
  467000    1.0924379   -5.7108172    234.97806  0.041930417   0.04317792            2 
  468000    1.0679116   -5.7110244    236.32498  0.042080659  0.043155322            2 
  469000    1.0850245   -5.7081507    236.43962  0.042011304  0.043132445            3 
  470000    1.0501369   -5.6352878    237.18257  0.042053647  0.043110272            3 
  471000    1.0803337   -5.6651708    238.08706  0.042124392   0.04308861            3 
  472000      1.07329   -5.6776206     237.8233  0.041988577  0.043066934            3 
  473000     1.075097   -5.6993622    237.71347  0.041880456  0.043044178            3 
  474000    1.0588481   -5.6887044    238.51766  0.041933484  0.043020932            6 
  475000    1.0542036     -5.67998    238.92435  0.041916553  0.042997936            2 
  476000    1.0752124   -5.6405332     239.0858  0.041856758  0.042974754            2 
  477000    1.0578672   -5.6845273     239.6817  0.041873113  0.042951563            4 
  478000    1.0259709   -5.6819306     239.4957  0.041753086  0.042928299            4 
  479000    1.0476229   -5.6934498    239.56827  0.041678544  0.042905553            4 
  480000    1.0648417   -5.6860512     241.4594  0.041920034  0.042882209            5 
  481000     1.049948   -5.6605611    241.58071  0.041853901   0.04285947            5 
  482000    1.0387602   -5.6404342    241.94382  0.041829845  0.042837424            1 
  483000    1.0617975   -5.7192293    240.90379  0.041563801  0.042813148            2 
  484000    1.0828815   -5.6852262    242.53246  0.041758344  0.042790168            3 
  485000    1.0425532   -5.7094422    242.65819  0.041693848  0.042767007            1 
  486000    1.0714732   -5.6582736    243.93699   0.04182733  0.042744184            4 
  487000    1.0632514   -5.6957109    243.58769  0.041681672  0.042721305            1 
  488000    1.0738726    -5.681063    243.40043  0.041564282  0.042698625            4 
  489000    1.0841222   -5.6894801     243.3099  0.041463854  0.042675224            3 
  490000    1.0705577   -5.6935165    244.06107  0.041506985  0.042651975            2 
  491000    1.0819029    -5.676337    244.69549  0.041530124  0.042629039            4 
  492000    1.0695605   -5.6941838     243.9507  0.041319563  0.042605733            8 
  493000    1.0660499   -5.6667225    245.66689  0.041525844   0.04258211            5 
  494000    1.0504767   -5.7512815    244.66254  0.041272358  0.042558391            3 
  495000    1.0240452   -5.7134178    245.48244   0.04132701  0.042533707            5 
  496000    1.0440921   -5.7084914    246.16737  0.041358765  0.042508795            4 
  497000    1.0763283   -5.7305924    245.63384   0.04118609  0.042484033            5 
  498000    1.0585337   -5.6839683    246.37614  0.041227601   0.04245919            2 
  499000    1.0612061   -5.7107351    247.12632   0.04127026  0.042434246            4 
  500000    1.0483145   -5.7171212    246.40009  0.041066682  0.042409723            4 
  501000    1.0585239   -5.6946781    248.66626  0.041361654  0.042384762            2 
  502000    1.0477959   -5.7412138    247.93431  0.041157754  0.042359293            4 
  503000    1.0675464   -5.6974496    248.74581  0.041210372  0.042334422            5 
  504000    1.0528875    -5.714486    248.73855  0.041127406  0.042309975            4 
  505000     1.049884   -5.7279052    248.81973  0.041059362   0.04228524            4 
  506000    1.0527774   -5.7380158    249.21687  0.041043621  0.042260612            7 
  507000    1.0379853   -5.6915803    250.42423  0.041161116  0.042235316            2 
  508000    1.0601386   -5.7133322     249.8891  0.040992306  0.042210255            2 
  509000    1.0736394   -5.7057754    251.34497  0.041150126   0.04218523            5 
  510000    1.0418224   -5.7061979    251.28891  0.041060279  0.042160541            2 
  511000    1.0375195   -5.7435715    251.18596  0.040963137  0.042136401            3 
  512000    1.0611887   -5.7016231    251.66021  0.040960321   0.04211152            6 
  513000    1.0315827   -5.7412458    251.30721  0.040823134  0.042086955            2 
  514000    1.0422162   -5.7234687    252.56732   0.04094801  0.042062292            6 
  515000    1.0450862   -5.7490079    252.81883  0.040909197  0.042038014            4 
  516000      1.05905   -5.7411389    253.34153  0.040914329  0.042013785            3 
  517000    1.0202337   -5.7685223     251.9258  0.040606995  0.041988009            2 
  518000    1.0509875   -5.6987574    253.05779  0.040710712  0.041963046            3 
  519000    1.0674767   -5.7082536     254.2118  0.040817566  0.041937205            2 
  520000    1.0344539   -5.7496947    254.43623  0.040775036  0.041911636            6 
  521000    1.0614767   -5.7434133    253.75214  0.040587354  0.041885819            2 
  522000    1.0628338   -5.7285885    254.40658  0.040614078  0.041859766            3 
  523000       1.0367   -5.6711376    255.79157  0.040757102  0.041834371            3 
  524000    1.0557258   -5.7640788    255.05621  0.040562375  0.041809562            4 
  525000    1.0460865   -5.7017737    256.84946  0.040769756  0.041784884            3 
  526000    1.0631261    -5.741329    256.22349  0.040593075  0.041760432            2 
  527000    1.0627149   -5.7228637     257.6674   0.04074437  0.041736123            6 
  528000    1.0346035   -5.7482009    257.58712  0.040654534   0.04171192            3 
  529000    1.0488302   -5.7431944    258.69733  0.040752573  0.041687813            2 
  530000    1.0658884   -5.7127452     258.0132  0.040568113  0.041663876            2 
  531000    1.0352338   -5.7679931    258.47479  0.040564154  0.041639985            3 
  532000    1.0319412   -5.7936904    258.98147  0.040567273  0.041615955            3 
  533000    1.0473526   -5.7783809    259.07685  0.040506073    0.0415927            6 
  534000    1.0059559   -5.7227536    260.57458  0.040663948  0.041569669            3 
  535000    1.0258767   -5.6817099     260.9869  0.040652165  0.041547017            2 
  536000    1.0366204   -5.7027306    261.14682  0.040601185  0.041523952            2 
  537000     1.017564   -5.7564611    260.29472  0.040393346  0.041499941            6 
  538000    1.0554405   -5.7510895     260.8782  0.040408643  0.041475923            3 
  539000    1.0709383   -5.7313252    262.47775  0.040580975  0.041451827            2 
  540000    1.0615245   -5.7364581     262.0436  0.040438827  0.041428498            1 
  541000    1.0643949    -5.759595    262.55668  0.040443111  0.041404854            2 
  542000    1.0190852    -5.745289     262.7355  0.040395986  0.041381332            5 
  543000    1.0587594   -5.7199058    263.43854  0.040429487  0.041358214            3 
  544000    1.0181711   -5.7439533    263.62561  0.040383825  0.041335112            5 
  545000    1.0212957   -5.7443354    263.74573  0.040328094  0.041312122            3 
  546000    1.0573665    -5.715774    264.36228  0.040348334  0.041288392            3 
  547000    1.0240676   -5.7425211     264.4638  0.040290036   0.04126441            3 
  548000    1.0297151   -5.7821328    264.14265  0.040167678   0.04124052            5 
  549000    1.0449099   -5.7756289    265.12552  0.040243703  0.041215834            7 
  550000    1.0336579   -5.7461301    265.24928  0.040189285  0.041192043            2 
  551000    1.0444117      -5.7424    265.98421  0.040227498  0.041168642           10 
  552000      1.03064   -5.7425823    266.28092  0.040199415  0.041144185            3 
  553000    1.0389308   -5.7538157    267.01029  0.040236632   0.04112032            4 
  554000    1.0105232   -5.7423411    267.52706  0.040241736  0.041096888            2 
  555000    1.0446856   -5.7676579    267.42402  0.040153756  0.041073632            2 
  556000    1.0065328   -5.7631545    266.93357  0.040008029  0.041050725            3 
  557000    1.0210091   -5.7420305    268.28529  0.040138434  0.041027729            3 
  558000     1.035031   -5.7513418    268.61966  0.040116437  0.041005123            3 
  559000    1.0265015   -5.7850006    269.37921  0.040157903  0.040982147            4 
  560000    1.0189564   -5.7676984    268.51088  0.039956976  0.040959384            3 
  561000    1.0291861   -5.7302347    269.96179  0.040101275  0.040936908            5 
  562000    1.0359256   -5.7812928    269.89927   0.04002065  0.040914381            3 
  563000    1.0278486   -5.7620209    270.90798  0.040098872  0.040891878            5 
  564000    1.0510066   -5.7845091    270.53151   0.03997215  0.040869188            4 
  565000    1.0274993   -5.7574356    271.14139  0.039991356  0.040846294            3 
  566000    1.0055484   -5.7708437    272.14666  0.040068707  0.040823436            6 
  567000    1.0193928   -5.7567714    272.21879  0.040008641  0.040800831            2 
  568000   0.99793216    -5.783704    272.35625   0.03995837  0.040778601            4 
  569000    1.0484246   -5.7618949    273.58407  0.040067965  0.040757217            5 
  570000    1.0414901   -5.7708045    273.67921  0.040011581  0.040735842            4 
  571000    1.0381424    -5.751534     274.2024  0.040017864  0.040714807            2 
  572000    1.0341279   -5.7613201    274.27032  0.039957798    0.0406932            2 
  573000    1.0196478   -5.7942482    273.14987  0.039725113  0.040670693            6 
  574000    1.0497995   -5.7761094     274.8858  0.039907927  0.040648642            3 
  575000    1.0257151   -5.7751386    274.75092  0.039818974  0.040626174            4 
  576000    1.0353381   -5.7678473     274.8223  0.039760171   0.04060342            4 
  577000    1.0264811   -5.7714988    274.63123  0.039663667  0.040580791            4 
  578000    1.0292116   -5.8411336    275.09928  0.039662526  0.040558401            7 
  579000    1.0032535   -5.7592685    277.00995   0.03986902  0.040536269            5 
  580000    1.0159013   -5.7832633    277.58623  0.039883079  0.040514296            4 
  581000    1.0438639   -5.7870776    276.93804  0.039721463  0.040492485            5 
  582000    1.0155581   -5.7972163    277.50177   0.03973393  0.040469819            4 
  583000    1.0266008    -5.769777    277.27254   0.03963301  0.040447168            2 
  584000    1.0122914   -5.7600031    278.77332  0.039779297  0.040424766            5 
  585000    1.0090296   -5.7793725    278.41718  0.039660567  0.040401852            3 
  586000    1.0308993   -5.7856125    278.06737  0.039543141  0.040378848            3 
  587000    1.0126221   -5.7666336    278.11149   0.03948204  0.040356323            5 
  588000    1.0177181   -5.7952502    277.96331  0.039393893  0.040333669            5 
  589000    1.0134377   -5.8170637     279.2099  0.039503382  0.040311567            7 
  590000    1.0147659   -5.7632927    280.42838  0.039608529  0.040289931            4 
  591000    1.0095176   -5.7856978    280.61388  0.039567665  0.040267658            5 
  592000    1.0231167   -5.8047796    279.92667  0.039404092  0.040245491            3 
  593000    1.0265987   -5.7934001    280.47177  0.039414245  0.040223394            4 
  594000    1.0332442   -5.8005651    281.97275  0.039558466  0.040201024            5 
  595000    1.0192365   -5.7546051    281.92147  0.039484799  0.040179532            3 
  596000    1.0172797   -5.7948195      282.213  0.039459312  0.040157941            2 
  597000    1.0531335    -5.810443    283.12769  0.039520895  0.040137164            2 
  598000     1.024414   -5.7621684    284.73135  0.039678282  0.040117523            5 
  599000    1.0114973   -5.8676236    283.86364  0.039491324  0.040096773            5 
  600000   0.98686174   -5.7568398    284.90088  0.039569566  0.040076228            3 
  601000    1.0207362    -5.805334    285.25063  0.039552223  0.040056452            3 
  602000    1.0068224   -5.7670661    285.39657  0.039506723  0.040036019            7 
  603000    1.0138224   -5.8638001    284.99235  0.039385344  0.040015131            6 
  604000   0.99919015   -5.7936446    286.43765  0.039519544  0.039995026            6 
  605000   0.99885095   -5.7922322    286.82201  0.039507164  0.039975355            3 
  606000   0.98573952    -5.804984    287.90948  0.039591513   0.03995596            7 
  607000    1.0172296   -5.8151679    287.38426  0.039454182  0.039936693            4 
  608000   0.99981827   -5.7943049    288.61902  0.039558527   0.03991715            3 
  609000    1.0095812    -5.787803     288.7966  0.039517871   0.03989859            6 
  610000      1.01594    -5.824466    288.33695  0.039390294    0.0398799            5 
  611000    1.0206936   -5.7663903    290.05677  0.039560388  0.039861428            6 
  612000   0.99930594   -5.8123644    289.83515   0.03946557  0.039843027            3 
  613000    1.0040495   -5.7854602    289.50798  0.039356712  0.039823646            3 
  614000    1.0196632   -5.8389768    288.96862  0.039219411  0.039804313            4 
  615000    1.0097127   -5.8106473    290.02495  0.039298774  0.039784455            2 
  616000    1.0143169   -5.7778182    289.96759  0.039227217  0.039764298            6 
  617000    1.0147078   -5.8450022    290.75895  0.039270523  0.039744796            5 
  618000    1.0235525   -5.8193592     291.0534  0.039246683  0.039724627            5 
  619000   0.98743092   -5.7958869    291.44421  0.039235893  0.039705021            3 
  620000   0.98467219   -5.8194762    291.95285  0.039240975  0.039685274            4 
  621000    1.0042589   -5.8106973    293.14743  0.039338088  0.039665494            3 
  622000    1.0101712   -5.8054367    293.27119  0.039291425  0.039646347            3 
  623000    1.0211824   -5.8253956    293.06619  0.039200935  0.039626935            3 
  624000   0.97433347   -5.8416804    293.02539  0.039132664  0.039608037            2 
  625000    1.0059291   -5.8402617    294.89739  0.039319653  0.039589547            3 
  626000    1.0054223   -5.8057784    294.87225  0.039253495  0.039571584            4 
  627000   0.99667538   -5.8174482    295.60077  0.039287715  0.039553479            5 
  628000    1.0050527   -5.8704398    295.06287  0.039153778  0.039535649            4 
  629000    1.0128011   -5.8244446    296.64521  0.039301167  0.039517214            3 
  630000    1.0031051   -5.7900578    296.30818  0.039194203  0.039499158            3 
  631000    1.0154835   -5.7890105      297.353  0.039270074  0.039480829            2 
  632000    1.0073021   -5.7954541    296.25194  0.039062756  0.039462644            6 
  633000    1.0095841   -5.7993643    296.33634  0.039012157  0.039443415            3 
  634000   0.99045358   -5.8360991    297.19261  0.039063172  0.039424325            4 
  635000    0.9934059   -5.8690631     295.7049  0.038806417  0.039404791            3 
  636000   0.96766553   -5.8419897    296.38939  0.038835088  0.039384811            4 
  637000   0.99847685    -5.834632    298.65541  0.039070567    0.0393654            4 
  638000   0.99070372   -5.8089077    298.65136  0.039008799  0.039345992            3 
  639000   0.98290995   -5.8504592    297.79764  0.038836416   0.03932622            4 
  640000   0.98902169   -5.8544682    298.30278  0.038841507  0.039306032            4 
  641000   0.98939493   -5.8259934    298.98115  0.038869105  0.039285987            4 
  642000   0.99781502   -5.8501037    299.62288  0.038891859  0.039266595            5 
  643000     1.001261   -5.8452342    299.68499  0.038839423  0.039247184            6 
  644000   0.99603331   -5.8684314    299.14639  0.038709418   0.03922749            3 
  645000   0.98079705   -5.7983267    300.98524  0.038886982  0.039207656            5 
  646000   0.98094079   -5.7919165    302.02836  0.038961347   0.03918835            4 
  647000   0.98490132   -5.8692878    300.55511  0.038711374  0.039168444            4 
  648000   0.97979949    -5.812209    300.53579  0.038649149  0.039148183            2 
  649000   0.99475818   -5.8365923    300.79732  0.038623179  0.039128103            6 
  650000   0.98074377   -5.8429541    301.32579  0.038631512  0.039108265            2 
  651000   0.99357653   -5.8298355    301.32354  0.038571882  0.039088558            4 
  652000   0.98367299   -5.8740318    301.42251  0.038525372  0.039068457            2 
  653000   0.97868772   -5.8443927    303.00258  0.038668017  0.039048257            4 
  654000    1.0113155   -5.8171833    303.46119  0.038667329  0.039028095            7 
  655000   0.98035435   -5.8272595    302.92535  0.038540121  0.039007959            6 
  656000   0.98953862   -5.8387559    302.75778  0.038460083  0.038987446            4 
  657000   0.98920708   -5.8343705    303.92133  0.038549128  0.038967542            4 
  658000   0.98750256   -5.8279568    304.18523  0.038523965  0.038947603            4 
  659000   0.97828299   -5.8785125    302.67347  0.038274339  0.038927103            4 
  660000    1.0127281   -5.8257973    304.03358  0.038388078  0.038906432            2 
  661000   0.99127722   -5.8231103    305.08896  0.038463056  0.038886292            4 
  662000   0.98563365   -5.8627356    304.92695  0.038384561   0.03886607            4 
  663000   0.99031846   -5.8702654      304.097  0.038222348  0.038845746            3 
  664000   0.98389378   -5.8584392    305.06134   0.03828581   0.03882534            3 
  665000     0.979066   -5.8656045    305.50043  0.038283262   0.03880513            4 
  666000   0.99624915   -5.8476422    306.63899  0.038368242  0.038784823            5 
  667000   0.99078436   -5.8758018    305.63802  0.038185659  0.038764291            7 
  668000   0.98492195   -5.8638395    306.46525  0.038231693  0.038743513            2 
  669000    1.0018319   -5.8605756    306.80548  0.038216926  0.038722554            5 
  670000   0.99035468   -5.8420047     307.3456  0.038227065  0.038702007            6 
  671000   0.98482669   -5.8794683    306.44062  0.038057702   0.03868135            4 
  672000    1.0023426   -5.8753259    306.75221  0.038039709  0.038660397            3 
  673000   0.99398447   -5.8724697    306.60723  0.037965234  0.038639029            9 
  674000   0.97193765   -5.8464988    306.70202  0.037920625  0.038617362            7 
  675000   0.97710137   -5.8547222    306.94215  0.037894092  0.038596083            5 
  676000   0.98651969   -5.8375826    308.38473  0.038015869  0.038574624            4 
  677000   0.99976615   -5.8730811    308.59051  0.037985046  0.038553007            4 
  678000   0.96787057   -5.8695505    307.25068  0.037764341  0.038530797            5 
  679000    0.9890225   -5.8530706     309.7216  0.038011978  0.038509141            6 
  680000    0.9858778   -5.8753704    308.85348  0.037849691  0.038487987            7 
  681000   0.98212216   -5.8511935    309.47852  0.037870597  0.038466579            6 
  682000   0.98700359   -5.8813795    309.88653  0.037864923   0.03844543            3 
  683000   0.97950234   -5.8984355     310.4383  0.037876806  0.038424646            4 
  684000    0.9845925    -5.877649    311.40838  0.037939617  0.038404037            6 
  685000   0.96604707   -5.8783247    310.31936  0.037751747  0.038383455            4 
  686000   0.99491033   -5.8936059    311.80166  0.037876781  0.038361926            3 
  687000   0.98465308   -5.8769253    311.42278  0.037775689  0.038341204            5 
  688000    0.9919857   -5.8857542     311.8088  0.037767539  0.038319914            7 
  689000   0.97041247   -5.9211966    311.58126  0.037685203  0.038298918            4 
  690000    0.9975262   -5.8480701    312.66903   0.03776196  0.038277727            3 
  691000   0.98817656   -5.8804463    311.82777  0.037605857  0.038257235            5 
  692000   0.98405883   -5.8615523    312.51856  0.037634702   0.03823624            2 
  693000   0.98780161     -5.87754     312.8124  0.037615729  0.038215449            3 
  694000   0.94498508   -5.8449957     313.8266  0.037683309  0.038194472            4 
  695000   0.97756735   -5.8678002    313.44816  0.037583712   0.03817343            7 
  696000   0.98762318   -5.8981718    314.09917  0.037607659  0.038152142            2 
  697000    0.9718906    -5.884048    314.29445  0.037577051  0.038130825            5 
  698000   0.97262906   -5.9034159    314.20448  0.037512474  0.038109639            4 
  699000   0.98014528   -5.8759781     314.7932  0.037528993  0.038088106           11 
  700000   0.98183666   -5.8864095    313.98694  0.037379398  0.038066501            6 
  701000    0.9818879   -5.8603976    315.60633  0.037518584   0.03804501            5 
  702000   0.96568257   -5.8553539    315.27469  0.037425771  0.038022714            6 
  703000   0.97555292   -5.8822566    314.88793  0.037326687  0.038000444            6 
  704000   0.97102657   -5.8898464    316.32054  0.037443246   0.03797857            5 
  705000   0.95454481   -5.8770912    315.61446  0.037306674  0.037956539            4 
  706000   0.95196318   -5.8916832    315.32139  0.037219238  0.037934419            4 
  707000    0.9711295    -5.910215    315.62089  0.037201896  0.037911741            2 
  708000   0.95183444   -5.8463448    317.35448  0.037353399  0.037889364            6 
  709000   0.98275966    -5.905259     316.3161  0.037178667  0.037867523            5 
  710000   0.94703002   -5.9322038    315.83068  0.037069329  0.037844598            4 
  711000   0.95626381   -5.9102455    316.15801  0.037055557  0.037821805            4 
  712000   0.97257952   -5.8824471    317.42015  0.037151234  0.037799543            4 
  713000   0.96963492   -5.8877876    316.70517  0.037015564  0.037776859            4 
  714000   0.97381457   -5.8784423     317.1209  0.037012243  0.037754411           11 
  715000   0.96238592   -5.8904145    317.95704   0.03705793  0.037731793            2 
  716000   0.95816498   -5.8961077    318.43594  0.037061911  0.037708626            8 
  717000   0.98470028   -5.9145974    317.84415  0.036941439  0.037685769            7 
  718000   0.99595825   -5.8955547    318.95844  0.037019317  0.037662729            5 
  719000   0.98091817   -5.9057748    318.18853  0.036878597  0.037639524            3 
  720000    0.9751734   -5.9437121    318.41656  0.036853768  0.037616514            3 
  721000    0.9868791   -5.9036368    319.29735  0.036904455  0.037593698            5 
  722000   0.96919258   -5.9441389     318.8975  0.036807191  0.037570478            2 
  723000    0.9764426   -5.8972847    320.37949  0.036927097  0.037547825            4 
  724000   0.97613812   -5.9206854    319.93383  0.036824796  0.037524742            3 
  725000   0.95574921   -5.8827768    320.31785  0.036818143  0.037502346            6 
  726000   0.96398433   -5.8934097    321.74944  0.036931754  0.037480128            2 
  727000   0.97663719   -5.9367648    321.11759  0.036808527  0.037457913            2 
  728000   0.97146977   -5.9204272     320.4459  0.036681078  0.037435168            6 
  729000   0.97034756   -5.9169537    322.54941  0.036871218  0.037412653            3 
  730000   0.97033398   -5.8851658    322.39596  0.036803192  0.037390051           15 
  731000    0.9449897   -5.8895385    322.18933  0.036729289  0.037367049            6 
  732000   0.96836298   -5.9348869    321.58779  0.036610632  0.037344398            4 
  733000   0.95655192   -5.9453089    321.57559  0.036559298  0.037320955            3 
  734000   0.93599904   -5.9514587    322.47704  0.036611834   0.03729787            7 
  735000   0.95281757   -5.9445638    322.64007  0.036580507   0.03727522            3 
  736000   0.95947578   -5.9587404     321.6118  0.036414379  0.037252363            6 
  737000   0.94890572   -5.8952524    323.07985  0.036530965  0.037229444            5 
  738000   0.97936551   -5.9162332    323.70232  0.036551752   0.03720692            4 
  739000   0.95421368   -5.9729341    322.65116  0.036383758  0.037183443            3 
  740000   0.95722135   -5.9244121    322.73238  0.036343737  0.037160302            2 
  741000   0.95150375   -5.9239566     323.5628  0.036388079   0.03713713            3 
  742000    0.9747242   -5.9406848    323.00144  0.036275993  0.037114072            6 
  743000   0.96273824   -5.8998221    324.60437  0.036406951  0.037090956            4 
  744000   0.95409661   -5.8896089    325.42514  0.036449949  0.037068289            3 
  745000   0.92752408   -5.9399323    324.00509   0.03624218  0.037045456            4 
  746000   0.94176787   -5.8920813    325.76272  0.036389938  0.037022253            4 
  747000   0.93421562   -5.9557238    325.21878  0.036280542  0.036999108            5 
  748000   0.93579186   -5.9218295    326.14542  0.036335274  0.036975685            8 
  749000   0.95117562   -5.9649821    325.07311  0.036167458  0.036952356            8 
  750000   0.96188687    -5.923544     325.6435  0.036182611  0.036929219            4 
  751000   0.95356111   -5.9066614    326.74533  0.036256694  0.036905875            3 
  752000   0.93739418   -5.8969698    327.14602  0.036252883  0.036882598            7 
  753000   0.94625846   -5.9289677     326.2329  0.036103686  0.036859305            4 
  754000     0.965201   -5.9339809    326.21889  0.036054254  0.036835791            6 
  755000   0.96485499   -5.9777603    325.73216  0.035952777  0.036812189            5 
  756000   0.94037655   -5.9459425    326.14043  0.035950224  0.036788331            7 
  757000   0.97426664    -5.915921    328.28161  0.036138442  0.036765053           11 
  758000   0.94400984   -5.9494478    327.23646  0.035975864  0.036741389            4 
  759000   0.94806154    -5.952241    327.35511  0.035941492  0.036718285            5 
  760000   0.95922937   -5.9510575    328.36094  0.036004489  0.036694877            6 
  761000   0.97944219   -5.9529881    327.21517  0.035831709  0.036671374            4 
  762000       0.9567   -5.9243709    328.97833  0.035977508  0.036647581            6 
  763000   0.95997103   -5.9596214    328.41296  0.035868607  0.036624084            4 
  764000   0.93280552   -5.9481638     328.9123  0.035876123  0.036600774            2 
  765000   0.95517579   -5.9350346    330.20576  0.035970126  0.036577803            3 
  766000   0.92781572   -5.9313837    329.43557  0.035839379  0.036554756            4 
  767000   0.91172616   -5.9312869      330.096  0.035864406  0.036531417            4 
  768000   0.94429266   -5.9366082    329.42163  0.035744535  0.036507668            4 
  769000   0.94338988   -5.9175026    330.29659  0.035792869  0.036484074            6 
  770000   0.94262218   -5.9799177    329.71778  0.035683743  0.036460422            2 
  771000   0.95957099   -5.9635083    329.82393  0.035648933   0.03643663            6 
  772000   0.93820414   -5.9609933    330.60885  0.035687484  0.036412859            5 
  773000   0.94111264   -5.9419832    331.77335  0.035766856  0.036389302            5 
  774000   0.95108193   -5.9717074    330.52366  0.035586096  0.036366061            2 
  775000   0.94381833   -5.9301336    331.54865  0.035650392  0.036342604            2 
  776000   0.93395433   -5.9301414    332.21451  0.035675957  0.036319286            7 
  777000   0.93960739   -5.9605318     332.0882  0.035616495  0.036295948            3 
  778000   0.94472636   -5.9787512    331.68643  0.035527681  0.036272301            5 
  779000   0.93131596     -5.95776    331.11864  0.035421335  0.036248592            4 
  780000   0.93945333   -5.9711025    332.65966  0.035540562  0.036224848            6 
  781000   0.93937801   -5.9472012    332.43645  0.035471239  0.036201283            7 
  782000   0.95048032   -5.9379809    332.64051  0.035447624  0.036177342            4 
  783000   0.95136769   -5.9318499     333.1447  0.035456013  0.036153854            6 
  784000   0.95760439   -5.9625017    334.18404  0.035521263  0.036130143            2 
  785000   0.94271083   -5.9757767    333.94341  0.035450468  0.036106855            6 
  786000   0.94836376   -5.9687402    332.69528  0.035273036  0.036083136            6 
  787000   0.93848737   -5.9950199    334.42393  0.035411259  0.036059685            8 
  788000   0.90237149   -5.9565455    334.33717  0.035357146  0.036036122            4 
  789000    0.9199388   -5.9770589     335.5513  0.035440568  0.036012999            4 
  790000   0.93285603   -5.9998883    334.74679  0.035310843  0.035989836            3 
  791000   0.94025075   -5.9902653    335.32668  0.035327294   0.03596676           10 
  792000   0.92569661   -5.9501967     335.8356  0.035336237  0.035944049            6 
  793000   0.92689265   -6.0154838    335.87307  0.035295614  0.035921272            4 
  794000   0.93824437   -5.9800209    335.40089  0.035201605  0.035898526            4 
  795000   0.93861989    -5.997871    336.43648  0.035265878  0.035875641            4 
  796000   0.92396515   -5.9672536    336.99895  0.035280459  0.035853203            5 
  797000   0.91199145   -5.9745386    337.65427  0.035304713  0.035830507            5 
  798000    0.9368025   -5.9681071     337.8658  0.035282561  0.035808336            2 
  799000   0.95012691   -5.9895418     338.2297  0.035276356  0.035786198            3 
  800000   0.94442685     -5.98731    338.53745  0.035264318  0.035764206            6 
  801000   0.93699261   -5.9721993    338.58032  0.035224753   0.03574192            3 
  802000   0.91989502   -5.9863232    337.96133  0.035116514  0.035719786            4 
  803000    0.9297257   -6.0149729    337.60353  0.035035651   0.03569718            5 
  804000   0.91393409   -5.9631227    339.96061  0.035236382  0.035675139            2 
  805000   0.92999806   -5.9935666    339.62598  0.035157968  0.035653314            9 
  806000   0.92318141   -5.9941181    339.01247  0.035050917  0.035631176            8 
  807000   0.92327585    -6.009824    339.17158  0.035023914  0.035608982           10 
  808000    0.9165939   -5.9844307    341.01693  0.035170888  0.035586453            4 
[...]
 1800000   0.53055625   -7.0105145    395.64766  0.018317021  0.016933517          584 
 1801000   0.52360678   -7.0294437    396.48856   0.01834576  0.016919716          609 
 1802000   0.53440996   -7.0084057    396.42033  0.018332424  0.016905911          572 
 1803000   0.53114805   -7.0221767    396.31673  0.018317468  0.016892119          521 
 1804000   0.53591439   -7.0062507    397.51432  0.018362635  0.016878345          494 
 1805000   0.54653554   -7.0100793    396.62029  0.018311186  0.016864604          528 
 1806000   0.53451289   -7.0356925    396.90933  0.018314384  0.016850864          580 
 1807000   0.54190598   -7.0306443    395.91138  0.018258226  0.016837131          635 
 1808000   0.53229686   -7.0315058    396.67754  0.018283441  0.016823399          492 
 1809000   0.53116837    -7.018282    396.35309  0.018258388  0.016809663          579 
 1810000   0.53761995   -7.0143952    396.82083  0.018269836  0.016795942          534 
 1811000   0.53222017   -7.0473931    396.22427  0.018232297  0.016782239          662 
 1812000   0.53134429   -7.0317697    395.68731   0.01819754  0.016768548          673 
 1813000   0.52384315   -7.0302116    396.54676  0.018227007   0.01675486          381 
 1814000   0.52984786   -7.0399452    396.58501  0.018218716  0.016741181          566 
 1815000   0.53289332   -7.0347732    396.09917  0.018186372  0.016727513          521 
 1816000   0.53476411   -7.0304686    396.00966  0.018172249  0.016713834          552 
 1817000   0.52622645   -7.0335018    396.91304   0.01820368  0.016700166          506 
 1818000   0.51876532   -7.0408756    396.27535  0.018164437  0.016686521          642 
 1819000   0.52459024    -7.056635    396.11544  0.018147125  0.016672887          494 
 1820000   0.53177017   -7.0411263    396.34364  0.018147603  0.016659275          489 
 1821000   0.52622957   -7.0510979    395.72069  0.018109129  0.016645674          633 
 1822000   0.52192316   -7.0561168    396.00104  0.018112013  0.016632098          518 
 1823000    0.5220033   -7.0365663    396.58173  0.018128622  0.016618517          625 
 1824000   0.52275732   -7.0650669    395.96185  0.018090362  0.016604942          626 
 1825000   0.52581318   -7.0261077    396.54755  0.018107194  0.016591425          527 
 1826000   0.53226782   -7.0478702    396.79777  0.018108697  0.016577901          572 
 1827000   0.51941021   -7.0396444    396.04286  0.018064352  0.016564385          589 
 1828000   0.51810027   -7.0416675    396.37848   0.01806977  0.016550874          593 
 1829000   0.52512563   -7.0376651    396.22919  0.018053089  0.016537347          589 
 1830000   0.51797358   -7.0497389     396.2963   0.01804628  0.016523854          536 
 1831000   0.52455757   -7.0485818    396.12866  0.018028794  0.016510348          603 
 1832000   0.51859426   -7.0576445    395.95675  0.018011133  0.016496855          571 
 1833000   0.51401869   -7.0181424    396.01414  0.018003916  0.016483397          670 
 1834000   0.51932018   -7.0403754     395.6723  0.017978567   0.01646994          641 
 1835000   0.52029671   -7.0609066    395.15714  0.017945374  0.016456503          675 
 1836000   0.52546525   -7.0735914    395.63641  0.017957353  0.016443065          691 
 1837000   0.53235389   -7.0673729    395.64037  0.017947758  0.016429635          596 
 1838000   0.52278044   -7.0467526    395.85327  0.017947646  0.016416229          732 
 1839000   0.52480199   -7.0632563    395.36505  0.017915763   0.01640285          733 
 1840000   0.51930737   -7.0613363    396.12483  0.017940436  0.016389461          652 
 1841000   0.51262812   -7.0487468    396.06698  0.017928073  0.016376102          647 
 1842000   0.51884226   -7.0538968    396.19433  0.017924101  0.016362757          697 
 1843000   0.52180742   -7.0736664    395.88615  0.017900441  0.016349422          714 
 1844000    0.5157135   -7.0696239     395.3536  0.017866666  0.016336093          653 
 1845000   0.52024849   -7.0734646    395.43429  0.017860628  0.016322786          588 
 1846000   0.51540777   -7.0702482    395.25485  0.017842852  0.016309483          754 
 1847000    0.5164901   -7.0485875    395.60264  0.017848883  0.016296203          672 
 1848000   0.52039825   -7.0672447    395.41597  0.017830807  0.016282933          747 
 1849000   0.51633535   -7.0540165    395.82927   0.01783979  0.016269679          653 
 1850000   0.50995833   -7.0721137    395.60954   0.01782025   0.01625643          707 
 1851000   0.52040391   -7.0576951    395.67555  0.017813594   0.01624319          760 
 1852000   0.50795188   -7.0879056    395.62389  0.017801651  0.016229953          788 
 1853000   0.51751098   -7.0858151    395.19087   0.01777257  0.016216718          751 
 1854000   0.51138321   -7.0719684    396.34415  0.017814822   0.01620351          704 
 1855000   0.50618795   -7.0682025    394.57765   0.01772586  0.016190305          722 
 1856000   0.50442635   -7.0520031    395.85887  0.017773836  0.016177117          686 
 1857000   0.51353038   -7.0763661    395.54498  0.017750179  0.016163921          852 
 1858000   0.51904532   -7.0680819    395.56658  0.017741594  0.016150752          715 
 1859000   0.51472011   -7.0786171    395.05033  0.017708908  0.016137568          762 
 1860000    0.5105154   -7.0854189    395.96743  0.017740476  0.016124426          692 
 1861000   0.50879214    -7.073768    395.32556  0.017702201  0.016111298          759 
 1862000   0.50834491   -7.0604812    395.72085  0.017710385  0.016098162          864 
 1863000   0.49502496   -7.0736986    394.52216  0.017647261  0.016085039          669 
 1864000   0.51569357   -7.0999806    394.79552  0.017650014  0.016071918          794 
 1865000   0.50843041   -7.0811418    394.96115  0.017647951  0.016058832          729 
 1866000    0.5184992   -7.1066155    395.74855  0.017673658  0.016045741          705 
 1867000   0.50720144   -7.0928551    395.19036  0.017639277  0.016032664          690 
 1868000   0.49687277    -7.081068    395.28675  0.017634134  0.016019609          705 
 1869000   0.50497223   -7.0930939    395.06369  0.017614754  0.016006564          751 
 1870000   0.50332089   -7.0836669    395.37228  0.017619086  0.015993519          745 
 1871000   0.49922962   -7.0910117    394.65177  0.017577577  0.015980492          761 
 1872000   0.50521213   -7.1001469    395.28575   0.01759641  0.015967467          810 
 1873000   0.50088442   -7.0789605    395.92681  0.017615537  0.015954471          745 
 1874000   0.50481038   -7.0867239    394.21794  0.017530147   0.01594148          667 
 1875000   0.49346383   -7.0799654    395.28675    0.0175683  0.015928502          590 
 1876000   0.50284328    -7.089772    395.26571  0.017558001  0.015915519          754 
 1877000   0.51597433   -7.0822279    394.36516  0.017508665  0.015902549          759 
 1878000   0.49897977   -7.0831771    395.04769  0.017529628  0.015889583          687 
 1879000   0.50583847   -7.0880575    395.31302  0.017532066   0.01587665          671 
 1880000   0.48866173   -7.0994319    394.82509  0.017501112  0.015863718          754 
 1881000   0.50651102   -7.1056996    394.66881  0.017484884  0.015850796          707 
 1882000   0.49871401   -7.1074879    394.63983  0.017474311  0.015837893          738 
 1883000   0.49481938   -7.0963674    395.25263   0.01749215  0.015825001          753 
 1884000   0.48971716   -7.1029001     395.4749  0.017492697  0.015812117          734 
 1885000   0.49805051   -7.1059015    394.28699  0.017430901  0.015799251          741 
 1886000   0.50187438   -7.1022246    394.15082  0.017415643  0.015786399          726 
 1887000   0.50039845   -7.0940172    394.19749  0.017408474  0.015773557          769 
 1888000    0.4995119   -7.1009643    394.89548  0.017430062  0.015760711          701 
 1889000   0.49908801   -7.1152112    394.78065  0.017415769  0.015747898          714 
 1890000   0.50487958   -7.1032771     394.5698  0.017397257  0.015735077          716 
 1891000   0.49039573   -7.0904124    395.03515  0.017408565  0.015722285          652 
 1892000   0.48960566   -7.1160693    394.73084   0.01738596  0.015709496          809 
 1893000   0.49994755   -7.1024612    395.12558  0.017394153  0.015696734          841 
 1894000   0.50525815   -7.0818357    395.22039  0.017389141  0.015683995          812 
 1895000   0.49239028    -7.100718    394.96913  0.017368915  0.015671263          870 
 1896000   0.48925124   -7.1009646    395.27017  0.017372986   0.01565854          766 
 1897000   0.49469085   -7.1013258    394.60296  0.017334517  0.015645816          718 
 1898000   0.48524453   -7.1026738    394.98334  0.017342086  0.015633109          877 
 1899000   0.50955933   -7.1078053    394.70905  0.017320917  0.015620414          827 
 1900000   0.50392016   -7.1021039    394.61136  0.017307516  0.015607728          722 
 1901000    0.5008909   -7.1125488    394.39439    0.0172889  0.015595047          796 
 1902000   0.49525851    -7.101053    394.93009  0.017303281  0.015582374          670 
 1903000   0.48564769   -7.1049362    394.29151  0.017266225  0.015569725          804 
 1904000    0.4917239   -7.1075701    394.35577  0.017259969  0.015557102          784 
 1905000   0.49809749   -7.1188583    394.27565  0.017247404  0.015544472          754 
 1906000   0.48575357   -7.1108635    394.69267  0.017256588  0.015531882          802 
 1907000   0.48755677   -7.1184352    394.70063  0.017247886  0.015519285          799 
 1908000   0.49522391   -7.1157323    394.34391  0.017223266  0.015506697          746 
 1909000   0.48800031   -7.1104128    394.51918  0.017221896  0.015494117          786 
 1910000   0.49899412   -7.1088449    394.83087  0.017226478  0.015481555          797 
 1911000   0.49771092   -7.1055594    395.15235  0.017231482  0.015468995          684 
 1912000     0.481068   -7.1322512    393.58526  0.017154169  0.015456431          797 
 1913000   0.49741193   -7.1309977    394.56338  0.017187811  0.015443874          794 
 1914000   0.49323028   -7.1147957    394.59233  0.017180091  0.015431335          796 
 1915000   0.48672832   -7.1150671    394.01027  0.017145791  0.015418798          724 
 1916000   0.48721999   -7.1201103    394.54529  0.017160112  0.015406299          840 
 1917000   0.48264254   -7.1363693    393.93402  0.017124588   0.01539378          757 
 1918000   0.49665013    -7.116034    394.56226  0.017142956  0.015381299          721 
 1919000   0.48637721   -7.1333804    393.80971  0.017101342  0.015368827          834 
 1920000   0.47651105   -7.1319087    394.33547  0.017115255  0.015356361          779 
 1921000   0.48626711   -7.1208712    394.46862  0.017112121  0.015343905          841 
 1922000   0.48088255   -7.1213332    393.94714  0.017080608  0.015331463          709 
 1923000    0.4884616   -7.1364664    393.99118  0.017073634  0.015319043          793 
 1924000   0.48056548   -7.1217637    393.96873  0.017063788  0.015306627          829 
 1925000   0.48461048   -7.1288648    393.52527  0.017035726  0.015294222          770 
 1926000   0.47738701   -7.1311227    394.55693  0.017071518  0.015281816          795 
 1927000   0.48063641   -7.1392974     394.3282  0.017052768  0.015269443          760 
 1928000   0.48924175   -7.1214833    394.38896  0.017046549  0.015257085          725 
 1929000   0.48814728   -7.1190324    393.75968  0.017010527  0.015244727          800 
 1930000   0.47605723    -7.134104    394.17335  0.017019575  0.015232364          786 
 1931000   0.49054925   -7.1371721    394.50856  0.017025227  0.015220021          757 
 1932000   0.47973908   -7.1438566    393.55401  0.016975242   0.01520769          716 
 1933000   0.46872737   -7.1416988    393.90829  0.016981734  0.015195368          802 
 1934000   0.47415713    -7.149874    394.22414  0.016986562  0.015183056          778 
 1935000   0.47592689   -7.1571279    393.56255  0.016949292  0.015170763          758 
 1936000   0.47681587   -7.1382427    393.70475  0.016946658   0.01515848          754 
 1937000   0.48238914   -7.1447102    394.03141  0.016951962  0.015146222          731 
 1938000   0.46554265   -7.1395021    393.86181  0.016935922  0.015133981          654 
 1939000   0.47868685   -7.1268773    394.60164  0.016958984  0.015121747          735 
 1940000    0.4799725   -7.1355167    394.13789  0.016930322   0.01510953          786 
 1941000   0.48034548   -7.1372114    394.21189  0.016924776   0.01509732          770 
 1942000   0.47960345   -7.1240737    394.39135  0.016923762  0.015085109          741 
 1943000   0.48126089   -7.1430123    393.67463  0.016884312  0.015072918          680 
 1944000   0.47346352   -7.1268774     393.8457   0.01688296  0.015060738          686 
 1945000   0.47131042   -7.1405383    393.60305  0.016863884  0.015048571          635 
 1946000   0.48707931    -7.148261    393.55764  0.016853273  0.015036411          717 
 1947000    0.4843208   -7.1302235    393.82829  0.016856201  0.015024249          788 
 1948000   0.47277769   -7.1333978    393.74657  0.016844052  0.015012111          798 
 1949000   0.46409338   -7.1438552     394.0058  0.016846494   0.01499999          790 
 1950000   0.46077807    -7.133093    394.22702  0.016847309  0.014987875          760 
 1951000   0.48212178   -7.1422127    393.78387  0.016819745  0.014975784          717 
 1952000   0.46889904   -7.1454353    393.52266  0.016799977  0.014963698          715 
 1953000   0.47920435   -7.1339261    394.29559  0.016824355  0.014951625          829 
 1954000   0.47444158   -7.1484186    393.51168  0.016782313  0.014939562          788 
 1955000   0.47046137   -7.1406267    393.43574  0.016770492  0.014927505          745 
 1956000   0.47211016   -7.1363652    393.82348  0.016778437  0.014915452          805 
 1957000   0.46869394   -7.1568512    393.74184  0.016766387  0.014903414          724 
 1958000   0.46862504   -7.1457946    393.45912  0.016745792  0.014891363          789 
 1959000   0.46269376    -7.157807    393.23855  0.016727861  0.014879338          773 
 1960000   0.46912613    -7.148977    393.41697  0.016726912  0.014867324          634 
 1961000    0.4757857   -7.1637614    393.25954  0.016711692  0.014855313          753 
 1962000   0.47738738    -7.159911    393.35873  0.016707387  0.014843312          768 
 1963000   0.46845249   -7.1542222    393.58971  0.016708682  0.014831333          813 
 1964000   0.46071674   -7.1477581    394.14893  0.016723902  0.014819353          781 
 1965000   0.46640377    -7.156228     392.5026  0.016645573  0.014807393          846 
 1966000   0.47416492   -7.1706947    393.30585  0.016671154  0.014795447          749 
 1967000   0.46798529    -7.152198    393.68771  0.016678856  0.014783507          804 
 1968000   0.47564371   -7.1662723    393.72495  0.016671958   0.01477159          816 
 1969000     0.466641   -7.1517278    393.61092  0.016658664  0.014759683          713 
 1970000   0.46353884   -7.1586442      393.127  0.016629738  0.014747777          789 
 1971000   0.47218255   -7.1396054    393.27301  0.016627474  0.014735889          812 
 1972000    0.4698794   -7.1449953    393.61806  0.016633623  0.014724028          720 
 1973000    0.4600967   -7.1603133    393.84345  0.016634712  0.014712171          804 
 1974000   0.45998866   -7.1541373    393.45072  0.016609706  0.014700326          732 
 1975000   0.46917079   -7.1563857    394.19702  0.016632786  0.014688493          731 
 1976000   0.48217755   -7.1722992    393.21129  0.016582797  0.014676678          768 
 1977000   0.47425652   -7.1503621    393.12288  0.016570683  0.014664869          771 
 1978000   0.46600455   -7.1498388    393.49944   0.01657817  0.014653068          809 
 1979000   0.46458809    -7.148988    393.49287  0.016569516  0.014641286          735 
 1980000   0.46076659   -7.1634614    392.54792  0.016521377  0.014629503          735 
 1981000   0.46743189   -7.1557559    394.02253  0.016575069  0.014617736          749 
 1982000   0.46446961    -7.168823    393.11748  0.016528653  0.014605987          741 
 1983000    0.4735763   -7.1839246    393.06458  0.016518095  0.014594234          806 
 1984000   0.46174495   -7.1524849    393.88226  0.016544114   0.01458249          760 
 1985000   0.46180795   -7.1575144    393.09154  0.016502584  0.014570766          897 
 1986000   0.45798842   -7.1641035    393.22901  0.016500042  0.014559023          806 
 1987000   0.45963375   -7.1666637    392.95823  0.016480382  0.014547294          659 
 1988000   0.45982817   -7.1655411    393.34128  0.016488149  0.014535584          803 
 1989000   0.44314931    -7.172828    393.87145  0.016502072  0.014523884          820 
 1990000   0.46560663   -7.1729206    392.81604  0.016449583  0.014512194          855 
 1991000   0.45589725   -7.1854873    393.17195  0.016456217  0.014500534          801 
 1992000   0.45238186   -7.1758718    392.96212  0.016439179  0.014488884          792 
 1993000   0.46383792   -7.1524666    394.27343   0.01648576  0.014477241          709 
 1994000   0.45732747    -7.183406    392.33986  0.016396684  0.014465606          728 
 1995000   0.46173389   -7.1783095    393.28813  0.016428076  0.014453968          798 
 1996000   0.45218503   -7.1911924    392.72648  0.016396396   0.01444235          828 
 1997000   0.46036921   -7.1813848    393.05757  0.016402002   0.01443075          867 
 1998000   0.45298545   -7.1820595    393.12852  0.016396752  0.014419148          816 
 1999000   0.46142694   -7.1923511    392.48647  0.016361784  0.014407558          827 
 2000000   0.44714225   -7.1793911    392.25155  0.016343815  0.014395972          821 
 2001000   0.46223246   -7.1797434     392.5655  0.016348722  0.014384402          763 
 2002000   0.45331142   -7.1625104    392.31243  0.016330021  0.014372853          800 
 2003000   0.45712643   -7.1882015    393.40633  0.016367379  0.014361297          761 
 2004000   0.45585728   -7.1814375    392.62769  0.016326833  0.014349758          748 
 2005000   0.45391705   -7.1786549    393.05692   0.01633653   0.01433823          751 
 2006000   0.44384512   -7.1914445    392.62882  0.016310602  0.014326719          823 
 2007000   0.45866586   -7.1925404    392.14404  0.016282347  0.014315189          862 
 2008000   0.45814223   -7.1791347     392.7869  0.016300917    0.0143037          660 
 2009000   0.46251959   -7.1866898    392.17426  0.016267391   0.01429222          677 
 2010000   0.45633515     -7.18548    392.37915  0.016267792  0.014280741          678 
 2011000   0.45181808    -7.192759    392.70061  0.016273024  0.014269266          747 
 2012000    0.4502665   -7.1834634    392.14056   0.01624174  0.014257804          829 
Loop time of 5200.85 on 48 procs for 2000000 steps with 4000 atoms

Performance: 66450.639 tau/day, 384.552 timesteps/s
99.4% CPU use with 48 MPI tasks x no OpenMP threads

MPI task timing breakdown:
Section |  min time  |  avg time  |  max time  |%varavg| %total
---------------------------------------------------------------
Pair    | 374.77     | 414.54     | 449.09     |  82.6 |  7.97
Neigh   | 36.001     | 37.274     | 38.939     |  11.4 |  0.72
Comm    | 333.27     | 365.99     | 403.65     |  87.7 |  7.04
Output  | 4.7913     | 4.7932     | 4.8436     |   0.3 |  0.09
Modify  | 4318.3     | 4331.5     | 4339.8     |   7.9 | 83.28
Other   |            | 46.8       |            |       |  0.90

Nlocal:        83.3333 ave          90 max          76 min
Histogram: 3 1 3 4 6 13 7 6 2 3
Nghost:        2400.81 ave        2420 max        2382 min
Histogram: 2 3 4 6 7 12 5 5 3 1
Neighs:        16675.8 ave       19696 max       13881 min
Histogram: 2 4 8 1 11 7 5 4 5 1
FullNghs:      33351.2 ave       35920 max       30333 min
Histogram: 3 1 3 4 7 10 8 7 2 3

Total # of neighbors = 1600858
Ave neighs/atom = 400.21450
Neighbor list builds = 107132
Dangerous builds = 0

#clear
#
#next RN
#
#jump SELF
Total wall time: 1:26:44
