
units lj                  # Use reduced LJ style units
atom_style atomic         # Uncharged point particles
atom_modify map hash      # Needed for indexing of clusters etc
                          # Used to be able to find where atoms are in relation to each other.

# Define a lattice with which to populate the simulation cell. With units
# set to 'lj' the second argument to the lattice command is the reduced
# density rho* and the spacings are multiples of that required to acheive
# that density. Also define a simulation cell called 'box' in lattice units
# and fill it with atoms. Here we're creating a box which is ten lattice
# constants in each direction.
lattice fcc 1.0 spacing 1 1 1                 # All equal sizes - gives the right reduced density.
Lattice spacing in x,y,z = 1.5874011 1.5874011 1.5874011

region box block 0 10 0 10 0 10 units lattice # Defines a region, "box", in lattice units
create_box 1 box                              # Creates a simulation box as specified above,
Created orthogonal box = (0.0000000 0.0000000 0.0000000) to (15.874011 15.874011 15.874011)
  3 by 4 by 4 MPI processor grid
                                              # with one type of atom
create_atoms 1 box                            # Creates particles on lattice points
Created 4000 atoms
  using lattice units in orthogonal box = (0.0000000 0.0000000 0.0000000) to (15.874011 15.874011 15.874011)
  create_atoms CPU = 0.004 seconds


# Set the mass of the first (and only) atom type.
mass 1 1.0

# Lennard-Jones interactions between particles, 3.5 sigma cut-off. Apply
# long range tail corrections to energy and pressure and set all coefficients
# to unity since we work in reduced units here. Note that this doesn't shift
# the potential such that it goes to zero at the cutoff. That would require
# pair_modify('shift', 'yes').
pair_style lj/cut  3.5      # non-GPU version
pair_modify tail  yes
pair_coeff 1  1  1.0  1.0   # Intearaction between 1 and 1 set with epsilon = 1 and sigma = 1

write_data data.*
System init for write_data ...
Neighbor list info ...
  update every 1 steps, delay 10 steps, check yes
  max neighbors/atom: 2000, page size: 100000
  master list distance cutoff = 3.8
  ghost atom cutoff = 3.8
  binsize = 1.9, bins = 9 9 9
  1 neighbor lists, perpetual/occasional/extra = 1 0 0
  (1) pair lj/cut, perpetual
      attributes: half, newton on
      pair build: half/bin/atomonly/newton
      stencil: half/bin/3d
      bin: standard

#############################
#   M E L T   S Y S T E M   #
#############################

velocity all create 2.4 6229865 mom yes dist gaussian # Assign velocities
                                                    # Temperature 2.4, random number seed, zero linear momentum
						                                                        # Gaussian distribution

timestep 0.002   # simulation timestep
thermo 1000       # output thermodynamic data every 1000 steps

# Define a fix  in this case with index 1 applied to all
# particles in the simulation. This fix is for simulations
# in the anisotropic NPT ensemble. Note that we use the MTK
# correction.
fix 1 all npt temp 2.4 2.4 0.1 iso 5.68 5.68 0.5 mtk yes tchain 5 pchain 5 # Use NPT ensemble
                                                                         # Set temperature and pressure and damping
                                                                         # Numbers of thermostats in chain and in barostat
run 1000         # run for 10000 steps
Per MPI rank memory allocation (min/avg/max) = 3.642 | 3.644 | 3.648 Mbytes
Step Temp E_pair E_mol TotEng Press Volume 
       0          2.4   -8.3859253            0   -4.7868253   -2.2405722         4000 
    1000    2.3673149   -4.4811735            0  -0.93108891    5.4341652    5181.8809 
Loop time of 0.216295 on 48 procs for 1000 steps with 4000 atoms

Performance: 798910.137 tau/day, 4623.323 timesteps/s
99.5% CPU use with 48 MPI tasks x no OpenMP threads

MPI task timing breakdown:
Section |  min time  |  avg time  |  max time  |%varavg| %total
---------------------------------------------------------------
Pair    | 0.093973   | 0.099692   | 0.10798    |   1.1 | 46.09
Neigh   | 0.017858   | 0.018749   | 0.02026    |   0.4 |  8.67
Comm    | 0.062743   | 0.073873   | 0.080764   |   1.5 | 34.15
Output  | 2.4763e-05 | 2.5822e-05 | 3.3392e-05 |   0.0 |  0.01
Modify  | 0.020522   | 0.022417   | 0.024943   |   0.9 | 10.36
Other   |            | 0.001538   |            |       |  0.71

Nlocal:        83.3333 ave          93 max          73 min
Histogram: 3 0 4 4 7 9 11 6 2 2
Nghost:        1387.69 ave        1414 max        1367 min
Histogram: 3 5 6 3 12 8 6 2 2 1
Neighs:        7359.17 ave        8798 max        6287 min
Histogram: 3 2 7 11 7 9 6 0 1 2

Total # of neighbors = 353240
Ave neighs/atom = 88.310000
Neighbor list builds = 87
Dangerous builds = 25

# Equilibrate just above the melting temperature to avoid step fn in T

fix 1 all npt temp 1.25 1.25 0.1 iso 5.68 5.68 0.5 mtk yes tchain 5 pchain 5
run 1000
Per MPI rank memory allocation (min/avg/max) = 3.642 | 3.644 | 3.648 Mbytes
Step Temp E_pair E_mol TotEng Press Volume 
    1000    2.3673149   -4.4811735            0  -0.93108891    5.4341652    5181.8809 
    2000    1.2267189   -5.8365426            0   -3.9969242     5.526825     4357.147 
Loop time of 0.21525 on 48 procs for 1000 steps with 4000 atoms

Performance: 802788.311 tau/day, 4645.766 timesteps/s
99.6% CPU use with 48 MPI tasks x no OpenMP threads

MPI task timing breakdown:
Section |  min time  |  avg time  |  max time  |%varavg| %total
---------------------------------------------------------------
Pair    | 0.093087   | 0.099845   | 0.10893    |   1.0 | 46.39
Neigh   | 0.015602   | 0.016539   | 0.018042   |   0.4 |  7.68
Comm    | 0.06435    | 0.074024   | 0.083277   |   1.3 | 34.39
Output  | 2.372e-05  | 2.4413e-05 | 3.116e-05  |   0.0 |  0.01
Modify  | 0.01862    | 0.022902   | 0.025861   |   1.2 | 10.64
Other   |            | 0.001916   |            |       |  0.89

Nlocal:        83.3333 ave          92 max          76 min
Histogram: 3 5 0 11 8 7 8 3 2 1
Nghost:        1554.94 ave        1577 max        1535 min
Histogram: 2 2 4 9 7 14 2 6 1 1
Neighs:        8736.65 ave        9525 max        7851 min
Histogram: 2 5 3 3 9 8 3 9 4 2

Total # of neighbors = 419359
Ave neighs/atom = 104.83975
Neighbor list builds = 76
Dangerous builds = 8


# Small amount of linear quench

fix 1 all npt temp 1.25 ${temp} 0.1 iso 5.68 5.68 0.5 mtk yes tchain 5 pchain 5
fix 1 all npt temp 1.25 1.62 0.1 iso 5.68 5.68 0.5 mtk yes tchain 5 pchain 5
run 2000
Per MPI rank memory allocation (min/avg/max) = 3.643 | 3.645 | 3.648 Mbytes
Step Temp E_pair E_mol TotEng Press Volume 
    2000    1.2267189   -5.8365426            0   -3.9969242     5.526825     4357.147 
    3000    1.4297581   -5.5873042            0   -3.4432032    5.6619222    4467.9921 
    4000    1.6009726   -5.2982691            0   -2.8974106    5.4450705    4643.5774 
Loop time of 0.440118 on 48 procs for 2000 steps with 4000 atoms

Performance: 785244.081 tau/day, 4544.237 timesteps/s
99.7% CPU use with 48 MPI tasks x no OpenMP threads

MPI task timing breakdown:
Section |  min time  |  avg time  |  max time  |%varavg| %total
---------------------------------------------------------------
Pair    | 0.19265    | 0.20456    | 0.23878    |   2.1 | 46.48
Neigh   | 0.029704   | 0.031333   | 0.036634   |   0.8 |  7.12
Comm    | 0.11173    | 0.15311    | 0.16831    |   3.0 | 34.79
Output  | 4.6838e-05 | 4.8168e-05 | 6.1919e-05 |   0.0 |  0.01
Modify  | 0.03492    | 0.046828   | 0.064216   |   3.4 | 10.64
Other   |            | 0.004242   |            |       |  0.96

Nlocal:        83.3333 ave          89 max          75 min
Histogram: 3 0 3 1 3 13 7 11 5 2
Nghost:        1488.46 ave        1504 max        1466 min
Histogram: 3 2 2 2 3 7 8 13 6 2
Neighs:        8206.50 ave        8917 max        7240 min
Histogram: 2 1 1 4 5 9 13 10 1 2

Total # of neighbors = 393912
Ave neighs/atom = 98.478000
Neighbor list builds = 140
Dangerous builds = 0

#############################
# F R E E Z E  S Y S T E M  #
#############################

# Define solid atoms. This closely follows ten Wolde  Ruiz-Montero and Frenkel  Faraday Discuss  1996  104  93-110
# Compute components of the per-atom q6 vector
compute q6 all orientorder/atom degrees 1 6 components 6 nnn NULL cutoff 1.3 # compute the Q6 parameter.
                                                                             # Use all neighbours within 1.3 unit cell.

# get number of connections
compute coord_number all coord/atom orientorder q6 0.5

# An atom is solid if it has 8 or more connections (of a possible 14)
variable is_solid atom c_coord_number>=8
group solid dynamic all var is_solid    # Must be dynamic to update
dynamic group solid defined

# do clustering
compute cluster solid cluster/atom 1.3 # Create a cluster where all atoms within are solid and max 1.3 units from another member

# define chunks one chunk per cluster
compute clus_chunks solid chunk/atom c_cluster nchunk every compress yes  # Says which atoms are in which chunk

# count the size of each chunk
compute size_chunks solid property/chunk clus_chunks count


# Find the maximum entry in the vector of chunk sizes
variable max_n equal max(c_size_chunks)


# Thermo style which includes this variable
thermo_style custom step temp pe vol v_max_n

thermo ${N}  # Print the thermo information every 100 steps
thermo 1000  

# Reset the npt fix at a lower temperature (below freezing)
fix 1  all npt temp  ${temp} ${temp}  0.1  iso  5.68  5.68  0.5  mtk yes tchain  5  pchain  5
fix 1  all npt temp  1.62 ${temp}  0.1  iso  5.68  5.68  0.5  mtk yes tchain  5  pchain  5
fix 1  all npt temp  1.62 1.62  0.1  iso  5.68  5.68  0.5  mtk yes tchain  5  pchain  5

dump dmp2 all dcd ${N} traj_${rand}.dcd
dump dmp2 all dcd 1000 traj_${rand}.dcd
dump dmp2 all dcd 1000 traj_462431.dcd


# fix rnuntil all halt ${N} v_max_n >= 3980 error soft message no   # Stop when solidified


run 1000000 # 5000000  # Run for this many steps
Neighbor list info ...
  update every 1 steps, delay 10 steps, check yes
  max neighbors/atom: 2000, page size: 100000
  master list distance cutoff = 3.8
  ghost atom cutoff = 3.8
  binsize = 1.9, bins = 9 9 9
  4 neighbor lists, perpetual/occasional/extra = 1 3 0
  (1) pair lj/cut, perpetual
      attributes: half, newton on
      pair build: half/bin/atomonly/newton
      stencil: half/bin/3d
      bin: standard
  (2) compute orientorder/atom, occasional
      attributes: full, newton on
      pair build: full/bin/atomonly
      stencil: full/bin/3d
      bin: standard
  (3) compute coord/atom, occasional
      attributes: full, newton on
      pair build: full/bin/atomonly
      stencil: full/bin/3d
      bin: standard
  (4) compute cluster/atom, occasional
      attributes: full, newton on
      pair build: full/bin/atomonly
      stencil: full/bin/3d
      bin: standard
Per MPI rank memory allocation (min/avg/max) = 9.335 | 9.341 | 9.345 Mbytes
Step Temp PotEng Volume v_max_n 
    4000    1.6009726   -5.2982691    4643.5774            1 
    5000    1.6159395   -5.2815843    4623.7681            1 
    6000     1.589053   -5.3130636    4604.7928            2 
    7000    1.6124705   -5.3186492    4621.9744            1 
    8000    1.5949212   -5.3137873    4644.4795            1 
    9000    1.6459183   -5.3304249    4593.6345            1 
   10000    1.5977224   -5.2717958    4634.0863            2 
   11000    1.6258541   -5.2626771    4615.8571            2 
   12000    1.6342186   -5.2732359    4626.3438            1 
   13000     1.592713   -5.2802174    4607.6447            1 
   14000    1.6278028   -5.3550656    4627.5045            1 
   15000    1.6412467   -5.2997914      4599.13            1 
   16000    1.5993216   -5.2621954    4630.0047            2 
   17000    1.6022358   -5.3127195    4622.2973            3 
   18000    1.6285022   -5.2905024    4634.1698            2 
   19000    1.5996674   -5.2861251     4631.851            2 
   20000    1.6075175   -5.2825844    4643.1536            2 
   21000    1.6083774   -5.2883207    4609.5922            1 
   22000    1.5824203   -5.2965208    4638.7904            2 
   23000     1.646207   -5.2934596    4622.9472            2 
   24000     1.610356   -5.3011092    4647.9986            1 
   25000    1.6334076   -5.2510475    4654.9905            1 
   26000    1.6188023   -5.2656359    4628.0645            2 
   27000    1.6026957   -5.2553644    4625.8519            4 
   28000    1.6418338   -5.2340541    4660.9534            2 
   29000    1.6560437   -5.2941559    4602.6965            6 
   30000    1.6030739   -5.3079223    4627.0911            1 
   31000    1.6489411   -5.3048906    4609.1292            3 
   32000     1.608156   -5.2996459    4617.8756            1 
   33000    1.6281111   -5.2815138    4630.8643            1 
   34000    1.6333904   -5.2589757     4646.292            1 
   35000     1.638546   -5.2782402    4623.8602            1 
   36000    1.6200472   -5.3052427    4620.5244            1 
   37000    1.5838696   -5.2806122    4663.8139            2 
   38000    1.5873106    -5.334737    4624.4573            1 
   39000    1.6008284   -5.2759751    4615.7367            1 
   40000    1.5757245   -5.3212679    4594.0658            3 
   41000    1.6037418   -5.3026061    4635.7699            2 
   42000    1.5637774    -5.268427     4644.989            2 
   43000    1.6599374   -5.2888088    4632.3681            2 
   44000    1.6366159   -5.2923016    4597.3175            2 
   45000    1.6545316   -5.2691985    4646.6497            2 
   46000    1.6289501   -5.2726692    4634.2787            2 
   47000    1.5925406   -5.3696402    4593.1095            1 
   48000    1.6227191   -5.2505511    4651.5504            1 
   49000    1.5706911   -5.3013789    4638.6007            1 
   50000     1.597233    -5.239553    4636.0185            1 
   51000    1.6861048   -5.2830031    4604.3855            1 
   52000    1.6232091   -5.3204411    4608.0292            2 
   53000    1.5845821   -5.3095508    4652.3097            1 
   54000    1.6011505   -5.3003557    4611.8625            1 
   55000    1.6281445   -5.3053108    4619.3754            1 
   56000    1.6194724    -5.285373     4626.237            1 
   57000     1.620695    -5.305324    4622.2194            1 
   58000    1.6448216   -5.2996431    4611.4868            2 
   59000    1.6040399   -5.2962001    4637.6207            2 
   60000    1.6134647   -5.2867391    4644.9649            1 
   61000    1.6275763   -5.3077998    4622.8182            2 
   62000    1.6014591   -5.2366405    4639.0983            1 
   63000    1.6374531   -5.2752014    4644.6512            1 
   64000    1.5772131   -5.2844238    4638.6966            1 
   65000    1.6043003   -5.2865189    4604.5124            2 
   66000    1.6194859   -5.2684615    4640.6787            2 
   67000    1.6529012   -5.3019875    4639.8303            3 
   68000    1.6277108   -5.2854085    4634.0014            2 
   69000     1.636916   -5.3246384    4609.3885            1 
   70000     1.650001   -5.2833206    4633.6852            1 
   71000    1.6136716   -5.2710123    4627.9643            2 
   72000    1.6504478   -5.2969626    4634.1074            1 
   73000    1.6185335    -5.271584    4628.8604            1 
   74000    1.6359917    -5.337278    4602.8738            1 
   75000    1.6194601   -5.3022245    4642.3319            2 
   76000    1.6553557   -5.3109826    4616.8066            3 
   77000    1.5943331   -5.2753225      4661.98            3 
   78000    1.6101872   -5.2661287    4645.4969            2 
   79000    1.6450207   -5.2859971    4614.3459            3 
   80000    1.6440109   -5.2635438    4624.7473            1 
   81000    1.6595996   -5.2706368    4620.0756            3 
   82000    1.5783084   -5.2910634    4626.3523            1 
   83000    1.5819571   -5.2861232    4618.8615            1 
   84000    1.6030785   -5.2989036    4602.9624            1 
   85000      1.65577   -5.2795576    4625.2286            3 
   86000    1.5982311   -5.2610559    4649.6756            1 
   87000    1.6432737   -5.3003884    4600.4179            1 
   88000    1.6289919   -5.2754534    4666.7695            1 
   89000      1.59697   -5.2527278    4632.3633            2 
   90000    1.6362552   -5.3228618    4592.4534            1 
   91000    1.5990349   -5.2583261    4660.5419            2 
   92000    1.6163107   -5.3022218     4601.079            1 
   93000    1.6237689   -5.2620807    4653.9047            2 
   94000    1.6260542   -5.2970179    4649.7575            1 
   95000    1.6155345   -5.3018722    4623.1364            1 
   96000    1.6098588   -5.2527998    4653.6795            3 
   97000    1.6431573    -5.317446    4642.5806            2 
   98000    1.6050745   -5.3257672    4600.1386            1 
   99000    1.5993557   -5.2495667    4657.9618            2 
  100000    1.6052951   -5.2877389    4621.8575            1 
  101000    1.6093239   -5.2493198    4622.4636            1 
  102000    1.6229701   -5.2599385    4640.4368       -1e+20 
  103000    1.6341267   -5.2598537    4664.5912            1 
  104000    1.6090322   -5.2673725    4618.9937            1 
  105000     1.639119   -5.3113823    4608.4477            1 
  106000    1.6128904   -5.2672884    4617.3409            2 
  107000    1.6191699   -5.3023693    4617.7085            2 
  108000    1.6132605   -5.2693241     4623.475            1 
  109000    1.6619197   -5.3209946    4608.0089            2 
  110000    1.6020639    -5.272245    4607.3255            2 
  111000    1.6558777   -5.1932438     4644.111            3 
  112000    1.6431443   -5.3087697    4614.8298            1 
  113000    1.6425028   -5.3295493    4599.7392            4 
  114000    1.6210923   -5.3173636    4606.3698            2 
  115000    1.6209117   -5.2485416    4637.5797            1 
  116000    1.6008953   -5.2862047    4612.1112            2 
  117000    1.6117476   -5.3045076    4602.2693            1 
  118000    1.6458389   -5.2883869    4624.9078            1 
  119000     1.585995   -5.3051315     4637.684            1 
  120000    1.6397333   -5.3358652      4614.51            1 
  121000    1.6282762   -5.2743241    4632.6991            2 
  122000    1.6415803    -5.339892    4619.0728            1 
  123000    1.5747481   -5.2705285    4617.8813            2 
  124000    1.6099714   -5.2526093     4626.571            2 
  125000    1.6258508   -5.3112054    4628.4499            1 
  126000    1.6320392   -5.3382904    4622.3825            1 
  127000    1.6111685   -5.2661893    4656.1813            1 
  128000    1.6345809   -5.2552966    4604.9372            1 
  129000    1.6181114   -5.2793643    4615.3209            1 
  130000    1.6225584   -5.2868651    4622.5745            1 
  131000    1.6017586    -5.323191    4634.4167            2 
  132000    1.5982954   -5.3055395    4627.9319            2 
  133000    1.6388547   -5.3032406    4607.7317            1 
  134000    1.6317666    -5.265823    4614.2089            1 
  135000    1.6018032   -5.2636932    4641.8933            1 
  136000    1.6117588   -5.3158165    4602.4338            3 
  137000    1.6134284   -5.3194973    4615.7981            1 
  138000    1.6028562    -5.307347    4630.7016            1 
  139000    1.6266725   -5.2913595    4620.4656            1 
  140000    1.6267665   -5.2420916    4633.4148            1 
  141000    1.6150011    -5.335173    4610.0489            2 
  142000    1.6068364   -5.2930652    4613.0515            2 
  143000     1.613028   -5.2507597    4663.0084            1 
  144000     1.571689   -5.2600602    4622.9987            1 
  145000    1.6024531   -5.3381315    4604.9412            2 
  146000     1.612755   -5.2815318     4638.769            1 
  147000    1.6046777    -5.274353    4623.5393            4 
  148000    1.5937424   -5.2855152    4622.4556            2 
  149000     1.600871   -5.2455067    4621.0084            3 
  150000    1.5688031   -5.2841199    4632.0868            1 
  151000    1.6214892   -5.2897477    4628.6815            1 
  152000    1.6152779   -5.2881815    4631.1824            1 
  153000    1.6263745   -5.2907613    4620.2588            1 
  154000    1.6096865   -5.2695449      4633.54            1 
  155000    1.6086797   -5.2251095    4640.4566            2 
  156000     1.643916   -5.3013832    4638.4196            1 
  157000    1.6129498   -5.2522739    4649.8057            2 
  158000    1.5972301   -5.2715964    4628.9341            2 
  159000     1.608224   -5.2716525    4627.8321            3 
  160000    1.6027069   -5.2438039    4624.3077            2 
  161000    1.6250303   -5.2603869    4620.4302            2 
  162000     1.581327   -5.2886215    4605.0183            2 
  163000     1.589796   -5.3218813    4619.7936            1 
  164000    1.6391651   -5.2601963     4636.903            1 
  165000    1.6367901   -5.2945786    4611.6896            2 
  166000    1.5956177   -5.3131806    4615.6943            3 
  167000    1.6168409   -5.3147119    4638.5559            1 
  168000    1.6305473   -5.2644714    4600.5351            1 
  169000    1.6384602   -5.3241216    4617.3958            3 
  170000    1.5970193   -5.2799058    4638.7518            2 
  171000    1.6154587   -5.3360721    4626.9599            1 
  172000     1.650844    -5.319769     4614.862            2 
  173000    1.6405751   -5.2822609    4623.2788            3 
  174000    1.6277649   -5.2673118    4623.4323            3 
  175000    1.6113813   -5.2988777    4626.6915            1 
  176000    1.5988592   -5.2868236    4623.0731            3 
  177000     1.607723   -5.3168322    4588.6778            4 
  178000    1.6129087   -5.3019217     4626.085            1 
  179000     1.614853   -5.2808234    4643.2234            1 
  180000    1.6531416   -5.2824568    4607.6566            2 
  181000    1.6216569    -5.258049    4612.2708            3 
  182000    1.5888497   -5.3023227     4626.576            2 
  183000     1.619556   -5.3430579    4613.9603            3 
  184000    1.6302921   -5.3100864    4640.1807            2 
  185000    1.6297203   -5.2941849    4593.0195            1 
  186000    1.6162697   -5.3032712    4618.8125            1 
  187000    1.6189426    -5.291923    4622.4522            2 
  188000    1.6085714   -5.2796203    4635.2418            1 
  189000    1.6134177   -5.3041694    4641.2014            2 
  190000    1.6431675   -5.2981717    4635.6904            3 
  191000    1.6129172   -5.2516761    4660.0907            1 
  192000    1.5866147   -5.2709185    4629.5485            1 
  193000    1.6357799   -5.2827755    4635.8515            3 
  194000    1.6097408   -5.2783767    4614.2793            1 
  195000    1.6390385   -5.2671679    4649.5638            1 
  196000    1.5936466   -5.2821927    4599.8773            2 
  197000    1.5992263     -5.29179     4629.497            2 
  198000    1.5789495   -5.2577572    4616.8174            3 
  199000    1.6231517   -5.2689122    4635.3492            5 
  200000    1.6179977   -5.3270323    4617.2578            2 
  201000    1.6134478   -5.2883229    4601.9504            2 
  202000     1.597122   -5.2773485    4629.1302            2 
  203000    1.5829734   -5.2615462    4628.1664            2 
  204000    1.6490542   -5.2644088    4607.8558            1 
  205000    1.6168887   -5.2937066    4647.3098            2 
  206000    1.6246672   -5.2884189    4610.8549            3 
  207000    1.6128508   -5.3379958    4607.5113            2 
  208000    1.6114805   -5.2505179    4634.9975            2 
  209000    1.6052201    -5.345169    4626.9541            2 
  210000    1.6225558   -5.2699654    4637.8262            2 
  211000    1.6186571   -5.2981887    4628.2998            2 
  212000    1.6179735   -5.2645207    4648.0381            1 
  213000    1.6320818   -5.3325346    4625.0983            3 
  214000    1.6207111   -5.3105616    4646.1194            1 
  215000    1.6023255   -5.2538242    4625.1919            1 
  216000    1.6373247   -5.2339328     4637.781            3 
  217000    1.6050543   -5.3137458    4619.5244            2 
  218000    1.6238142   -5.3276739    4610.9092            2 
  219000    1.6252021   -5.2850942    4627.2928            2 
  220000    1.6570255   -5.2710526    4642.3245            2 
  221000    1.5758608   -5.2546977    4629.7914            1 
  222000    1.6127816   -5.3179832    4627.2088            1 
  223000    1.6601543    -5.305025    4612.2233            3 
  224000      1.61556   -5.2873326    4626.9762            2 
  225000    1.6307449    -5.323865    4643.1004            2 
  226000    1.6435862   -5.2878404     4620.942            2 
  227000    1.5984527   -5.3194726    4614.4789            2 
  228000    1.5969527   -5.2692872    4633.2082            2 
  229000    1.6042388   -5.3119291    4599.5962            1 
  230000    1.6128119   -5.2709962    4636.0037            1 
  231000    1.6090333   -5.2708219    4648.0418            1 
  232000    1.6337268   -5.2628777      4632.56            1 
  233000    1.5930591   -5.2793035    4631.2919            4 
  234000    1.6215029     -5.29684    4622.2677            1 
  235000    1.6357367   -5.3006359    4640.6993            1 
  236000    1.6212945   -5.3181034    4608.9853            2 
  237000    1.5962512   -5.3075392    4611.5408            2 
  238000    1.5971189   -5.3244767    4631.9364            3 
  239000    1.5931941   -5.3147052     4647.124            1 
  240000    1.6174843   -5.3254701    4597.5992            1 
  241000     1.591716    -5.289833     4639.521            2 
  242000    1.6380754   -5.2475211    4643.9156            1 
  243000    1.6034841   -5.2960023    4649.0595            2 
  244000    1.6058505    -5.286153    4619.6779            2 
  245000    1.6481348   -5.3072114    4609.6714            3 
  246000    1.6290554   -5.2846478     4610.363            2 
  247000    1.6143692   -5.3277538    4619.7984            1 
  248000    1.6781553   -5.2580976    4618.5079            1 
  249000    1.5758966   -5.2937555    4597.5333            1 
  250000    1.6150255   -5.2960077    4633.2594            2 
  251000    1.6143831   -5.2444715    4634.1163            1 
  252000    1.6108399    -5.277432    4623.4367            1 
  253000    1.6234884   -5.2740982    4625.8637            2 
  254000    1.6003153    -5.258289    4624.8344            2 
  255000    1.6141529   -5.2764457    4632.7502            2 
  256000     1.603997   -5.2966949    4633.7686            2 
  257000    1.6211643   -5.2798664    4631.8316            2 
  258000    1.6368616   -5.2797259    4619.7116            1 
  259000    1.5888387   -5.3038539    4603.2115            1 
  260000    1.6319751   -5.2805347    4639.9949            2 
  261000    1.6218076   -5.2950669    4624.9901            1 
  262000    1.5965432   -5.3013345    4633.3278            2 
  263000    1.6338229   -5.3260591    4644.7036            2 
  264000    1.6180322   -5.2802546    4607.2506            3 
  265000    1.6211223   -5.2990187    4625.9945            1 
  266000    1.6344979    -5.281471    4642.9414            1 
  267000    1.6002744   -5.3105717    4613.5068            2 
  268000     1.636372   -5.2773396    4633.9824            1 
  269000    1.6345385   -5.2314908    4631.9048            2 
  270000    1.6331383   -5.2391435    4635.8788            2 
  271000    1.5912381   -5.2645246    4625.0715            2 
  272000    1.6316695     -5.30893    4616.9574            2 
  273000    1.6197107   -5.2814825     4650.334            1 
  274000        1.586   -5.3475307    4624.5514            1 
  275000    1.6070456   -5.2605483    4619.8851            3 
  276000    1.6316512   -5.3036982     4626.609            1 
  277000    1.6024848   -5.2805879     4634.721            2 
  278000    1.6308764   -5.2623619    4650.8058            2 
  279000    1.6004648   -5.2608061    4608.0487            1 
  280000    1.6285454   -5.2918745    4642.5353            1 
  281000    1.5911984     -5.26912    4611.0373            1 
  282000    1.6141498   -5.2721792    4641.7769            2 
  283000     1.650504   -5.2868963    4615.4573            1 
  284000     1.599802   -5.2612902    4656.4474            2 
  285000    1.6123085   -5.3012039     4598.764            2 
  286000    1.5950287   -5.3112341    4618.1253            2 
  287000    1.6308682   -5.2439861    4640.1398            1 
  288000    1.6471204   -5.2813871    4633.0527            1 
  289000    1.6457954   -5.2865415    4595.7484            1 
  290000    1.5877535   -5.3380961    4595.1697            1 
  291000    1.5850288    -5.269431     4637.894            2 
  292000    1.6658873   -5.2882976    4612.0046            1 
  293000    1.5994137    -5.265626    4621.6774            2 
  294000    1.6075993    -5.322261    4631.3651            1 
  295000    1.6066652   -5.2692142    4630.8507            1 
  296000    1.6132955   -5.3135905    4619.9611            1 
  297000    1.6450692   -5.3466086    4613.1447            1 
  298000     1.596926   -5.3028274    4634.8473            1 
  299000     1.619522   -5.2480892    4635.7351            2 
  300000    1.6142171   -5.2618999    4626.2504            2 
  301000     1.648156   -5.2319504    4633.4616            1 
  302000     1.589343    -5.272947     4625.838            1 
  303000    1.6063046   -5.3024937    4622.2301            2 
  304000    1.6205864   -5.3311061    4613.8793            2 
  305000    1.6234482   -5.2540722    4638.4941            3 
  306000    1.6592289   -5.2857651    4626.0973            1 
  307000    1.6559689   -5.3014597    4615.4422            1 
  308000    1.6226794   -5.2801041    4644.8546            2 
  309000    1.5961452   -5.3134244    4622.3018            2 
  310000    1.5863212   -5.2427009    4658.2737            3 
  311000    1.6324577   -5.2799468     4620.383            1 
  312000     1.658916   -5.2781674    4639.5554            2 
  313000    1.6065732   -5.2594516     4604.965            1 
  314000    1.5926929   -5.2871485    4639.0737            3 
  315000      1.62499   -5.2718665    4633.0242            1 
  316000    1.6134482   -5.2651094    4622.2026            1 
  317000     1.601416   -5.2917196    4637.8767            1 
  318000     1.600992   -5.2753692     4651.975            1 
  319000    1.6666941   -5.2930154    4647.3941            1 
  320000    1.6361601   -5.2913823     4608.822            4 
  321000     1.629013   -5.2769313    4639.9188            2 
  322000    1.6480784   -5.2661896    4634.3893            1 
  323000    1.6038936   -5.1850891    4649.1366            1 
  324000    1.6041873   -5.3032828     4611.892            2 
  325000    1.6291993   -5.3313733    4646.7133            4 
  326000    1.6208597   -5.2469776    4639.5822            2 
  327000    1.6563074   -5.2403767     4609.639            3 
  328000    1.6230294   -5.2977428    4609.1485            2 
  329000    1.5910302   -5.3025176     4628.151            4 
  330000    1.6183537   -5.2744023    4622.2398            1 
  331000    1.5995464   -5.2583706    4647.5674            1 
  332000    1.6073592   -5.3003423    4623.6905            2 
  333000    1.6195305   -5.2623455    4637.8054            2 
  334000     1.603123   -5.2724798    4611.0874            1 
  335000    1.6030076   -5.3233637      4628.18            2 
  336000    1.6226328   -5.3077475    4635.5251            3 
  337000    1.6383201   -5.2779106    4642.5379            1 
  338000    1.6003744   -5.3012151    4615.1561            1 
  339000    1.6269187   -5.3402086    4612.6301            4 
  340000    1.5999732   -5.2548346     4620.443            1 
  341000    1.6382341    -5.306332    4625.0838            1 
  342000    1.6390595   -5.2885128    4622.3588            1 
  343000    1.6376808   -5.2806642    4635.3314            1 
  344000    1.6074399   -5.3087349    4643.7223            4 
  345000    1.6208625   -5.2802891    4627.8136            3 
  346000    1.6008404   -5.2433014    4659.5023            1 
  347000    1.6020485   -5.2910764    4625.3303            1 
  348000    1.6179979   -5.3210183    4626.0005            1 
  349000    1.6160381   -5.2376204    4645.4856            3 
  350000    1.6157613   -5.3244891    4596.4429            6 
  351000    1.6199971   -5.2825662    4634.3841            3 
  352000     1.649025    -5.283712    4629.0737            2 
  353000    1.6191749   -5.2847622    4623.7045            1 
  354000    1.6187518   -5.2777449    4620.5335            1 
  355000    1.6126031   -5.2796569    4647.3204            1 
  356000    1.6516098   -5.2819675    4605.7127            1 
  357000    1.6461175   -5.2799445    4629.3988            3 
  358000     1.609791   -5.3113588    4603.1213            1 
  359000    1.6399081   -5.3074875    4608.9027            1 
  360000    1.5977633   -5.2829493    4600.0347            3 
  361000    1.6096333    -5.288667    4613.9136            2 
  362000    1.6615213   -5.2736135    4624.3013            3 
  363000    1.6188019   -5.2430514    4619.9057            1 
  364000    1.6332298   -5.2290585    4660.6435            2 
  365000    1.5936343   -5.3189337    4638.3894            1 
  366000    1.6067911   -5.2851685    4624.1468            1 
  367000    1.6125214   -5.3213405    4597.4435            1 
  368000    1.6140751   -5.2436557    4643.3802            1 
  369000    1.6167351   -5.2975322    4625.7808            2 
  370000    1.6293062   -5.2868704    4603.3601            3 
  371000    1.6479756   -5.2829477    4624.6863            1 
  372000    1.6466878   -5.3000776    4601.4614            1 
  373000    1.6112026   -5.2567115    4627.2753            2 
  374000     1.625687   -5.3035371    4607.5788            4 
  375000    1.6297068   -5.2981244    4626.2386            1 
  376000    1.6237857   -5.2670079    4667.2245            1 
  377000     1.620879   -5.2989389    4626.9933            1 
  378000    1.6249632   -5.3006032     4603.159            3 
  379000    1.6550876   -5.2367711    4640.3132            1 
  380000    1.6097145   -5.2573678    4628.7121            1 
  381000    1.6170603   -5.3344812    4619.5964            1 
  382000    1.6338828   -5.3251839    4648.4692            1 
  383000    1.6236113   -5.2984865      4613.81            2 
  384000    1.6133072   -5.2903944    4608.5198            2 
  385000    1.6328425   -5.3113979    4627.7284            2 
  386000    1.6004221   -5.2324977    4626.8581            2 
  387000    1.6214598   -5.2899899      4613.87            1 
  388000    1.5929242   -5.3127812    4581.4222            2 
  389000    1.5920684   -5.2527643    4645.0791            2 
  390000    1.6164992   -5.3017902    4663.8501            2 
  391000    1.6182757   -5.2823708    4623.3258            1 
  392000    1.5885385    -5.246364    4664.4721            1 
  393000    1.6404882   -5.2967415    4616.0096            2 
  394000    1.6052365   -5.2953847    4637.6899            1 
  395000    1.6324229   -5.2912753    4632.9025            1 
  396000     1.611808   -5.3204184    4623.5697            1 
  397000     1.592173   -5.2893374    4624.5781            1 
  398000    1.6041978   -5.2729622    4618.8182            1 
  399000    1.5735541   -5.3045057    4606.6629            2 
  400000    1.5891469   -5.2606331    4630.5876            1 
  401000    1.6080764   -5.2825756     4629.259            6 
  402000    1.6613098   -5.3101422    4609.5358            3 
  403000    1.6233909   -5.2885615    4632.5644            1 
  404000    1.6128591   -5.2944879    4615.0085            1 
  405000    1.6318067   -5.2996761    4598.8322            2 
  406000    1.6403609     -5.28235    4588.5033            1 
  407000    1.6184477   -5.3105945     4629.562            2 
  408000    1.5818904   -5.3059502    4614.2124            1 
  409000    1.6004758   -5.3163192    4634.7559            1 
  410000    1.6160266   -5.2736315    4606.5648            1 
  411000     1.603023    -5.306802    4599.5037            2 
  412000    1.6084204   -5.3196791    4642.1649            2 
  413000    1.6391882   -5.2990299    4615.6319            1 
  414000     1.633309    -5.261798    4613.8402            2 
  415000    1.6320911   -5.2541908    4624.2285            2 
  416000    1.6266109   -5.3065828    4616.5035            2 
  417000    1.6109555   -5.3398474    4612.6724            1 
  418000    1.5976884   -5.3451717    4627.5768            1 
  419000    1.6077163   -5.2892367    4645.0376            2 
  420000    1.6116732   -5.3418363    4608.2396            1 
  421000    1.6036977   -5.3011798    4605.0267            2 
  422000    1.6007894   -5.3049362    4610.7985            2 
  423000    1.6085599   -5.2799972    4634.8277            1 
  424000    1.5992991   -5.2859476    4650.1913            1 
  425000    1.6239355   -5.2909682    4617.9435            2 
  426000    1.6393915   -5.2827721    4616.8447            1 
  427000    1.6172983   -5.2944692    4636.5325            1 
  428000    1.5947634    -5.342988    4604.0935            2 
  429000    1.5788412   -5.3287825    4613.6005            2 
  430000    1.6000813   -5.2790305      4618.25            2 
  431000    1.6254879   -5.2593586    4636.6392            1 
  432000    1.6331643   -5.2983005    4599.7618            2 
  433000    1.6426651   -5.2711432    4635.0387            6 
  434000     1.682534   -5.2987602    4609.4529            1 
  435000    1.6091008   -5.2809179    4607.7974            1 
  436000    1.6097551   -5.2670985    4624.0731            2 
  437000    1.6269193   -5.2568445    4622.3871            1 
  438000    1.6399753   -5.2958957    4624.5453            1 
  439000    1.6040966   -5.3320343    4624.1309            1 
  440000    1.6460829   -5.3036574    4619.5537            1 
  441000     1.626737   -5.3068386    4622.7961            1 
  442000    1.5664777   -5.2603814    4648.6205            2 
  443000    1.6250453   -5.2982352    4633.3071            2 
  444000    1.6094924   -5.3042651    4613.6488            1 
  445000    1.5785789   -5.2436815    4638.1569            2 
  446000     1.638427   -5.2859938     4624.992            1 
  447000    1.6185032     -5.30649     4612.155            2 
  448000     1.645552   -5.3137967    4618.0375            1 
  449000    1.5853717   -5.2585085    4598.9061            1 
  450000    1.6167463   -5.2741787    4626.4996            2 
  451000    1.6195431   -5.3139914     4619.395            4 
  452000    1.6392281    -5.287866    4648.3247            1 
  453000     1.608676   -5.2705457    4620.4592            2 
  454000    1.6143544    -5.319068    4618.5573            2 
  455000    1.6234835   -5.2892719    4618.9802            3 
  456000    1.5824025   -5.3147015    4619.3384            2 
  457000    1.6048709   -5.2544633    4632.1016            5 
  458000    1.5705074   -5.2882121    4633.0926            1 
  459000    1.6016257   -5.2698789    4647.2181            1 
  460000    1.6451354   -5.3016544     4608.769            2 
  461000    1.6343771   -5.2890877    4605.8591            2 
  462000    1.6382429   -5.2852552    4622.6818            1 
  463000    1.6403286   -5.2860948     4620.822            1 
  464000    1.6248546   -5.3355451    4637.7572            2 
  465000    1.6430842   -5.3104401    4602.8358            1 
  466000     1.592147   -5.2646718    4656.2313            2 
  467000     1.618277   -5.2498107    4633.3203            2 
  468000     1.632891   -5.2707653    4619.5244            1 
  469000    1.6239451   -5.2686484    4632.0809            2 
  470000    1.6305183   -5.3010113    4613.2395            1 
  471000    1.6211643   -5.2470144    4636.5832            2 
  472000    1.6081274   -5.2918049    4622.6319            4 
  473000    1.5999799   -5.3044414     4637.805            3 
  474000    1.6430104   -5.2877094    4639.5472            2 
  475000    1.6451471   -5.2768511    4618.8314            2 
  476000    1.5998366   -5.2526571    4612.6736            2 
  477000    1.5895054   -5.2795115    4635.9691            1 
  478000    1.6244798   -5.2721525    4624.9229            3 
  479000    1.6009143   -5.2735337     4650.663            1 
  480000    1.6168921   -5.2886652    4620.5467            3 
  481000    1.6197202   -5.2563666    4616.8335            1 
  482000    1.6272273     -5.36806    4613.8974            3 
  483000    1.6196859   -5.2931058    4625.4722            1 
  484000    1.6248766   -5.2833634    4608.4376            2 
  485000    1.6227823   -5.2850528       4641.7            2 
  486000    1.5944525    -5.241613    4644.9854            1 
  487000    1.6174756   -5.2803761    4632.3312            2 
  488000    1.6207931   -5.3101498    4606.3404            3 
  489000    1.6301104   -5.2629784    4627.7052            3 
  490000    1.6382279   -5.2680557    4602.8834            1 
  491000    1.6494538   -5.3446889    4596.9022            1 
  492000    1.6202878   -5.2786142    4666.9419            3 
  493000    1.6311835   -5.2908217     4632.864            1 
  494000    1.6491693   -5.2638766     4620.247            1 
  495000    1.6176811   -5.2651637    4633.2232            1 
  496000    1.6110757   -5.3075854    4618.0297            2 
  497000    1.6206585   -5.2846412     4661.435            1 
  498000    1.5829021   -5.3125976    4613.3737            2 
  499000    1.6234777   -5.2138567    4644.8752            1 
  500000     1.618587   -5.3271857     4601.744            3 
  501000       1.6573   -5.3234155     4623.515            1 
  502000    1.6115816    -5.226358    4643.1754            2 
  503000    1.6423452   -5.2757399    4653.8292            1 
  504000    1.6216398   -5.2491903    4625.5379            4 
  505000    1.5927022   -5.2524638    4640.9902            2 
  506000    1.6152856   -5.3146075    4599.1748            1 
  507000    1.5944706   -5.2665118    4667.1285            1 
  508000    1.6050313   -5.2816333    4619.6688            1 
  509000    1.6122036   -5.2790315    4621.7535            2 
  510000     1.615069   -5.3025675    4592.7506            3 
  511000    1.6229583   -5.3400185    4589.2838            2 
  512000    1.6019825   -5.3057154    4618.0695            1 
  513000    1.5975739   -5.2735642    4643.2062            1 
  514000    1.5845256   -5.2353218    4628.4071            3 
  515000    1.6110375   -5.3040297    4621.0064            1 
  516000    1.5797464   -5.3081528     4611.999            1 
  517000    1.5837002   -5.2580154    4625.9088            2 
  518000    1.6531217   -5.2992716    4634.4449            1 
  519000    1.6018048    -5.289736    4609.5167            5 
  520000    1.6294047   -5.3263592    4620.5698            2 
  521000    1.6210694    -5.285144    4620.0171            1 
  522000    1.6443435   -5.3305592     4615.454            1 
  523000    1.6394459   -5.2997069    4618.5533            2 
  524000    1.6347474   -5.2852506    4633.2221            1 
  525000    1.6026785   -5.3242751    4623.0394            1 
  526000    1.6044888   -5.3135384     4635.284            2 
  527000    1.6146427   -5.2969889    4630.6461            2 
  528000    1.6182586    -5.287574     4647.075            3 
  529000    1.6035728   -5.2375861    4642.7918            2 
  530000    1.6300066   -5.3054291    4602.7691            3 
  531000    1.6293175   -5.2746559    4631.9329            3 
  532000     1.616212   -5.3002221    4645.8332            1 
  533000    1.6423137    -5.284443    4634.5456            2 
  534000    1.5978677   -5.2291475    4634.0395            1 
  535000     1.626055   -5.3257528    4627.9888            5 
  536000    1.5998232   -5.2854939    4600.4953            3 
  537000    1.6393671   -5.3447811    4618.4408            1 
  538000    1.6558739   -5.2637874    4625.1946            2 
  539000    1.5842253   -5.2591862    4627.0683            1 
  540000     1.615486   -5.2607897     4634.287            1 
  541000    1.5854399   -5.3139547    4632.9281            3 
  542000    1.6180052   -5.2983237    4630.6397            1 
  543000    1.6047277   -5.2466137    4631.7928            1 
  544000    1.6202309   -5.2945928    4637.6509            2 
  545000    1.6064554   -5.2888634     4621.454            1 
  546000    1.6140477   -5.3067392    4627.9444            1 
  547000    1.6350145   -5.2958426    4604.9146            1 
  548000    1.6282012   -5.3171995    4623.3198            1 
  549000    1.6331111   -5.2498729    4652.7664            3 
  550000    1.6138823   -5.2670115    4647.1014            1 
  551000    1.6224174    -5.286289    4610.4534            2 
  552000    1.6303661   -5.2649648    4646.5489            2 
  553000    1.6227845    -5.280942    4635.8777            1 
  554000     1.606013   -5.2932764    4634.9597            1 
  555000     1.615632   -5.2494725    4627.4416            4 
  556000    1.6512496   -5.3151075    4627.2969            1 
  557000    1.6029593   -5.3113084    4607.9917            1 
  558000    1.6153465   -5.2685602    4647.9528            1 
  559000    1.6130192   -5.2680248     4622.005            1 
  560000    1.6408703   -5.2601982    4628.1647            5 
  561000    1.6249473   -5.2598417    4633.2315            2 
  562000    1.6129795   -5.3015938    4625.7948            1 
  563000    1.6368418   -5.2870638    4621.1664            1 
  564000    1.6074555   -5.2593509    4627.3336            3 
  565000    1.6283497   -5.2385333    4597.6473            1 
  566000    1.6480564   -5.2197265    4651.3353            1 
  567000    1.5987082   -5.2624586    4619.5946            1 
  568000    1.6363746   -5.3137467    4622.2048            4 
  569000     1.624476   -5.2311867    4653.6839            2 
  570000    1.6258007   -5.3155366    4615.7046            2 
  571000    1.5925108   -5.3137863    4608.2138            2 
  572000    1.6134735    -5.262354    4633.0365            2 
  573000    1.6010194   -5.2738461    4608.7099            3 
  574000    1.6449238   -5.2837614    4616.9426            3 
  575000    1.5923887   -5.3173739    4636.0031            1 
  576000    1.6452949   -5.3317717    4614.9587            2 
  577000    1.6324855   -5.2884734    4591.7548            1 
  578000    1.6207614   -5.2497369    4666.9387            2 
  579000    1.5896328   -5.2780194     4605.692            1 
  580000    1.6021936   -5.1778922    4636.2875            1 
  581000    1.6330664   -5.2621567    4620.6811            1 
  582000    1.6528346    -5.305196    4631.8171            2 
  583000    1.6003537   -5.2885684    4639.3078            2 
  584000    1.5976906   -5.3116178    4608.0556            2 
  585000    1.6058943   -5.2679373    4643.2257            3 
  586000    1.6314125   -5.2463386    4618.2982            1 
  587000    1.5970145   -5.2687739    4633.7237            1 
  588000    1.6324047   -5.3217831    4600.5577            1 
  589000    1.6124985   -5.2290761    4614.4373            1 
  590000    1.6456656   -5.2682641     4640.626            1 
  591000    1.5851417   -5.2870392    4635.5955            2 
  592000     1.615415   -5.2965648    4605.1316            3 
  593000      1.63603   -5.2847735    4617.9774            2 
  594000    1.6559953   -5.2834129    4622.9826            2 
  595000    1.5576251   -5.2815421    4615.9028            2 
  596000    1.6374082    -5.294761    4651.1198            2 
  597000     1.600144   -5.2938818    4630.4042            4 
  598000    1.6093263   -5.2868226    4606.5079            1 
  599000    1.6516986   -5.2879342    4621.4637            3 
  600000    1.6210678    -5.324086    4622.6815            2 
  601000     1.654186   -5.3658494    4637.4432            2 
  602000     1.666277   -5.2837947    4614.8611            1 
  603000    1.5996685   -5.2305741    4644.3408            2 
  604000    1.5979268   -5.3374401    4609.0979            2 
  605000    1.6229378   -5.3306975    4639.5998            4 
  606000    1.6363604   -5.2822153    4610.0018            3 
  607000    1.6277106   -5.2713202    4642.9427            1 
  608000    1.5960968   -5.3204744    4633.9624            2 
  609000    1.6334716   -5.2519173    4645.0653            1 
  610000    1.6019915   -5.2747499    4633.5512            1 
  611000    1.5989829   -5.3002665    4617.3298            3 
  612000    1.6224712   -5.2846382    4610.8571            2 
  613000    1.6245041   -5.3014517    4626.3767            1 
  614000     1.620825   -5.3189811    4637.9816            4 
  615000    1.6220554   -5.2570006    4639.5636            1 
  616000     1.635618   -5.2964876    4616.9885            1 
  617000    1.5963523   -5.3042059    4620.7622            1 
  618000    1.6319966   -5.2888636    4648.6528            3 
  619000    1.6611478   -5.3407312    4629.8551            2 
  620000    1.6182311   -5.2758435    4650.7422            1 
  621000    1.5986402   -5.2734907    4614.7198            4 
  622000    1.6205983   -5.2979101    4628.3584            2 
  623000    1.6241603   -5.2794147    4611.3522            1 
  624000    1.6344038   -5.2934131    4607.9868            2 
  625000    1.6375432   -5.2500897     4662.744            1 
  626000    1.6440232   -5.2748731    4633.8011            1 
  627000    1.6294377   -5.3309039    4615.5576            1 
  628000    1.6117149   -5.2807912    4655.5305            3 
  629000    1.6630598   -5.2716836    4617.7444            2 
  630000    1.6241251   -5.2414558    4629.6919            1 
  631000     1.624414   -5.3077885    4600.5699            1 
  632000    1.6108232   -5.2683011    4637.2774            1 
  633000    1.6164645   -5.2662441    4610.7288            1 
  634000    1.6195035   -5.3139816    4633.0399            1 
  635000    1.6037086   -5.2235393    4645.4559            3 
  636000    1.5980301   -5.2863024    4622.9858            1 
  637000    1.6021733   -5.3134156    4625.0278            1 
  638000      1.63578   -5.2452241    4637.7275            1 
  639000    1.5989599    -5.310422    4620.9204            2 
  640000    1.6387668   -5.2871232    4634.9948            1 
  641000    1.6608991   -5.2970839    4648.9749            1 
  642000    1.6217421   -5.2654047    4622.9517            2 
  643000    1.5830844    -5.295144    4635.5174            1 
  644000    1.6097456   -5.2833694    4626.8065            1 
  645000    1.5958308   -5.2840773    4606.9299            1 
  646000    1.5918678   -5.2905355    4610.9597            2 
  647000    1.6320407   -5.2826382     4642.995            1 
  648000    1.5958825   -5.3071515    4643.5629            2 
  649000    1.6009188   -5.3028671    4634.8283            2 
  650000    1.6392441   -5.2920494    4606.1205            2 
  651000    1.6023999     -5.28664    4653.5939            1 
  652000    1.6377945   -5.2886373    4643.0396            1 
  653000    1.6018093   -5.3166956    4612.7572            2 
  654000    1.6304895   -5.3151528    4607.3376            1 
  655000     1.614252   -5.2867488    4649.8472            1 
  656000    1.6318627   -5.2409176    4644.2296            1 
  657000    1.5902393   -5.3182145    4611.8353            1 
  658000    1.6314768   -5.2896636    4637.0043            2 
  659000    1.6058151   -5.3090041    4634.1747            2 
  660000    1.6197394    -5.248844    4667.3394            2 
  661000    1.6351975    -5.245407    4631.9822            1 
  662000    1.6398128   -5.2899428    4619.6356            1 
  663000    1.6404382   -5.3253141    4621.9268            2 
  664000    1.6346331   -5.2509651    4622.1497            1 
  665000    1.6759348    -5.257313    4603.9914            3 
  666000    1.6013594   -5.2683505    4646.4273            1 
  667000    1.6145149    -5.270042    4632.3367            1 
  668000    1.6058093   -5.2855948    4627.7395            1 
  669000    1.5909782   -5.3082389    4611.0621            1 
  670000    1.6536031   -5.3159366    4619.3682            1 
  671000    1.6386559   -5.2579625    4615.2052            3 
  672000    1.6095652   -5.2586565    4620.8704            2 
  673000    1.6346481   -5.2549794    4637.8791            2 
  674000    1.5898739   -5.2795886    4632.9941            1 
  675000    1.6294178   -5.3001901    4647.8592            2 
  676000    1.6156316   -5.3542445    4604.8737            2 
  677000    1.6446559   -5.3417764    4611.7361            2 
  678000    1.5970663   -5.3246435    4610.2389            1 
  679000    1.6597579   -5.2536559    4627.9245            2 
  680000    1.6383247   -5.3166771    4631.9225            2 
  681000     1.642566    -5.273706    4604.8301            1 
  682000     1.629567    -5.314443    4643.0093            1 
  683000    1.5776604    -5.289936    4607.9021            1 
  684000    1.5810021   -5.3069374    4628.9874            1 
  685000    1.6621195   -5.2940954    4629.7036            1 
  686000    1.6756211   -5.2632757     4639.638            1 
  687000    1.6135144   -5.3033558    4640.3832            1 
  688000    1.6335335   -5.2844511    4633.2115            1 
  689000    1.6152001   -5.2886735    4632.2981            2 
  690000    1.6067716   -5.2774745    4642.6376            1 
  691000    1.6075668    -5.289483    4632.9983            2 
  692000     1.609396   -5.2661977    4620.1872            2 
  693000    1.6307397   -5.2976614    4619.2604            1 
  694000    1.6233798   -5.2823553    4599.5874            1 
  695000    1.6218791    -5.317829    4612.1045            2 
  696000    1.6148312   -5.2795026    4641.0876            2 
  697000    1.6222226   -5.3338289    4614.8393            2 
  698000     1.629371   -5.2900988    4637.9554            1 
  699000    1.6392982   -5.3267306    4611.0972            1 
  700000    1.6074807    -5.267212    4650.1322            1 
  701000    1.6307445   -5.2717615    4624.3311            1 
  702000    1.5861722   -5.2639656    4652.9575            1 
  703000    1.5824413   -5.2796799    4643.6921            2 
  704000    1.5665374   -5.3091555    4620.7972            2 
  705000    1.5902114   -5.3070121    4622.1544            2 
  706000    1.6335345   -5.3303184    4620.1237            4 
  707000    1.6289077   -5.2835462     4631.438            2 
  708000    1.6400532   -5.2942514    4636.5938            1 
  709000    1.6423403   -5.3147461    4628.9661            1 
  710000     1.598904   -5.2737866    4643.2947            1 
  711000    1.6269219   -5.2497538     4662.303            3 
  712000    1.6287126   -5.2790077     4614.561            1 
  713000    1.6194193   -5.3250608    4635.4013            1 
  714000    1.6072375   -5.3274404    4627.2524            1 
  715000    1.6203032   -5.2435742    4638.9628            1 
  716000    1.6130448   -5.3308494    4606.3896            3 
  717000    1.6375736   -5.3252359    4619.8645            2 
  718000    1.6047816    -5.317722    4610.5062            2 
  719000    1.6494825   -5.2841486    4629.6009            2 
  720000    1.6557728   -5.2761955    4613.2905            1 
  721000    1.6114528   -5.2761672    4656.8531            2 
  722000    1.6198496   -5.2977857    4641.6485            1 
  723000    1.6052033   -5.2659496    4645.6602            1 
  724000    1.6371841   -5.3203699    4629.2742            2 
  725000    1.6215408   -5.2708579    4601.5671            5 
  726000    1.6235544   -5.2914768    4638.8166            1 
  727000    1.6173475    -5.289666    4629.3972            1 
  728000    1.6170061   -5.2617667    4641.6089            1 
  729000    1.5945854   -5.2366687    4648.5661            2 
  730000    1.6276055   -5.2824677    4617.2697            1 
  731000    1.6248135    -5.266242    4642.1589            2 
  732000     1.641713   -5.2621181    4641.8724            1 
  733000    1.5993358   -5.3712775    4627.9349            2 
  734000    1.6222768   -5.2959178    4629.3674            2 
  735000    1.6652826    -5.251305    4615.8298            1 
  736000    1.5969985   -5.2747231    4644.5675            2 
  737000    1.5857428   -5.2879047    4642.3434            1 
  738000    1.6245933   -5.2512378     4652.012            1 
  739000    1.6138469    -5.256869     4629.467            3 
  740000    1.6170754   -5.3006912    4611.7362            2 
  741000    1.5976642   -5.2754623    4615.0588            2 
  742000    1.5996449   -5.2831405    4630.3066            6 
  743000    1.6308638   -5.2449575    4652.0863            1 
  744000    1.6018676   -5.2490705    4602.8637            1 
  745000    1.6427018   -5.2607222    4612.9598            2 
  746000    1.6169726    -5.307637    4625.1806            4 
  747000     1.623063   -5.2535669    4633.3997            2 
  748000    1.5862833   -5.2599935    4631.6348            1 
  749000    1.6255565   -5.2640855    4650.5842            1 
  750000    1.5809527   -5.2277724    4639.1936            1 
  751000    1.6065745    -5.266216    4639.0323            2 
  752000    1.6404788   -5.3681227     4613.988            1 
  753000    1.6001701   -5.2572321    4625.7189            1 
  754000    1.6628424   -5.3052269    4622.3338            1 
  755000    1.6253664   -5.3056939     4639.104            1 
  756000    1.6527711    -5.270301    4612.5922            2 
  757000    1.6412646   -5.2642894    4631.0155            1 
  758000    1.6104072   -5.2446538    4645.3185            1 
  759000    1.6166372   -5.2791289    4643.1018            1 
  760000    1.6035742   -5.2899127    4646.3744            1 
  761000     1.635153   -5.3091006     4617.353            1 
  762000    1.6112687   -5.2560084    4605.0242            1 
  763000    1.6380763   -5.3114931    4610.6802            2 
  764000    1.5931781   -5.3273285    4642.4223            1 
  765000    1.6335765   -5.3040749    4638.8678            4 
  766000    1.6026647   -5.2500083    4626.7184            2 
  767000    1.5863906   -5.2928007    4670.9769            2 
  768000    1.6388089    -5.294274    4630.7244            2 
  769000    1.6224982   -5.2568116    4632.8619            1 
  770000    1.6335903   -5.2564858    4594.4785            2 
  771000    1.6461805   -5.2693748    4638.3582            2 
  772000    1.6111306   -5.2779235    4614.8966            1 
  773000    1.6418212   -5.2787683    4638.0319            2 
  774000    1.6066833   -5.3380294    4633.3595            3 
  775000    1.6282417   -5.2889953    4615.7542            1 
  776000    1.6086841    -5.294185     4619.691            3 
  777000    1.6176005   -5.3019522    4614.8974            2 
  778000    1.6475853    -5.319309    4608.3544            2 
  779000    1.6455373   -5.2778301      4612.54            2 
  780000     1.626833   -5.3169063    4615.8144            2 
  781000    1.6336171   -5.2957559    4622.0905            3 
  782000    1.6010163   -5.2682008    4623.4995            1 
  783000    1.6343897   -5.2898129    4642.1131            1 
  784000    1.6465878    -5.327272    4625.7572            1 
  785000    1.6446721    -5.265833    4605.9605            2 
  786000    1.6448238   -5.2707745    4590.4279            1 
  787000    1.6653845   -5.2878047    4617.7214            1 
  788000    1.6491692   -5.2875946    4651.3793            1 
  789000    1.6308764   -5.2842443    4628.3207            1 
  790000    1.6341456   -5.2744951    4641.6031            1 
  791000     1.628618   -5.2792305    4623.0177            1 
  792000    1.5700438   -5.2794628    4639.6185            1 
  793000    1.6292636   -5.2673201    4642.1015            1 
  794000    1.6150628   -5.3314282    4614.1687            1 
  795000    1.6084659   -5.3086922    4620.0621            2 
  796000    1.6642517   -5.2988907    4617.4388            2 
  797000    1.5959464   -5.2899159    4630.9781            1 
  798000    1.6545078   -5.2800251    4607.2595            2 
  799000    1.6017389   -5.2911001    4619.8418            3 
  800000    1.6415993   -5.2685248    4607.4475            1 
  801000    1.6130788   -5.2888597    4622.1175            2 
  802000     1.626244   -5.2917639    4619.6291            2 
  803000    1.6583783   -5.3039113    4613.9833            1 
  804000    1.6309773   -5.2634654    4625.2318            1 
  805000    1.5876242   -5.2479232    4645.7597            1 
  806000    1.6245753   -5.2864277     4623.436            2 
  807000    1.6088718   -5.2342907    4642.3183            1 
  808000    1.6275786    -5.279835    4636.7645            1 
  809000    1.5993411   -5.2872465    4629.8033            2 
  810000    1.6064536    -5.277654    4605.0461            1 
  811000    1.6433894   -5.2747045    4622.6504            3 
  812000    1.5807566   -5.2472351    4636.0941            2 
  813000    1.6393969   -5.3168726    4618.4193            3 
  814000    1.6143886   -5.2491934       4639.8            3 
  815000    1.5829359   -5.2844781     4636.982            1 
  816000    1.5914389   -5.3077233    4647.2891            1 
  817000    1.6153038   -5.2722103    4628.3123            1 
  818000    1.6165355   -5.2933403    4635.3993            1 
  819000    1.6085145   -5.3222299    4637.1176            1 
  820000    1.6180139   -5.3194319    4615.7241            2 
  821000    1.6322167   -5.3453287    4606.6971            3 
  822000    1.5978636   -5.2733042    4621.9587            2 
  823000    1.6073002   -5.2700521    4612.5365            2 
  824000    1.6398052    -5.301642    4624.5083            2 
  825000     1.612049   -5.2582179    4646.5563            2 
  826000     1.621845   -5.3099237    4637.7858            1 
  827000      1.60724   -5.2607078    4644.2506            2 
  828000    1.6233529   -5.3086155    4634.5586            6 
  829000    1.5777857   -5.2392945    4637.5606            3 
  830000    1.5906881   -5.2975297    4640.2616            2 
  831000    1.5897117   -5.3047965    4612.9427            3 
  832000    1.6250934   -5.2920303    4613.4463            1 
  833000    1.6404529   -5.2885171    4610.4841            1 
  834000    1.6299577   -5.2569299     4665.218            1 
  835000    1.6086982   -5.2964267    4629.1544            2 
  836000    1.5768861   -5.3481767    4632.0397            3 
  837000    1.6415627    -5.294868    4625.3152            1 
  838000    1.6523861   -5.2847866     4634.228            2 
  839000    1.6357322   -5.2912411    4632.7359            2 
  840000    1.5888515   -5.3108848    4588.4144            1 
  841000    1.6131606   -5.2968444    4639.1704            2 
  842000    1.5994065   -5.2902349    4615.3163            2 
  843000    1.6517375     -5.30249    4610.2087            1 
  844000    1.6449142   -5.2901705    4634.5113            2 
  845000    1.6279722   -5.2973111    4614.5709            6 
  846000    1.6264805   -5.2392203    4615.1059            1 
  847000    1.6356094   -5.2766947    4606.6334            1 
  848000    1.6313022   -5.2533557    4660.3264            1 
  849000    1.5859691   -5.2245381    4635.6117            2 
  850000    1.6335449   -5.2630377    4649.7285            3 
  851000    1.6085848    -5.274437    4636.6189            2 
  852000    1.6138827   -5.2796626    4642.6887            3 
  853000    1.6548355   -5.2857918    4641.1807            2 
  854000    1.6230028   -5.2631228    4621.1929            2 
  855000    1.6454521   -5.3046385    4640.6622            1 
  856000    1.5824432   -5.2442406     4639.854            2 
  857000    1.5844617   -5.2697252    4637.3708            1 
  858000    1.6236499   -5.2581011    4621.5207            1 
  859000    1.6177897   -5.2975872    4614.6476            1 
  860000    1.6662478   -5.2809476    4644.9004            1 
  861000    1.5917227   -5.3164642    4623.2138            2 
  862000    1.6686973   -5.2980557    4628.2936            2 
  863000    1.6205709   -5.2922841    4642.8209            1 
  864000    1.6039984   -5.2843044    4640.3595            2 
  865000    1.6052357   -5.2906872    4622.9553            1 
  866000    1.6462578    -5.280069    4617.2286            2 
  867000    1.6025913   -5.3101892     4626.981            2 
  868000    1.6018791   -5.2937289    4645.4978            2 
  869000     1.589505   -5.2829087    4616.7948            3 
  870000    1.5920727    -5.254724    4675.3301            2 
  871000    1.6287824   -5.3321387     4612.751            1 
  872000    1.6269989   -5.2735545    4636.5878            2 
  873000    1.6406824   -5.2900176    4625.2289            1 
  874000    1.6225215   -5.2445386    4626.5658            1 
  875000    1.6054422    -5.232347    4649.9133            1 
  876000     1.582261   -5.3080506    4625.9387            5 
  877000    1.6015614   -5.2822261    4636.9359            1 
  878000    1.6221815   -5.2798994    4625.0519            2 
  879000    1.5901448   -5.2808839    4631.1342            1 
  880000       1.6159   -5.2931484    4641.2746            1 
  881000    1.6406829   -5.2911258    4610.7624            2 
  882000    1.6009056   -5.2445057    4604.4161            2 
  883000    1.5990129   -5.2650681    4609.4869            2 
  884000    1.5888608   -5.2770035    4613.7353            1 
  885000    1.5650386   -5.2482042    4640.5464            1 
  886000    1.5883693   -5.2575392    4637.5064            1 
  887000      1.61781   -5.2106319    4620.3561            2 
  888000    1.6419181   -5.2829362    4639.2238            1 
  889000    1.6372162    -5.316716    4615.8091            2 
  890000      1.63659   -5.2921953    4639.2042            2 
  891000    1.6713771   -5.3104426    4625.0664            1 
  892000     1.607262    -5.216172    4648.9694            1 
  893000     1.584792   -5.2999846    4605.0288            2 
  894000    1.5974839   -5.2709608    4617.3662       -1e+20 
  895000    1.6428086   -5.2777976    4623.7297            1 
  896000    1.6173145   -5.3144784    4624.0687            3 
  897000     1.614941   -5.3207645     4637.808            1 
  898000    1.6334102    -5.274036    4621.9013            1 
  899000    1.6398774   -5.3153326    4617.4617            3 
  900000    1.6530683   -5.2479098    4659.8191       -1e+20 
  901000    1.6438982   -5.3360258    4628.0277            2 
  902000     1.610979   -5.2591594    4666.9613            2 
  903000    1.6196596   -5.3015146    4619.5667            1 
  904000    1.5901148   -5.2678018    4636.9428            3 
  905000    1.6485959    -5.307375    4612.3459            2 
  906000    1.5770024   -5.2535121    4608.4086            2 
  907000    1.5953334    -5.269666    4641.2025            1 
  908000     1.646565   -5.3113167    4634.2476            3 
  909000    1.5611336   -5.2426586    4659.0368            3 
  910000    1.6138698   -5.2694965    4668.2148            1 
  911000    1.6096349   -5.2822406    4619.3954            2 
  912000    1.6102912    -5.296573    4645.5253            1 
  913000    1.6158704   -5.2560385    4646.1479            1 
  914000    1.6002343   -5.2699471    4647.3791            2 
  915000    1.5839927    -5.303002     4614.197            2 
  916000    1.6389738   -5.2804949    4626.2902            1 
  917000    1.5983928   -5.2668424    4652.8272            4 
  918000    1.6183055   -5.2902088    4608.1406            2 
  919000    1.5916588   -5.2760817    4603.6335            2 
  920000     1.610021   -5.3062847    4615.8591            1 
  921000    1.5874359   -5.2733397    4635.8149            2 
  922000    1.6529683   -5.3283825    4616.1109            1 
  923000    1.6331598   -5.2549331    4633.9393            2 
  924000    1.6393769   -5.3053513    4631.1026            1 
  925000    1.6288255   -5.2644103    4607.9163            1 
  926000     1.626237   -5.3175703    4600.2837            3 
  927000    1.6148535   -5.2808889    4606.4009            1 
  928000     1.651439    -5.278797    4623.8919            3 
  929000    1.6193798   -5.2266816    4635.6983            2 
  930000    1.6329994   -5.3277691    4611.5976            1 
  931000     1.609521   -5.2470182     4650.529            1 
  932000    1.6441731   -5.2714842    4608.3134            2 
  933000    1.6165105   -5.2298529    4621.8387            2 
  934000    1.6159305   -5.2965028    4623.2961            2 
  935000     1.547157   -5.2894645    4620.3245            1 
  936000    1.6025857   -5.3094744    4641.6948            2 
  937000    1.6033981   -5.2883141     4626.318            1 
  938000    1.5981618   -5.3001603    4651.5374            3 
  939000    1.6292807   -5.2938484    4609.6869            1 
  940000    1.5857122   -5.2745859    4627.6534            1 
  941000    1.5955672   -5.2731067    4615.1631            1 
  942000    1.6262009   -5.2677214    4616.0189            1 
  943000    1.6302255    -5.289889    4630.7362            2 
  944000    1.6504954   -5.2808188    4616.9346            1 
  945000     1.605998   -5.2661524    4646.6659            1 
  946000    1.5895325   -5.2492072     4656.863            2 
  947000    1.6123018   -5.2789829    4604.6177            2 
  948000    1.6010934     -5.26475    4623.6658            1 
  949000    1.6230173   -5.2465725    4608.7701            1 
  950000     1.596867   -5.2686529    4642.0554            1 
  951000     1.671913   -5.2914472    4627.8523            2 
  952000    1.6121591   -5.2975074    4627.6385            2 
  953000    1.6209784   -5.3175611    4616.8047            4 
  954000    1.6289396   -5.3248122    4619.5725            5 
  955000    1.6105589   -5.2834717    4627.8975            2 
  956000    1.6352527   -5.2913435    4639.3205            4 
  957000     1.631465   -5.3276217    4593.2801            2 
  958000    1.6242986   -5.2969534    4634.4556            2 
  959000    1.6370702   -5.2557911    4637.2357            2 
  960000    1.6300742    -5.263634    4638.4183            2 
  961000    1.6491335   -5.2797688    4632.9779            1 
  962000    1.6171692    -5.261429     4636.448            2 
  963000    1.6258194   -5.2788168    4631.1206            2 
  964000    1.6281427   -5.2999638    4601.6166            3 
  965000    1.5960958   -5.2581752    4612.2564            1 
  966000    1.6455714   -5.3264049    4608.2689            1 
  967000    1.5775734   -5.3112415    4613.3184            1 
  968000    1.6298336   -5.2782558    4624.0804            1 
  969000    1.6231767    -5.298087    4629.3888            2 
  970000    1.6379452   -5.2549354    4627.3649            1 
  971000    1.6097839   -5.3382158    4612.1024            2 
  972000    1.6092301   -5.2155248    4639.0443            4 
  973000    1.6099524   -5.2852264    4623.0238            1 
  974000     1.636973   -5.2589039    4616.0524            1 
  975000    1.6175761   -5.2818769    4610.7206            2 
  976000     1.602114   -5.3165817     4625.581            2 
  977000    1.6150926    -5.263429    4617.6835            3 
  978000    1.6563886   -5.2979228    4589.5917            1 
  979000    1.6313771   -5.2488199    4633.8727            1 
  980000    1.6316188   -5.3010491    4595.6457            2 
  981000      1.63706   -5.3072403    4618.5473            3 
  982000    1.6748177   -5.3238514    4636.4113            1 
  983000    1.6295789   -5.2766484     4650.289            2 
  984000    1.6316119   -5.2735666    4612.6464            2 
  985000    1.6135907   -5.2852846    4624.0411            3 
  986000    1.6215285   -5.3073539    4604.5081            2 
  987000    1.6204665    -5.283383    4630.3823            5 
  988000    1.6403005   -5.2833539    4619.9709            1 
  989000    1.6303323   -5.2862964    4615.9358            1 
  990000      1.66171   -5.2297896    4640.4159            1 
  991000    1.6635807   -5.2666148    4636.2911            1 
  992000     1.607257   -5.3057817    4613.3684            3 
  993000    1.6663332   -5.2723947    4630.5513            2 
  994000    1.6097055   -5.2743269    4641.9116            2 
  995000    1.6242097   -5.2822611    4618.3823            2 
  996000    1.6210255   -5.3041336     4616.596            1 
  997000    1.6278731   -5.2895404    4625.7715            3 
  998000    1.6301503   -5.3366761    4606.1295            1 
  999000    1.6536794   -5.2998375    4636.7147            1 
 1000000    1.6659341   -5.2761618    4616.7965            1 
 1001000    1.6013506   -5.3271795    4618.8909            2 
 1002000    1.6043291   -5.3084264     4611.262            2 
 1003000    1.6320729   -5.3041975    4611.1708            1 
 1004000    1.6092152   -5.2917302    4623.7883            2 
Loop time of 2043.94 on 48 procs for 1000000 steps with 4000 atoms

Performance: 84542.398 tau/day, 489.250 timesteps/s
99.4% CPU use with 48 MPI tasks x no OpenMP threads

MPI task timing breakdown:
Section |  min time  |  avg time  |  max time  |%varavg| %total
---------------------------------------------------------------
Pair    | 112.86     | 118.16     | 126.9      |  37.9 |  5.78
Neigh   | 18.266     | 18.592     | 19.09      |   4.3 |  0.91
Comm    | 114.23     | 120.22     | 129.16     |  30.6 |  5.88
Output  | 1.1351     | 1.1357     | 1.1516     |   0.2 |  0.06
Modify  | 1761.4     | 1770.7     | 1784       |  11.7 | 86.63
Other   |            | 15.15      |            |       |  0.74

Nlocal:        83.3333 ave          90 max          76 min
Histogram: 2 2 3 7 5 10 7 8 1 3
Nghost:        1488.06 ave        1510 max        1469 min
Histogram: 3 5 4 4 10 10 5 4 2 1
Neighs:        8232.85 ave        9184 max        7512 min
Histogram: 4 2 8 6 8 10 6 1 2 1
FullNghs:      16463.9 ave       18015 max       14725 min
Histogram: 2 2 2 6 10 6 12 4 2 2

Total # of neighbors = 790267
Ave neighs/atom = 197.56675
Neighbor list builds = 75504
Dangerous builds = 189

#clear
#
#next RN
#
#jump SELF
Total wall time: 0:34:05
