
units lj                  # Use reduced LJ style units
atom_style atomic         # Uncharged point particles
atom_modify map hash      # Needed for indexing of clusters etc
                          # Used to be able to find where atoms are in relation to each other.

# Define a lattice with which to populate the simulation cell. With units
# set to 'lj' the second argument to the lattice command is the reduced
# density rho* and the spacings are multiples of that required to acheive
# that density. Also define a simulation cell called 'box' in lattice units
# and fill it with atoms. Here we're creating a box which is ten lattice
# constants in each direction.
lattice fcc 1.0 spacing 1 1 1                 # All equal sizes - gives the right reduced density.
Lattice spacing in x,y,z = 1.5874011 1.5874011 1.5874011

region box block 0 10 0 10 0 10 units lattice # Defines a region, "box", in lattice units
create_box 1 box                              # Creates a simulation box as specified above,
Created orthogonal box = (0.0000000 0.0000000 0.0000000) to (15.874011 15.874011 15.874011)
  3 by 4 by 4 MPI processor grid
                                              # with one type of atom
create_atoms 1 box                            # Creates particles on lattice points
Created 4000 atoms
  using lattice units in orthogonal box = (0.0000000 0.0000000 0.0000000) to (15.874011 15.874011 15.874011)
  create_atoms CPU = 0.002 seconds


# Set the mass of the first (and only) atom type.
mass 1 1.0

# Lennard-Jones interactions between particles, 3.5 sigma cut-off. Apply
# long range tail corrections to energy and pressure and set all coefficients
# to unity since we work in reduced units here. Note that this doesn't shift
# the potential such that it goes to zero at the cutoff. That would require
# pair_modify('shift', 'yes').
pair_style lj/cut  3.5      # non-GPU version
pair_modify tail  yes
pair_coeff 1  1  1.0  1.0   # Intearaction between 1 and 1 set with epsilon = 1 and sigma = 1

write_data data.*
System init for write_data ...
Neighbor list info ...
  update every 1 steps, delay 10 steps, check yes
  max neighbors/atom: 2000, page size: 100000
  master list distance cutoff = 3.8
  ghost atom cutoff = 3.8
  binsize = 1.9, bins = 9 9 9
  1 neighbor lists, perpetual/occasional/extra = 1 0 0
  (1) pair lj/cut, perpetual
      attributes: half, newton on
      pair build: half/bin/atomonly/newton
      stencil: half/bin/3d
      bin: standard

#############################
#   M E L T   S Y S T E M   #
#############################

velocity all create 2.4 8172548 mom yes dist gaussian # Assign velocities
                                                    # Temperature 2.4, random number seed, zero linear momentum
						                                                        # Gaussian distribution

timestep 0.002   # simulation timestep
thermo 1000       # output thermodynamic data every 1000 steps

# Define a fix  in this case with index 1 applied to all
# particles in the simulation. This fix is for simulations
# in the anisotropic NPT ensemble. Note that we use the MTK
# correction.
fix 1 all npt temp 2.4 2.4 0.1 iso 5.68 5.68 0.5 mtk yes tchain 5 pchain 5 # Use NPT ensemble
                                                                         # Set temperature and pressure and damping
                                                                         # Numbers of thermostats in chain and in barostat
run 1000         # run for 10000 steps
Per MPI rank memory allocation (min/avg/max) = 3.642 | 3.644 | 3.648 Mbytes
Step Temp E_pair E_mol TotEng Press Volume 
       0          2.4   -8.3859253            0   -4.7868253   -2.2405722         4000 
    1000    2.3771194   -4.4871205            0  -0.92233289    5.5875552    5161.7788 
Loop time of 0.218507 on 48 procs for 1000 steps with 4000 atoms

Performance: 790821.180 tau/day, 4576.511 timesteps/s
99.4% CPU use with 48 MPI tasks x no OpenMP threads

MPI task timing breakdown:
Section |  min time  |  avg time  |  max time  |%varavg| %total
---------------------------------------------------------------
Pair    | 0.095075   | 0.10026    | 0.10582    |   1.0 | 45.88
Neigh   | 0.017958   | 0.018792   | 0.019828   |   0.3 |  8.60
Comm    | 0.067029   | 0.074982   | 0.081209   |   1.3 | 34.32
Output  | 2.4074e-05 | 2.5029e-05 | 3.2907e-05 |   0.0 |  0.01
Modify  | 0.020108   | 0.022907   | 0.025278   |   0.9 | 10.48
Other   |            | 0.001544   |            |       |  0.71

Nlocal:        83.3333 ave          94 max          74 min
Histogram: 1 5 2 8 9 8 6 7 1 1
Nghost:        1391.79 ave        1422 max        1368 min
Histogram: 5 4 4 8 8 8 4 3 2 2
Neighs:        7382.04 ave        8524 max        6261 min
Histogram: 1 1 7 9 7 8 6 6 2 1

Total # of neighbors = 354338
Ave neighs/atom = 88.584500
Neighbor list builds = 87
Dangerous builds = 20

# Equilibrate just above the melting temperature to avoid step fn in T

fix 1 all npt temp 1.25 1.25 0.1 iso 5.68 5.68 0.5 mtk yes tchain 5 pchain 5
run 1000
Per MPI rank memory allocation (min/avg/max) = 3.642 | 3.644 | 3.648 Mbytes
Step Temp E_pair E_mol TotEng Press Volume 
    1000    2.3771194   -4.4871205            0  -0.92233289    5.5875552    5161.7788 
    2000    1.2335674   -5.8576808            0   -4.0077922     5.754077    4330.1845 
Loop time of 0.215965 on 48 procs for 1000 steps with 4000 atoms

Performance: 800130.838 tau/day, 4630.387 timesteps/s
99.6% CPU use with 48 MPI tasks x no OpenMP threads

MPI task timing breakdown:
Section |  min time  |  avg time  |  max time  |%varavg| %total
---------------------------------------------------------------
Pair    | 0.092244   | 0.10026    | 0.1068     |   1.0 | 46.42
Neigh   | 0.015568   | 0.016131   | 0.016848   |   0.2 |  7.47
Comm    | 0.065889   | 0.074208   | 0.084314   |   1.3 | 34.36
Output  | 2.3937e-05 | 2.4561e-05 | 3.1884e-05 |   0.0 |  0.01
Modify  | 0.020298   | 0.02336    | 0.026503   |   1.1 | 10.82
Other   |            | 0.00198    |            |       |  0.92

Nlocal:        83.3333 ave          94 max          77 min
Histogram: 7 6 8 5 6 10 1 3 1 1
Nghost:        1557.46 ave        1569 max        1545 min
Histogram: 4 2 5 8 0 7 9 7 2 4
Neighs:        8796.44 ave       10016 max        7978 min
Histogram: 5 6 6 6 8 6 7 3 0 1

Total # of neighbors = 422229
Ave neighs/atom = 105.55725
Neighbor list builds = 74
Dangerous builds = 3


# Small amount of linear quench

fix 1 all npt temp 1.25 ${temp} 0.1 iso 5.68 5.68 0.5 mtk yes tchain 5 pchain 5
fix 1 all npt temp 1.25 0.98 0.1 iso 5.68 5.68 0.5 mtk yes tchain 5 pchain 5
run 2000
Per MPI rank memory allocation (min/avg/max) = 3.643 | 3.645 | 3.648 Mbytes
Step Temp E_pair E_mol TotEng Press Volume 
    2000    1.2335674   -5.8576808            0   -4.0077922     5.754077    4330.1845 
    3000    1.1093569   -6.0050809            0   -4.3414615    5.5214686    4276.9454 
    4000   0.99070142   -6.2598067            0   -4.7741261    5.3054631    4185.8638 
Loop time of 0.44448 on 48 procs for 2000 steps with 4000 atoms

Performance: 777537.163 tau/day, 4499.636 timesteps/s
99.7% CPU use with 48 MPI tasks x no OpenMP threads

MPI task timing breakdown:
Section |  min time  |  avg time  |  max time  |%varavg| %total
---------------------------------------------------------------
Pair    | 0.20334    | 0.21406    | 0.2435     |   1.5 | 48.16
Neigh   | 0.0274     | 0.02876    | 0.032435   |   0.5 |  6.47
Comm    | 0.1177     | 0.1512     | 0.16531    |   2.2 | 34.02
Output  | 4.7806e-05 | 4.9121e-05 | 6.3115e-05 |   0.0 |  0.01
Modify  | 0.038189   | 0.045699   | 0.050605   |   1.7 | 10.28
Other   |            | 0.004714   |            |       |  1.06

Nlocal:        83.3333 ave          90 max          75 min
Histogram: 3 1 2 4 7 6 10 8 5 2
Nghost:        1591.81 ave        1606 max        1572 min
Histogram: 1 1 6 4 3 8 9 9 3 4
Neighs:        9119.65 ave        9847 max        7923 min
Histogram: 1 2 1 5 5 3 10 10 6 5

Total # of neighbors = 437743
Ave neighs/atom = 109.43575
Neighbor list builds = 127
Dangerous builds = 0

#############################
# F R E E Z E  S Y S T E M  #
#############################

# Define solid atoms. This closely follows ten Wolde  Ruiz-Montero and Frenkel  Faraday Discuss  1996  104  93-110
# Compute components of the per-atom q6 vector
compute q6 all orientorder/atom degrees 1 6 components 6 nnn NULL cutoff 1.3 # compute the Q6 parameter.
                                                                             # Use all neighbours within 1.3 unit cell.

# get number of connections
compute coord_number all coord/atom orientorder q6 0.5

# An atom is solid if it has 8 or more connections (of a possible 14)
variable is_solid atom c_coord_number>=8
group solid dynamic all var is_solid    # Must be dynamic to update
dynamic group solid defined

# do clustering
compute cluster solid cluster/atom 1.3 # Create a cluster where all atoms within are solid and max 1.3 units from another member

# define chunks one chunk per cluster
compute clus_chunks solid chunk/atom c_cluster nchunk every compress yes  # Says which atoms are in which chunk

# count the size of each chunk
compute size_chunks solid property/chunk clus_chunks count


# Find the maximum entry in the vector of chunk sizes
variable max_n equal max(c_size_chunks)


# Thermo style which includes this variable
thermo_style custom step temp pe vol v_max_n

thermo ${N}  # Print the thermo information every 100 steps
thermo 1000  

# Reset the npt fix at a lower temperature (below freezing)
fix 1  all npt temp  ${temp} ${temp}  0.1  iso  5.68  5.68  0.5  mtk yes tchain  5  pchain  5
fix 1  all npt temp  0.98 ${temp}  0.1  iso  5.68  5.68  0.5  mtk yes tchain  5  pchain  5
fix 1  all npt temp  0.98 0.98  0.1  iso  5.68  5.68  0.5  mtk yes tchain  5  pchain  5

dump dmp2 all dcd ${N} traj_${rand}.dcd
dump dmp2 all dcd 1000 traj_${rand}.dcd
dump dmp2 all dcd 1000 traj_462431.dcd


# fix rnuntil all halt ${N} v_max_n >= 3980 error soft message no   # Stop when solidified


run 1000000 # 5000000  # Run for this many steps
Neighbor list info ...
  update every 1 steps, delay 10 steps, check yes
  max neighbors/atom: 2000, page size: 100000
  master list distance cutoff = 3.8
  ghost atom cutoff = 3.8
  binsize = 1.9, bins = 9 9 9
  4 neighbor lists, perpetual/occasional/extra = 1 3 0
  (1) pair lj/cut, perpetual
      attributes: half, newton on
      pair build: half/bin/atomonly/newton
      stencil: half/bin/3d
      bin: standard
  (2) compute orientorder/atom, occasional
      attributes: full, newton on
      pair build: full/bin/atomonly
      stencil: full/bin/3d
      bin: standard
  (3) compute coord/atom, occasional
      attributes: full, newton on
      pair build: full/bin/atomonly
      stencil: full/bin/3d
      bin: standard
  (4) compute cluster/atom, occasional
      attributes: full, newton on
      pair build: full/bin/atomonly
      stencil: full/bin/3d
      bin: standard
Per MPI rank memory allocation (min/avg/max) = 9.362 | 9.368 | 9.373 Mbytes
Step Temp PotEng Volume v_max_n 
    4000   0.99070142   -6.2598067    4185.8638            7 
    5000   0.96802921   -6.2968299    4144.7146            5 
    6000   0.96345719   -6.2972213    4145.9569            4 
    7000   0.99598115    -6.295631    4141.9416            5 
    8000    0.9692627   -6.3298907     4146.232           10 
    9000   0.96085093   -6.2923001    4144.8621           10 
   10000    0.9893827   -6.2808585    4141.9746            4 
   11000    0.9869719   -6.3030773    4156.5208            8 
   12000    0.9747092   -6.2887787    4136.4243           11 
   13000   0.98708683   -6.3186806    4136.7919            5 
   14000   0.99120596   -6.2850616    4138.8222            3 
   15000   0.98428435   -6.2922063    4138.1736            3 
   16000   0.97763994   -6.2726914    4143.2473            8 
   17000   0.96867001   -6.2936991    4133.8313           11 
   18000   0.96766433   -6.2838258    4125.3265            5 
   19000   0.98275785   -6.3043267    4138.5474            6 
   20000   0.98515414   -6.3000762    4132.5205           12 
   21000   0.99256974   -6.3138735    4143.7418            3 
   22000   0.97165898   -6.2801457    4137.8179            9 
   23000   0.99184146   -6.3298348    4140.2183            2 
   24000    0.9903974   -6.3012642    4138.2911           13 
   25000   0.96025911   -6.3356961    4126.8249            6 
   26000   0.98079189   -6.2874144    4132.5153            4 
   27000   0.96361558   -6.3232784    4132.5842            9 
   28000    0.9849143   -6.3054779    4124.9501           23 
   29000    1.0003364   -6.3153522    4139.1341            6 
   30000   0.98291309   -6.2880983    4130.8122            6 
   31000    0.9779166   -6.3122136    4127.3794            5 
   32000   0.98514789   -6.3146859    4126.2765            9 
   33000   0.97104259   -6.2647692    4137.2782            6 
   34000   0.97478313   -6.3429861    4141.1618            7 
   35000   0.97870004   -6.3064415    4144.7495            6 
   36000   0.96848619   -6.3326041    4131.9803            9 
   37000   0.98669338   -6.2922327    4133.5702            9 
   38000   0.99028169   -6.3072799    4151.3582            4 
   39000   0.98539873   -6.3716262    4128.5087           19 
   40000   0.98994541   -6.2760758     4144.651           13 
   41000    1.0148613   -6.3142617    4130.9513            5 
   42000    1.0002073   -6.3053412    4147.7184            7 
   43000   0.95365408   -6.2994353    4150.0877            7 
   44000   0.99406907   -6.2950467    4137.7124            4 
   45000   0.98214034   -6.3187799    4152.9511            8 
   46000   0.98201434   -6.3151006    4132.7831            5 
   47000   0.96479864   -6.3231261    4143.1716            6 
   48000   0.96870552   -6.2854281    4154.3419            7 
   49000   0.96439367   -6.2970484    4144.3507            6 
   50000   0.96118691   -6.2800462    4136.0839            7 
   51000   0.97718989   -6.3064002    4153.3597           11 
   52000   0.98049174   -6.3127391    4133.3161            4 
   53000   0.97417043   -6.3174214         4140            8 
   54000    0.9562988   -6.3044727     4127.686           10 
   55000   0.98406901   -6.3076821    4155.8637           10 
   56000    0.9800403   -6.3011994    4143.6682            8 
   57000   0.98056511   -6.3215928    4122.8072            5 
   58000   0.99792645   -6.3078117    4135.0397            7 
   59000   0.95962651   -6.3227803    4145.9824            8 
   60000    0.9779322   -6.2993164    4140.3826            7 
   61000    1.0015933   -6.3307727     4110.557           11 
   62000   0.99596769    -6.297998     4132.699            6 
   63000   0.93735378   -6.3452569    4122.7017            7 
   64000   0.97265062   -6.3044731     4134.349            5 
   65000   0.96375966   -6.3238446    4141.8312            7 
   66000   0.97061735   -6.3047073    4133.4552            6 
   67000   0.98355692   -6.3000003    4145.4289            4 
   68000   0.98938034   -6.3121113    4140.6826           10 
   69000   0.96510841   -6.3016142    4144.8195            6 
   70000   0.95251072   -6.2598198    4147.6213            5 
   71000    0.9766027   -6.3060465    4129.5256            4 
   72000   0.98441974   -6.2979529    4132.5492            6 
   73000   0.98462464   -6.3270279    4125.3208            8 
   74000     1.002676   -6.2765762    4137.4684            7 
   75000   0.97066488   -6.3421839    4151.9378            9 
   76000   0.98734102   -6.2849774    4161.2799           15 
   77000   0.96613689   -6.2901906     4124.786            8 
   78000   0.97138993   -6.3039698    4122.2031            5 
   79000   0.97899696   -6.3315153    4139.0775            8 
   80000   0.97611657   -6.3159052    4136.7462            6 
   81000   0.98183975   -6.3003178    4142.3844            7 
   82000   0.97524322   -6.3007048    4131.8642            6 
   83000   0.98982559   -6.2714587    4142.9647            5 
   84000   0.98855412   -6.3050718    4149.0848            6 
   85000   0.99710229   -6.2888003    4134.0957            6 
   86000    0.9766797   -6.3407902    4137.4226           13 
   87000   0.97483564   -6.2972434    4134.9361           10 
   88000   0.99069439   -6.2981744    4126.8848            5 
   89000   0.97695362   -6.3179106    4131.0653           11 
   90000   0.98336496   -6.3183088     4158.877            5 
   91000   0.98472409   -6.3322743    4121.5913            8 
   92000   0.96927054   -6.2811306    4127.8715            8 
   93000   0.99736542   -6.3265565    4147.8899            7 
   94000    1.0057537   -6.3041327    4155.6264            7 
   95000    0.9725796   -6.3061085    4152.5775            5 
   96000   0.98288642   -6.3057126    4136.0619            9 
   97000   0.99674887   -6.3029278    4131.9121            3 
   98000   0.99037092   -6.3166052    4138.5479            6 
   99000   0.98098172    -6.296507    4147.8011            3 
  100000    0.9801117   -6.3232273     4132.385            6 
  101000   0.96136347   -6.3238812    4138.1552           10 
  102000    0.9894043     -6.31922     4125.305           26 
  103000   0.98113659   -6.3186525    4145.1836            8 
  104000   0.97188217    -6.319324     4139.991            5 
  105000   0.99887987   -6.3443474    4124.6963            8 
  106000   0.97444167   -6.3060407    4155.9159           12 
  107000   0.99078503   -6.3100966    4131.8975            7 
  108000   0.96671932   -6.3050007    4137.8879            9 
  109000   0.98420013   -6.3196764    4134.7162            8 
  110000   0.96136421   -6.3054426    4145.0874            8 
  111000   0.99143684   -6.3096107    4144.5588            8 
  112000   0.98453915   -6.3011145    4136.7363            4 
  113000   0.96895331   -6.2765957    4144.4318            8 
  114000   0.97597476   -6.2868326    4135.1765            5 
  115000   0.99390898   -6.3224731    4122.5658           15 
  116000   0.98053918   -6.3063639    4132.1304            8 
  117000   0.98764392   -6.3300964    4134.6255           18 
  118000   0.97091073    -6.320644    4139.3079            4 
  119000   0.97255257   -6.2906511    4141.6233            6 
  120000   0.97372123    -6.306404    4130.2135            6 
  121000    0.9729663   -6.3139178    4140.1334           16 
  122000   0.99275503   -6.3184995    4128.2343            8 
  123000   0.96765579   -6.2856781    4144.0117            7 
  124000   0.97900386   -6.3235486    4119.7953            3 
  125000    1.0224744    -6.320612    4146.5769            8 
  126000    0.9852627   -6.3243897    4143.9079            7 
  127000    0.9671338   -6.3083297    4145.9223            7 
  128000    0.9778374   -6.3220887    4137.7191           11 
  129000   0.98173309    -6.304257    4148.6307           15 
  130000   0.98339564   -6.2834034    4139.4719            8 
  131000    1.0000034   -6.3276169    4137.3849           13 
  132000   0.97991158   -6.3286708    4136.4208           11 
  133000   0.98696318   -6.3159193    4145.2738            7 
  134000    1.0066491   -6.3098509     4130.745            5 
  135000   0.97478571   -6.3120433    4114.8063           10 
  136000   0.97844472   -6.3231657    4112.2843            8 
  137000    0.9770774   -6.3334887    4148.1023           16 
  138000   0.97350069   -6.3207546    4151.5817            4 
  139000    0.9760941   -6.3434159    4149.0923            6 
  140000   0.98823223   -6.2916622    4138.1474            4 
  141000   0.97897087   -6.2726495    4129.4706           11 
  142000   0.97065855   -6.2961479    4133.7717           10 
  143000   0.98711829   -6.3086096    4125.7003            6 
  144000   0.99815767   -6.3288817    4144.6455            7 
  145000   0.98882872   -6.2997504    4143.7363           14 
  146000   0.97178254   -6.3018826    4129.0933            6 
  147000   0.99857622   -6.3113575    4137.8271            5 
  148000   0.96886141   -6.3296405    4129.7778            8 
  149000    0.9726096   -6.3306045    4133.9853           12 
  150000   0.96785942   -6.3160266    4131.1125            6 
  151000   0.97162878   -6.3403356    4129.1986            7 
  152000   0.96320318    -6.321517    4112.9696            4 
  153000    1.0034123    -6.297067    4142.8979            6 
  154000   0.97403488   -6.3198687    4136.7434            9 
  155000   0.97840271   -6.3144837    4147.4519           12 
  156000   0.97547252   -6.3093406    4137.8159            9 
  157000   0.98054852    -6.278088    4129.2161           12 
  158000   0.97824461   -6.3183344    4122.5873            6 
  159000   0.95531198   -6.2615166    4144.5164           11 
  160000   0.97408608   -6.3191682    4138.0156           20 
  161000   0.98437557   -6.3152157    4133.8433           13 
  162000   0.96109135   -6.3097456    4149.0065            4 
  163000     0.984709   -6.3109137     4134.781           16 
  164000   0.98686265   -6.3248101    4151.4668            6 
  165000   0.96899842   -6.2892428    4132.2504            8 
  166000   0.99758523   -6.2800562    4149.8619            6 
  167000   0.96202754   -6.3202387    4138.6441            9 
  168000   0.98498477   -6.3110563    4149.8462            6 
  169000   0.98635625   -6.3616643    4125.0412            4 
  170000   0.97968566   -6.3269596    4135.9887            5 
  171000   0.99615352   -6.3006582    4139.6324            5 
  172000   0.98460493   -6.2979497    4139.4788            6 
  173000   0.96768074   -6.3046572    4136.5396            6 
  174000   0.98558938   -6.3281968    4152.3834            5 
  175000   0.97007998   -6.3051159    4136.8279            3 
  176000   0.97706679   -6.2883013    4127.2203            5 
  177000   0.96841751   -6.3182949    4138.9529            5 
  178000   0.96631733    -6.316534    4139.8794            6 
  179000   0.97158381   -6.3143791    4146.2206            6 
  180000   0.98049117   -6.3053588    4126.8153           10 
  181000   0.97760663   -6.3199005    4138.0186           10 
  182000    1.0034708   -6.3013163    4129.7746            8 
  183000   0.98691351   -6.3362826    4126.7027            5 
  184000   0.98757182   -6.3079666     4146.297            7 
  185000   0.97289859   -6.2802835    4126.3438            6 
  186000   0.98553961   -6.3041774    4136.1701           16 
  187000   0.98820919   -6.2695322    4146.9028            8 
  188000   0.98504128   -6.3200777    4128.6205            6 
  189000   0.99169774   -6.2825678    4136.4207           16 
  190000    0.9704384   -6.2866783     4147.362           20 
  191000   0.98975316   -6.3054819    4133.8275            3 
  192000    0.9923167   -6.3100083    4142.9833           10 
  193000   0.97092447   -6.3438932    4126.7343            5 
  194000    1.0201957    -6.285365    4134.2118            5 
  195000   0.97570568   -6.2806953    4154.1228           13 
  196000   0.96277672   -6.2951773    4159.3153            5 
  197000   0.97414641   -6.3306992    4129.6323            5 
  198000   0.97404743   -6.3245323    4127.8602            8 
  199000   0.98805189   -6.3007203    4130.2386           10 
  200000   0.97170393   -6.3249691    4122.6262            5 
  201000   0.96665898   -6.3026723    4123.6727            8 
  202000    0.9901184    -6.338142     4127.207            5 
  203000   0.98227918   -6.2862292     4133.759            7 
  204000    0.9818362    -6.320213    4126.5865            6 
  205000    0.9527317   -6.3186175    4141.2457            4 
  206000   0.98869397   -6.3340054    4135.6897           11 
  207000    0.9771686   -6.3145185    4142.8028            8 
  208000   0.95953025   -6.2858937    4145.6032            9 
  209000    0.9738101   -6.3235407    4132.2979            9 
  210000   0.99185566    -6.316628     4138.335            4 
  211000   0.97010604   -6.3210899    4120.2789            8 
  212000   0.98623295   -6.3257231     4134.616            5 
  213000   0.95757611   -6.3040026    4174.0798            5 
  214000   0.94425132   -6.3001562     4144.337            5 
  215000    0.9637363   -6.3068593    4134.7185            9 
  216000   0.96492478   -6.3046221    4135.4813            3 
  217000    0.9865384   -6.2783801    4127.8212            6 
  218000    1.0014306   -6.2816257     4139.539            4 
  219000   0.97516071   -6.2764616     4145.295            8 
  220000   0.96733256   -6.3036626    4137.6961            5 
  221000   0.97129931   -6.2871573    4140.8564            5 
  222000   0.98569488   -6.3326454    4129.7231            8 
  223000   0.96754944   -6.3149386    4122.1884            5 
  224000   0.95649038   -6.2999267    4148.7182            9 
  225000   0.99460867   -6.3389421    4139.7298            7 
  226000   0.97185308     -6.32231    4133.6046            4 
  227000   0.98689546   -6.3059831    4134.5369            4 
  228000   0.96835838   -6.3227246    4150.9898            5 
  229000   0.98198631   -6.3159473    4144.7717            8 
  230000   0.95835562   -6.3109391    4140.7076           11 
  231000   0.99323965   -6.3164823    4141.3127            7 
  232000    0.9800834   -6.3415876    4137.3216            6 
  233000   0.99000981   -6.2818377    4149.7479            4 
  234000   0.97258913   -6.2951188    4135.4896           12 
  235000    1.0030024   -6.3085465    4135.3432            3 
  236000   0.99907443   -6.2852823    4124.7287            4 
  237000   0.98104069   -6.3288587    4146.2256           11 
  238000   0.99261678   -6.3024606    4125.8551            3 
  239000   0.97792721   -6.2991606    4128.2396            7 
  240000   0.98812948   -6.2969591    4146.1026           10 
  241000   0.99788095   -6.3122462    4138.1049            8 
  242000   0.97374799   -6.2980336    4137.2531            6 
  243000   0.97748963   -6.2676829    4151.9402            5 
  244000   0.96611724   -6.3235961    4133.1251            8 
  245000   0.96049505   -6.3212088    4136.6721            6 
  246000   0.97136898   -6.2802094    4148.3126           11 
  247000   0.96903973   -6.2888296    4131.1232            6 
  248000   0.98670243   -6.3181684    4135.0953            6 
  249000    0.9565992   -6.3251272    4141.9907            6 
  250000   0.96978959   -6.2700822    4131.3658            3 
  251000   0.98606932   -6.2817609     4139.275            7 
  252000   0.97321807   -6.2924141    4131.2714           11 
  253000    1.0019327    -6.297157    4150.8205            6 
  254000   0.96651728   -6.3476903    4113.0808            7 
  255000   0.99166579   -6.3398321    4126.8061            6 
  256000   0.98173038   -6.3018415    4141.9661            7 
  257000    1.0011794   -6.3217837    4132.1264            3 
  258000   0.98897227   -6.2714862     4133.316           15 
  259000   0.98666155   -6.3106053    4144.8527            4 
  260000   0.98740146   -6.3061529    4149.8712            7 
  261000   0.99831142   -6.2932105    4158.5715            5 
  262000   0.98897038   -6.2691503    4144.9913            8 
  263000   0.98890127   -6.2984195     4138.031            4 
  264000   0.99081943   -6.3005908    4151.0692            9 
  265000   0.96197699   -6.2932944    4147.9664            5 
  266000   0.99375264   -6.3454481    4144.0525            6 
  267000   0.97161079   -6.3360124    4135.6806           11 
  268000   0.96612253   -6.3122207     4136.259            7 
  269000   0.97361854   -6.3147233    4147.8638            7 
  270000    0.9638358   -6.3343016    4135.7499            8 
  271000   0.98604416   -6.3204519    4137.7764            5 
  272000   0.96213201   -6.3095277    4132.3026            5 
  273000   0.98075458   -6.3021581    4134.9209            6 
  274000   0.96273338   -6.3449485    4131.2359            5 
  275000   0.99410587   -6.3204118     4123.923            8 
  276000   0.98753377   -6.3119473    4146.0111           12 
  277000   0.97201244   -6.2916715     4143.969            8 
  278000    1.0005854   -6.3150129     4138.151            9 
  279000   0.98423529   -6.3271703     4122.387            7 
  280000   0.98431139   -6.3062024     4144.848            7 
  281000   0.95089533   -6.3444979    4122.5485           15 
  282000   0.96665205   -6.3144431    4146.8654            7 
  283000   0.96735087    -6.313071    4136.5687           12 
  284000    0.9857302   -6.3072756    4135.3502            3 
  285000   0.97467176   -6.3103815    4133.2306            6 
  286000     0.990341   -6.3243295    4153.0598            7 
  287000   0.99687917   -6.3151471    4141.8418            6 
  288000   0.97487495    -6.306123    4147.8583            5 
  289000   0.99028992   -6.3223441    4138.8074            4 
  290000   0.99985606   -6.3206434    4122.2784            5 
  291000   0.99013331   -6.2948593    4139.5299            8 
  292000    1.0012299   -6.3214521    4148.8733            9 
  293000   0.98510256   -6.3469474    4133.0561            5 
  294000   0.95362485   -6.2965067    4134.3915            6 
  295000   0.98223794   -6.3221363    4133.1234            8 
  296000   0.98510773   -6.2998257    4130.4326            6 
  297000   0.99342808   -6.3354987    4134.7171            6 
  298000     0.969473   -6.2974412    4148.8048            7 
  299000   0.97601923   -6.3065546    4132.9981            5 
  300000   0.97852912   -6.2940196    4143.7061           13 
  301000    0.9874316   -6.2551126    4150.4537           10 
  302000   0.97835601   -6.3229412    4121.2804            8 
  303000   0.99952276    -6.280244    4134.1518           10 
  304000    0.9920258   -6.2995557     4140.119            8 
  305000    1.0006946   -6.3391776    4129.1781           15 
  306000   0.98045502   -6.3054613    4130.6607            3 
  307000   0.96243977   -6.3386517    4124.2262            8 
  308000   0.97715067   -6.3274879    4160.5983            9 
  309000   0.98751966   -6.2985232     4141.505            7 
  310000   0.96532662   -6.3570645    4140.1056            6 
  311000   0.94711548   -6.2791004    4147.2136            6 
  312000   0.99505115   -6.2574346    4133.7915            7 
  313000   0.98063829   -6.2925244     4158.652           10 
  314000   0.98783997   -6.3168263    4131.0445            7 
  315000   0.99679584   -6.3048797    4122.3987            5 
  316000   0.95688466   -6.3206824    4142.9197           12 
  317000   0.97707552   -6.2999827     4128.728            8 
  318000   0.97244455   -6.3191623    4138.1447            7 
  319000   0.98549511   -6.2962027    4131.8239            5 
  320000   0.97711079   -6.3029079    4130.2384            7 
  321000   0.99481357   -6.3392026    4138.1076            7 
  322000   0.97654665     -6.30549    4131.6209           20 
  323000   0.98318489   -6.2815988    4154.8894            6 
  324000   0.97062624   -6.3229851     4137.461           10 
  325000   0.97332687   -6.3359446    4124.0259            7 
  326000   0.94990565    -6.286249    4127.3562            5 
  327000   0.96463037   -6.3395087    4146.0142           10 
  328000   0.96506873   -6.3510079    4149.5665            5 
  329000   0.96404861   -6.3120471    4130.4836           11 
  330000   0.98457367   -6.3113048    4142.5069            2 
  331000    0.9785681    -6.276762    4141.1658            9 
  332000   0.97675961   -6.3204277    4135.1006            9 
  333000   0.97874517   -6.3380727    4133.3852            5 
  334000   0.99755361   -6.3230521    4127.8758            4 
  335000   0.97047064   -6.3215424    4146.1335            9 
  336000   0.97806207   -6.2916655     4138.043            7 
  337000   0.97283414   -6.3252711    4129.8735            9 
  338000   0.97999584   -6.2726556    4144.5785            5 
  339000   0.97787518   -6.2855192     4140.735            6 
  340000     0.988799   -6.2962684    4130.4277            7 
  341000   0.96717495   -6.3289551    4124.1581            8 
  342000    1.0012603   -6.3210895    4133.7593           11 
  343000   0.99437399   -6.2996944    4129.3243            4 
  344000   0.98132608   -6.3235791    4153.0804            6 
  345000   0.99548721   -6.3190221    4132.9682            8 
  346000   0.98532174   -6.2933365    4139.3086            5 
  347000   0.97648745   -6.2842256    4139.6017            9 
  348000   0.99186172   -6.3238375    4139.2965            8 
  349000   0.96368476   -6.3199213    4119.3033           10 
  350000    1.0008739   -6.3122434    4144.0716            9 
  351000   0.99494289   -6.2832327    4137.4311           15 
  352000   0.98669331   -6.2799041    4127.7843            4 
  353000   0.99346567    -6.315256    4130.6808            9 
  354000    1.0058133   -6.2955493    4122.8974            8 
  355000   0.97978361   -6.3305261    4129.8358           29 
  356000   0.98707298    -6.308896    4131.3179            6 
  357000   0.97118785   -6.3285625    4120.9275           10 
  358000   0.99161221    -6.289377    4143.9672            4 
  359000   0.98645626   -6.3088766    4148.3791            6 
  360000   0.97721797    -6.318558    4144.8802            5 
  361000   0.94849766   -6.2907326    4127.7508            6 
  362000   0.97783558   -6.2683244    4135.8183            8 
  363000   0.98457602   -6.3009512    4129.2732            5 
  364000   0.97103663   -6.3017482    4154.9705            6 
  365000    0.9691909    -6.310464    4133.4816            4 
  366000   0.98468422   -6.3088443    4136.0382            5 
  367000   0.97464228   -6.3438972    4119.6467            7 
  368000   0.97689659   -6.3022569    4138.2863           12 
  369000   0.99023313   -6.3042955    4146.9287           10 
  370000    0.9710612   -6.2986619    4133.2202            5 
  371000   0.99295144   -6.3033239    4136.1634            6 
  372000   0.98545141   -6.3167283     4126.886           11 
  373000   0.96468173   -6.3017957    4136.4889            2 
  374000    1.0066002   -6.2951626    4135.3568           10 
  375000   0.97739162    -6.307609    4141.1939            6 
  376000   0.98050563   -6.3128074    4142.9096            5 
  377000   0.98133787   -6.2755134    4139.7878            9 
  378000    0.9591156   -6.3159869    4156.6188            6 
  379000   0.95502754   -6.3213211    4134.8952            9 
  380000   0.99062585   -6.3241531    4132.6073           11 
  381000    0.9866264   -6.3206067    4141.0518            6 
  382000   0.97641268   -6.2883841    4133.2369            8 
  383000   0.96697126   -6.3092823    4134.7932            4 
  384000   0.96193204   -6.3139752    4128.8722            9 
  385000   0.98104779   -6.3097973    4136.6643            5 
  386000   0.97907777   -6.3164877    4130.0142            3 
  387000   0.98017052   -6.2833894     4144.962            4 
  388000   0.96769592   -6.3135552    4143.7534            7 
  389000     1.002081   -6.2926411     4145.685            6 
  390000   0.97370155   -6.3356186     4123.178           14 
  391000   0.95923342   -6.3130504    4133.1632            6 
  392000   0.96790892   -6.3002614    4142.8872            4 
  393000   0.97891693   -6.3553405    4116.0616            6 
  394000   0.98276129   -6.3178667    4125.0254            6 
  395000   0.97896679   -6.3051391    4150.9838           14 
  396000   0.96563485   -6.2876213    4126.7653            5 
  397000   0.96581586   -6.3057187    4142.1734            8 
  398000   0.96451407   -6.3132351    4135.3558            5 
  399000    1.0073306   -6.3363947    4130.4826            6 
  400000    0.9904221   -6.3370142    4135.2253            7 
  401000   0.99917069   -6.2798869    4130.9431            6 
  402000   0.96908081   -6.3076217    4150.0635           10 
  403000   0.97660196   -6.3094952    4133.2351            4 
  404000   0.97749306   -6.3106419     4153.586            5 
  405000   0.93993598   -6.2940669    4124.1191            7 
  406000   0.99634905   -6.2966863    4141.9347            6 
  407000   0.97136357   -6.3094431    4115.3756           11 
  408000    1.0004176   -6.3330037     4132.323            6 
  409000   0.96322825   -6.3271173    4133.6413            9 
  410000   0.98864891   -6.2733019    4147.8653            8 
  411000   0.98795964   -6.3210282    4149.3724            9 
  412000   0.96186847   -6.3080763    4134.4688            4 
  413000   0.97071285    -6.319961     4133.807           10 
  414000   0.99922826   -6.3036462    4142.1814            6 
  415000   0.97419723   -6.3045579    4136.1955            4 
  416000   0.98664696    -6.297777    4142.1618            5 
  417000   0.96150235   -6.3175501    4139.6239            8 
  418000   0.96423658   -6.3076184    4124.2057           13 
  419000   0.96466227   -6.2747071    4124.5949            8 
  420000   0.98069407   -6.2858159    4135.0836            5 
  421000   0.97327432   -6.3265768    4121.1037            3 
  422000   0.97855197   -6.2740831    4128.8162            8 
  423000   0.96841237   -6.3026359    4137.3505           11 
  424000    0.9508045   -6.2932485    4165.9242           10 
  425000   0.99092229   -6.3071122    4127.6267            5 
  426000   0.97580703   -6.3164456    4140.0938            8 
  427000    1.0020166   -6.3234294    4135.7208           12 
  428000   0.96264656   -6.2817962     4143.022           12 
  429000   0.96421242   -6.3116466    4124.7682            5 
  430000   0.98258164   -6.3072035    4121.0838           12 
  431000   0.96784234   -6.2806911    4133.2882            5 
  432000   0.95522885   -6.3012952    4142.2711            6 
  433000   0.99181682   -6.2702302    4137.8047           19 
  434000   0.97035008   -6.2895135    4154.9785           10 
  435000   0.97374915   -6.2944271    4133.2857            5 
  436000   0.97242739   -6.3121795    4148.0552            9 
  437000   0.99065268   -6.3210346    4146.5313           11 
  438000   0.98795083   -6.3191082    4138.5836            7 
  439000    0.9592375   -6.2938836    4148.6518            5 
  440000   0.98302585   -6.3122164     4128.141            5 
  441000   0.95650765   -6.2993344    4139.2788           19 
  442000   0.99375556   -6.2830676     4147.625            7 
  443000    1.0032283   -6.3015325     4132.412            5 
  444000   0.97797898   -6.3436454    4132.0103            5 
  445000   0.99118552   -6.3192325    4156.8425            4 
  446000   0.95701981   -6.3198136    4139.0586            6 
  447000   0.98710165    -6.309671    4138.7188            6 
  448000   0.96691902    -6.299685    4142.7533            4 
  449000   0.96788306   -6.3218378    4147.9041            7 
  450000   0.98077491   -6.3169313    4143.3812            9 
  451000   0.96862796   -6.3157213    4135.6818           10 
  452000   0.96779465   -6.2969775    4141.1242           10 
  453000   0.98124604   -6.3447193    4142.1474            6 
  454000   0.97458231   -6.2979526    4157.3566            6 
  455000   0.97660425    -6.283198    4153.4075            4 
  456000   0.96076938   -6.3417886    4125.7632            8 
  457000    0.9670767   -6.3141456    4128.4288            6 
  458000     0.967072   -6.3262758    4134.9682            6 
  459000   0.96284204   -6.3037772     4147.767           11 
  460000    0.9515707   -6.2720338    4145.1687           14 
  461000   0.95935193   -6.3131191    4150.9466            7 
  462000   0.96284455   -6.2846549    4137.9349            7 
  463000   0.97396316   -6.2887278    4142.0044           14 
  464000   0.97176645   -6.2765654    4147.4685           18 
  465000    1.0129037   -6.3580753    4130.0092            5 
  466000   0.97904952   -6.2811679    4144.5919           21 
  467000   0.95334251   -6.3125324    4145.6206            5 
  468000   0.98399663    -6.295292    4145.7462            4 
  469000   0.97501938   -6.3366796    4130.3872           10 
  470000   0.97577724   -6.2960462    4121.9026            8 
  471000   0.99612032   -6.3376053    4152.0261           13 
  472000   0.96058403   -6.3103597    4140.1212            7 
  473000   0.96294171   -6.3212617    4138.8343            7 
  474000   0.95907076   -6.3301612    4131.7004            7 
  475000   0.97197047   -6.3390308    4149.2353            9 
  476000   0.98376674   -6.2943603    4134.2496           15 
  477000   0.97467389   -6.3159763    4140.0377           11 
  478000   0.97876565   -6.3181548    4125.0902            8 
  479000   0.97299014   -6.2938048    4148.4809           11 
  480000   0.97653074   -6.3043589    4149.0237            8 
  481000   0.95186126   -6.3167262    4152.3008            4 
  482000   0.99663725   -6.3001221    4132.0875            4 
  483000   0.98038095   -6.2985417    4147.1228            5 
  484000    1.0051071   -6.3145361    4143.9563            8 
  485000   0.96376367   -6.2830476    4131.9578            8 
  486000   0.99095696   -6.2928434    4147.7097            5 
  487000   0.96856372   -6.3101092    4145.2102           12 
  488000   0.97460289   -6.3458553    4136.4465            4 
  489000   0.98012501   -6.3007671    4151.4045            9 
  490000   0.97205723   -6.3103655    4151.6931           14 
  491000   0.97665999   -6.2918982    4148.7352            4 
  492000   0.95128828   -6.3120516    4134.1997            4 
  493000   0.99745125   -6.2901528    4139.4628           14 
  494000    0.9936023    -6.296508    4138.7276            5 
  495000   0.96385153   -6.2976072     4121.482            6 
  496000   0.97671548   -6.3399124    4139.6784            5 
  497000   0.99360275   -6.2918088     4133.932           10 
  498000   0.98884135   -6.3100465    4150.3627           12 
  499000   0.98333076   -6.3209192    4125.1148            5 
  500000   0.97109238   -6.2929816    4145.3741           11 
  501000   0.98591513   -6.3209356    4123.3304           11 
  502000   0.99308687   -6.3223506     4138.179           16 
  503000   0.98951631    -6.331799    4159.2139           10 
  504000   0.99992124   -6.3295072      4125.24            7 
  505000   0.98245967   -6.3164573    4143.8663            9 
  506000   0.96650241   -6.3223983    4140.0225            6 
  507000   0.97604847   -6.3496063     4113.913           11 
  508000    0.9878155   -6.3369749    4139.8646           10 
  509000   0.95816927    -6.337989    4137.7853            4 
  510000   0.98775984   -6.3537484    4120.2611            9 
  511000   0.99414933   -6.2691931      4154.72           10 
  512000   0.95161989   -6.2883323    4140.9062           11 
  513000   0.97259806   -6.3154443    4158.8549           11 
  514000   0.95648763   -6.3178688    4141.8777            7 
  515000   0.96977874   -6.3180647     4138.014            5 
  516000   0.97065673   -6.2891769    4148.4338            7 
  517000   0.98585069   -6.3002749    4138.3971            6 
  518000   0.99711563    -6.360224     4118.106            6 
  519000   0.98840406   -6.3289765     4136.445            9 
  520000   0.99287775   -6.3405248    4113.3678            6 
  521000   0.96450572   -6.3259213    4116.5259            8 
  522000   0.97933175   -6.3210699    4128.2598            5 
  523000   0.97178705   -6.3392181    4141.3794           10 
  524000   0.99760799   -6.3288555    4126.7384           15 
  525000     1.002814   -6.2899219    4143.5012            4 
  526000    1.0000059   -6.3137126    4141.7014            4 
  527000   0.96592984   -6.2821439    4125.0448            8 
  528000   0.98360422   -6.2932327    4123.5119            7 
  529000    1.0175902     -6.31745    4120.5542            4 
  530000   0.99254983    -6.264877    4121.2034            5 
  531000   0.99103641   -6.3299573    4126.7373            7 
  532000   0.97911388   -6.2925489    4133.3826           12 
  533000   0.97962865   -6.3088164    4129.3122            9 
  534000    0.9818195   -6.2922896    4134.2172            7 
  535000    0.9860585   -6.2899819    4150.6233            6 
  536000   0.99679896   -6.3137888    4144.4368            8 
  537000   0.98963465   -6.3354827    4131.6186            9 
  538000   0.99228191   -6.3055155    4147.9397            6 
  539000   0.97429496   -6.2928625    4144.9614           11 
  540000   0.96754155   -6.2710436    4154.5191           17 
  541000   0.98985436   -6.2931617    4123.0208            6 
  542000    0.9735571   -6.3235299     4139.066           12 
  543000   0.97212829   -6.3318959    4119.6571           13 
  544000   0.96691739   -6.3109968    4122.3421            6 
  545000   0.98425359   -6.3195667    4131.7068            5 
  546000   0.93646133   -6.3059316    4144.4395            4 
  547000   0.98602572   -6.3121165    4148.1799            4 
  548000   0.98949077   -6.3187216    4138.6651            4 
  549000   0.97565627   -6.3140359    4134.1806           12 
  550000   0.99353585   -6.2910236    4128.6315            5 
  551000    0.9766127   -6.2929882    4140.8364           14 
  552000   0.98661812   -6.2853306    4141.2313            9 
  553000   0.97119481   -6.2970563    4128.4229            5 
  554000   0.98871454   -6.2947465    4141.9092           11 
  555000   0.99158211   -6.3346986    4135.1824            5 
  556000   0.97032743   -6.3226013    4139.4624            5 
  557000   0.98438248   -6.3072018     4137.302            2 
  558000   0.97331017    -6.298966     4140.239            8 
  559000   0.97703917   -6.3015785    4152.8422            8 
  560000   0.98941985   -6.3085902     4148.744           18 
  561000   0.97006271   -6.2909553    4138.1785           11 
  562000   0.97802054   -6.2911876    4143.5542            8 
  563000   0.98071743   -6.2812491    4138.8448            6 
  564000   0.98323121   -6.3233003    4144.8773            6 
  565000   0.99506916   -6.2491882    4135.0078            7 
  566000   0.97994221   -6.3624053    4144.0875            6 
  567000    1.0050435   -6.3155742     4132.366            6 
  568000    0.9998094   -6.2920611    4147.6965           12 
  569000   0.97332175   -6.2901082    4129.0463           11 
  570000   0.96564935    -6.319501    4118.5986            4 
  571000   0.97814666   -6.2943762    4141.1175            7 
  572000   0.97973428   -6.3208356    4131.2037            9 
  573000   0.97068431   -6.3022272    4139.2051           12 
  574000   0.98296273   -6.2980196    4150.6019            4 
  575000   0.98958277   -6.3169041    4130.1047            5 
  576000   0.97045411   -6.3120134    4127.0899            9 
  577000   0.95329964   -6.3261381    4133.8526            7 
  578000   0.97012346   -6.2975558    4150.4271            6 
  579000    0.9835526   -6.2920333    4132.6149           10 
  580000    0.9852553   -6.2974852     4145.403           12 
  581000   0.96274814   -6.3319204    4136.2611            6 
  582000   0.97181249   -6.3342295    4134.5825            6 
  583000    1.0027418   -6.3367275    4127.2256            8 
  584000    0.9664432   -6.2937908    4124.4477            6 
  585000   0.98251105   -6.3226277    4138.7297            9 
  586000   0.97909946   -6.3186423    4136.9765           14 
  587000   0.99875495   -6.3200734    4140.3344            9 
  588000   0.98252884   -6.3008657    4152.2924            9 
  589000   0.99581748   -6.3172079    4135.4152           10 
  590000   0.96630796   -6.3123884    4133.1197           25 
  591000   0.97717674   -6.3200012    4141.3757           16 
  592000   0.98257596   -6.2925736    4159.4353            6 
  593000   0.96592201   -6.3086789    4125.8487           15 
  594000   0.95890031   -6.2784933    4124.1164            4 
  595000   0.99805572   -6.2965765     4140.681            4 
  596000   0.97159084   -6.3033077    4131.6612            5 
  597000   0.96872349   -6.3134515    4127.3285            6 
  598000   0.96871093   -6.3278296    4136.5149            6 
  599000   0.98936004   -6.2882119    4151.5205           11 
  600000   0.96676081    -6.319355    4136.1404            6 
  601000   0.96471693    -6.283315    4148.7667            9 
  602000   0.97509446   -6.2921354    4156.6588           15 
  603000   0.99178801   -6.2932164    4135.5029            9 
  604000    0.9902244   -6.3170332    4128.7858            7 
  605000   0.96546799    -6.331346    4152.6496            7 
  606000   0.97882558   -6.2879048     4146.703            4 
  607000   0.99019949   -6.2936484    4142.4909            6 
  608000   0.97065341   -6.3187416    4135.0326            7 
  609000     1.000923   -6.2902947    4138.0441            7 
  610000    0.9768125   -6.2812458    4135.6915            9 
  611000   0.95306076   -6.3294086    4128.0459            5 
  612000   0.94909435   -6.3068793    4147.8184            5 
  613000   0.97152818   -6.2333104    4155.3659            6 
  614000   0.98775097   -6.3159658    4135.7427            3 
  615000   0.98245481   -6.2950586    4138.9946            9 
  616000   0.96583989   -6.3456089    4119.1019           14 
  617000   0.96466906   -6.3257411    4113.5244           16 
  618000   0.97967816   -6.2993478    4153.1556            5 
  619000   0.95818456   -6.3409938    4151.7885            4 
  620000   0.98786057   -6.3263375    4126.6252            6 
  621000   0.99040543    -6.303474    4127.9597           16 
  622000   0.97558989   -6.2969798     4133.354            5 
  623000   0.99549751   -6.3067992     4135.967            6 
  624000   0.98048438   -6.3123804     4147.567            5 
  625000   0.99375812    -6.258805    4145.5542            5 
  626000   0.98512513   -6.3013092    4126.7164           30 
  627000    0.9727779   -6.2833889    4143.8529            9 
  628000   0.98031371   -6.2810155    4121.8502            7 
  629000   0.97210131    -6.300101    4129.3738            6 
  630000   0.97572843   -6.3056401    4138.8414           10 
  631000   0.99405387   -6.2787888    4152.5742           11 
  632000   0.97967297   -6.3327079    4130.3638            4 
  633000   0.98543857   -6.2816752    4134.0829            4 
  634000   0.97915677    -6.289952    4164.2631            9 
  635000   0.97395527   -6.3305374    4145.1008            5 
  636000   0.96321876   -6.3116529    4146.9608            3 
  637000   0.96716548    -6.304824    4144.8079            4 
  638000   0.98095526   -6.2916782    4126.6802            8 
  639000   0.98007044   -6.2972519    4136.4072            7 
  640000   0.99324634   -6.2962328    4140.7933            5 
  641000   0.98275715   -6.3116799    4144.5556           17 
  642000   0.99321725   -6.3179327     4146.848           21 
  643000   0.99809008   -6.3041116     4153.415            7 
  644000    0.9776908   -6.3211349    4133.7068            8 
  645000   0.96253871   -6.3375025    4119.3624            8 
  646000    0.9834897   -6.2899501    4141.8006            9 
  647000   0.97202631   -6.3070304    4142.8382            9 
  648000    0.9933982   -6.2793394    4149.5511            4 
  649000      1.01658   -6.3052358    4145.8586           13 
  650000    0.9876395   -6.3048016     4138.247            4 
  651000    0.9737019   -6.3106476    4130.4749            7 
  652000   0.99210564   -6.3047138    4132.2615            7 
  653000   0.96721742   -6.3006372    4144.7132            3 
  654000   0.96872681   -6.3012256    4138.1841           11 
  655000   0.96992139   -6.3147316    4137.8865            5 
  656000   0.96608971   -6.2766484    4145.6618            2 
  657000   0.96806768   -6.3271213    4148.3881           12 
  658000   0.99591333   -6.3424699    4126.4629            9 
  659000   0.98800878   -6.3238135    4134.2697           12 
  660000   0.99249532   -6.3044258     4148.276            6 
  661000   0.99479243   -6.2999128    4149.2665            8 
  662000   0.97008874   -6.3148217     4138.798            4 
  663000    0.9811878   -6.2693366    4145.4182            5 
  664000   0.98052566   -6.3250518    4126.2326            4 
  665000   0.99190654   -6.3279041    4134.2952            5 
  666000   0.96404193   -6.3355987    4150.1775            3 
  667000   0.97479691   -6.2827481    4155.4542            7 
  668000    0.9699348   -6.3227772    4135.9101            4 
  669000   0.96558061   -6.3102158     4136.402            4 
  670000   0.93963608   -6.3081354    4140.0048            9 
  671000    1.0044151   -6.2578529    4137.0301            8 
  672000   0.99799004   -6.2809827     4137.784            5 
  673000   0.96160079    -6.299568    4153.0642            4 
  674000   0.99094388   -6.3431815    4134.8511            7 
  675000   0.99814867   -6.3131122    4134.8988            7 
  676000   0.97558189   -6.2901071    4144.4014            6 
  677000   0.98401984   -6.3287872    4126.7871            7 
  678000    0.9858035   -6.3167924     4131.482            9 
  679000     0.981891   -6.2767259    4152.2825            8 
  680000   0.98264197   -6.3156395    4144.6013            6 
  681000   0.99029698   -6.3005091    4141.6987            5 
  682000   0.97833013   -6.3101929    4135.6655           11 
  683000   0.98483792   -6.3046215    4133.2648           10 
  684000   0.97781346   -6.3147353    4140.9423            7 
  685000   0.98102224   -6.2741699    4139.7555            7 
  686000   0.98891269   -6.2931224    4130.6852            7 
  687000   0.96897699   -6.3188732    4142.5823           10 
  688000    1.0009515   -6.3036294     4148.135            5 
  689000   0.99088686   -6.2923424    4137.7506            4 
  690000   0.98603361   -6.3019316    4139.9731           10 
  691000   0.98311881   -6.3270145    4145.1588            7 
  692000   0.98795197   -6.2600073    4167.2057            2 
  693000   0.98030413   -6.3175946    4149.5965            7 
  694000   0.98138044   -6.3241136    4131.2538           12 
  695000    0.9627749   -6.3249555    4134.0928            8 
  696000   0.99615943   -6.3056042    4145.7849            6 
  697000   0.98493742   -6.3206783    4116.4588            8 
  698000     1.002572   -6.3096162    4150.0549            6 
  699000   0.98409469   -6.2978912    4144.5036            8 
  700000   0.97348495   -6.3381704    4136.5385            9 
  701000   0.98012962   -6.3048247    4147.0168            4 
  702000    0.9677362   -6.3000156    4135.0717            9 
  703000    1.0116286   -6.2886818    4135.5158           10 
  704000   0.98122187   -6.3132171     4117.909            9 
  705000   0.98457719   -6.3420536    4155.1193           11 
  706000   0.98208064   -6.3098852    4127.6873            8 
  707000   0.95037983   -6.2958233    4128.1584           12 
  708000   0.96616607   -6.3154923    4143.3415            9 
  709000    0.9826443    -6.272334    4143.2572            3 
  710000   0.96616861   -6.3111223    4135.4309           13 
  711000   0.95386902   -6.3126939    4128.4556           10 
  712000    1.0052782   -6.2841363    4138.8305            8 
  713000   0.96178607    -6.320873    4139.2401            7 
  714000   0.99066946   -6.2986154    4139.1811            5 
  715000   0.97888925   -6.2977246    4152.7876            5 
  716000    1.0030506    -6.295059    4161.8691            3 
  717000   0.99345422   -6.3088474    4142.3739            7 
  718000    0.9990297   -6.3021803     4136.816           11 
  719000   0.99753183   -6.3038604    4145.4602            8 
  720000   0.99478531   -6.3067006    4144.6869            4 
  721000   0.98017613   -6.3336755    4120.5554            5 
  722000   0.97292851    -6.291376    4131.0903            6 
  723000   0.97316785   -6.3065734    4126.2387            5 
  724000   0.96932084   -6.2912322    4136.6113            5 
  725000   0.98003973   -6.3106704    4155.0836            7 
  726000   0.96642045   -6.3094485     4141.554            5 
  727000   0.97362914   -6.2699768    4148.8761            7 
  728000    1.0199563   -6.3015046     4130.972            7 
  729000   0.98386762   -6.2904531     4134.941            7 
  730000   0.97035031   -6.3222257    4130.8354            7 
  731000    0.9864332    -6.264463     4153.353            4 
  732000   0.98496055   -6.3035005    4143.3587           11 
  733000   0.98451767   -6.3067468    4140.0485            9 
  734000   0.97725815   -6.3206798    4129.9699            6 
  735000   0.96796108   -6.3026853    4146.0023           14 
  736000   0.98868298    -6.331622    4128.1113           11 
  737000   0.97202552   -6.3045996    4147.9446            4 
  738000   0.96932741   -6.2594346    4141.0855            6 
  739000    0.9659615   -6.3112916    4130.1218            3 
  740000    1.0008794   -6.3107085    4142.6935           11 
  741000   0.98757451   -6.3166371    4131.6269            5 
  742000   0.98223907   -6.2974445    4140.7116            9 
  743000   0.97457794   -6.2961261    4144.9198            5 
  744000   0.98663818   -6.2903366     4156.385            4 
  745000   0.96319381    -6.309027     4148.204            6 
  746000   0.98295972   -6.2738617    4148.5793            4 
  747000   0.98086413   -6.3172341    4138.3336           13 
  748000     0.979045   -6.3039335    4141.0472            6 
  749000   0.96633025   -6.2917283    4147.2776           11 
  750000   0.96781831   -6.3118155    4115.3351            5 
  751000   0.99171813   -6.2979938    4132.8787            6 
  752000   0.98523146   -6.2921355    4137.3425            7 
  753000   0.99963045   -6.3561908    4135.4908            7 
  754000   0.96739651   -6.3216178    4118.4139            4 
  755000   0.98578852   -6.3251441    4136.0421            8 
  756000    1.0042375   -6.2948434    4131.8685            4 
  757000   0.97588085   -6.2980841    4142.4445           12 
  758000   0.98634005   -6.3109469     4143.728            8 
  759000   0.97079063   -6.3151078    4136.2884           10 
  760000   0.96678646   -6.3180226    4133.6687            9 
  761000    0.9577975   -6.3284917    4135.0405            4 
  762000   0.96052788   -6.3108239    4127.7324            7 
  763000   0.98953905   -6.2849906     4139.561           12 
  764000   0.97698598   -6.2846946    4142.7756            5 
  765000   0.98192559   -6.2944202    4120.4683           10 
  766000   0.99313846   -6.3119847    4142.8828           10 
  767000   0.97156814   -6.2901954    4141.6972            7 
  768000   0.96308085   -6.3288964    4132.0051           10 
  769000   0.96555944   -6.3015388    4117.3988           11 
  770000   0.98041161   -6.3000022      4142.29           11 
  771000   0.97775986   -6.3171315    4128.2818            8 
  772000   0.96601811   -6.2796112    4136.6022            8 
  773000   0.96309528   -6.3336997    4140.7597            7 
  774000   0.98622179    -6.300309    4144.3445           12 
  775000   0.98973471   -6.3181363    4140.0046            5 
  776000   0.99529226   -6.2843301    4146.0973            5 
  777000   0.98119992    -6.291915    4142.0124            7 
  778000   0.97672456   -6.3219629    4122.2501            7 
  779000   0.97983899   -6.3161327    4156.8263           14 
  780000   0.98396749   -6.3136347    4143.5793            4 
  781000      1.00273   -6.3026384    4109.9932            7 
  782000   0.98808598   -6.3073198    4153.1402            4 
  783000    1.0018791   -6.3187403    4151.3004            6 
  784000   0.97389278   -6.2769855    4119.9442           17 
  785000   0.98591649   -6.2865206    4149.9516            6 
  786000    0.9772958   -6.2505708    4127.2826           11 
  787000   0.96943024   -6.2929774    4141.3012            7 
  788000   0.97406755   -6.3263617    4142.4517            3 
  789000   0.96900414   -6.3266662    4135.8134           10 
  790000   0.98391153   -6.3095784    4124.4238            3 
  791000    1.0042599   -6.3022065    4138.4115            8 
  792000   0.96403711   -6.3096025    4135.6388            8 
  793000   0.97671792   -6.3143791    4133.6691            7 
  794000   0.98464143    -6.310716    4137.2486           10 
  795000    1.0002987   -6.3051784    4156.8647            7 
  796000   0.97353093   -6.2979993    4118.5531            7 
  797000   0.96988356   -6.2804855    4136.4211            6 
  798000   0.97915123   -6.2866023    4133.4727            9 
  799000   0.97828593   -6.3066555    4129.8972            7 
  800000   0.97084322    -6.315476    4124.0335            5 
  801000     0.996568   -6.2854947    4136.4438            9 
  802000   0.99694122   -6.2983932    4139.5463           11 
  803000   0.98966045   -6.3073389    4134.0348            4 
  804000   0.97756201   -6.3204238     4126.638            6 
  805000   0.98049894   -6.3210017    4144.4687            7 
  806000   0.97139691   -6.3374817    4140.8298            7 
  807000   0.98346323   -6.3183283    4129.8103           10 
  808000   0.96961264    -6.334067    4116.3653            3 
  809000   0.98123679   -6.3185264    4130.1308            5 
  810000    0.9986412   -6.2941202    4129.1988            8 
  811000   0.96093193   -6.3391663    4147.8491            5 
  812000   0.98505035    -6.301594    4143.2419           10 
  813000   0.98033909   -6.3175043    4129.4971           10 
  814000   0.97880748   -6.3217595    4138.2045            8 
  815000   0.97111372    -6.319025    4141.5409            6 
  816000   0.97668342   -6.2947598     4114.613            4 
  817000   0.96602851   -6.2886529    4134.8236            6 
  818000   0.98546656   -6.2749328    4152.8023            3 
  819000   0.98291854   -6.3122241    4137.4784            4 
  820000   0.97507781   -6.3214966    4131.5033            8 
  821000   0.98372754   -6.3098965    4141.0641            8 
  822000    1.0015657   -6.2905805    4135.4302            5 
  823000   0.97179521   -6.3351355    4132.8408            7 
  824000     0.966116   -6.3352687    4131.2735           12 
  825000   0.99022251   -6.3346928      4136.67            4 
  826000   0.97764485    -6.330676    4131.9439            5 
  827000   0.96640972   -6.3241551    4123.4597            6 
  828000   0.95653805   -6.3019769    4140.9478           15 
  829000   0.97469506   -6.3268122    4129.4592            5 
  830000   0.97521878   -6.3089156    4149.9204            7 
  831000   0.95362692   -6.3012006    4138.7449            6 
  832000   0.98622187   -6.2831285    4139.9284            5 
  833000   0.98039742   -6.2771477    4149.4355           12 
  834000   0.96750494   -6.2982758    4142.1696            7 
  835000   0.98480892   -6.3075762    4156.7014            5 
  836000    1.0034876   -6.3081913    4144.4879           24 
  837000   0.96977276   -6.3200548    4137.9925            7 
  838000   0.97545668   -6.3348343    4127.1003            8 
  839000   0.95849008   -6.3015359    4145.0647           12 
  840000   0.98290752   -6.3222663    4128.4928            9 
  841000   0.98572699   -6.2689543    4147.9827            3 
  842000   0.96220889   -6.3049688    4146.2716            8 
  843000   0.97675276   -6.3058054    4128.7694            9 
  844000   0.98750991     -6.32099    4139.4815            9 
  845000   0.95942699   -6.3101311     4136.819            6 
  846000    1.0011845   -6.3561738    4120.7033           13 
  847000    0.9939338   -6.3077218    4126.9434            5 
  848000   0.99907373   -6.2954591    4141.9925           10 
  849000   0.97163687   -6.3319611    4131.4703            9 
  850000   0.99214991   -6.3017095    4138.1132            7 
  851000     0.971065   -6.2796505    4147.6295           12 
  852000   0.97367221   -6.2905242    4133.5866            6 
  853000   0.97147423   -6.3243373    4128.4088            7 
  854000   0.99665773    -6.316739    4147.8348            6 
  855000   0.95710281   -6.3244771    4132.0585            6 
  856000   0.97888056   -6.2972156    4133.3996            6 
  857000   0.98678177    -6.293244    4142.8188            3 
  858000   0.97720668   -6.3164124    4145.8813           12 
  859000   0.97074961   -6.2792495    4143.2428            9 
  860000    0.9688333   -6.3019118      4138.54            5 
  861000   0.99983352   -6.3085344    4121.6332            8 
  862000     1.001187     -6.31846    4129.0032            9 
  863000   0.98862916   -6.3069473    4132.9939            5 
  864000   0.97333639   -6.2904916    4162.5573            8 
  865000   0.98121968   -6.3002398    4132.9225            6 
  866000   0.97321894   -6.3329786    4115.6705            9 
  867000   0.95457389    -6.311163    4135.5874            5 
  868000     0.983338   -6.3282608    4127.3358           10 
  869000    0.9854955   -6.3131723    4119.9913            9 
  870000   0.96046237   -6.3346664    4122.7666            6 
  871000   0.98690335   -6.3218284    4120.1435            3 
  872000    0.9981163   -6.2900081    4140.4968            9 
  873000   0.96260886   -6.3072238    4128.4162           10 
  874000   0.96809771   -6.2981639    4136.1809            6 
  875000   0.97252422   -6.2678826    4149.5045            4 
  876000   0.99470134   -6.3126524     4129.055            7 
  877000    0.9947442   -6.3126137    4132.1991            8 
  878000   0.99978398   -6.2987081    4128.9019            7 
  879000   0.98770237   -6.2895197    4142.4016            7 
  880000   0.95520894   -6.3248956    4132.1058            4 
  881000   0.97209474   -6.3371352    4126.9658            9 
  882000    1.0021059   -6.2865254    4134.6338           15 
  883000   0.99695643   -6.3197745    4141.3869            6 
  884000   0.96730978   -6.3503818    4124.4966            6 
  885000   0.98300266   -6.3495569    4127.1622           10 
  886000   0.97737858   -6.3120874     4132.028            6 
  887000   0.96937136   -6.2998803     4140.488            6 
  888000   0.97335385   -6.2993414    4144.8011            9 
  889000   0.97997529   -6.3254527    4131.8899            6 
  890000   0.98188249   -6.3015044    4128.4982            6 
  891000    1.0013542   -6.3266736    4136.2478            4 
  892000   0.97635698   -6.3106105    4115.4441           20 
  893000   0.97637756   -6.2941598    4149.8525            5 
  894000   0.97692542   -6.2978025     4148.723            6 
  895000   0.98649474   -6.3211417    4145.1641           12 
  896000   0.95586078   -6.2823018    4148.8735            4 
  897000   0.97067937   -6.2899189    4133.4092           17 
  898000   0.96872045   -6.2788395    4155.4901            5 
  899000    1.0070618    -6.327531    4127.4916           16 
  900000   0.98619271   -6.3493821    4116.4818            9 
  901000   0.97566877   -6.2920305    4136.2077            7 
  902000   0.97292218   -6.2950697     4134.796            7 
  903000   0.95007031    -6.328555    4135.2509            8 
  904000   0.97351203   -6.2770099    4137.9959           10 
  905000   0.97086928   -6.2814669    4165.9662            5 
  906000   0.99188995   -6.2709639    4134.2729            4 
  907000   0.99407512   -6.2854513    4144.1351           17 
  908000   0.96015475   -6.3004022    4139.9063            8 
  909000   0.97831141   -6.3109163    4140.8312            6 
  910000   0.99221282    -6.313082    4149.6174            6 
  911000   0.96808649   -6.3205208    4130.0749            4 
  912000    0.9941716   -6.2974142    4134.7535            8 
  913000   0.97600441   -6.3109033    4140.1001            7 
  914000   0.98546364   -6.3390842    4150.7154           10 
  915000   0.94081818   -6.2911187    4133.3151            4 
  916000   0.97509329   -6.3307556    4119.8212            4 
  917000   0.98438721   -6.3028514     4138.146            6 
  918000   0.99746746   -6.3254784    4130.3775           12 
  919000   0.98341153   -6.2975653     4140.682            7 
  920000     0.951581   -6.3115836    4131.4026            5 
  921000   0.99881944   -6.3162617    4140.1713           10 
  922000   0.98815595   -6.3106263     4133.593            5 
  923000   0.97910141   -6.3140634    4115.8614           11 
  924000   0.98221407   -6.3296832    4132.1711            3 
  925000     0.988135   -6.3263329    4152.9076            8 
  926000   0.97110221   -6.3176538    4148.7895            4 
  927000   0.96844764   -6.3146206    4114.4332            6 
  928000   0.98238558   -6.3299058    4135.1208           10 
  929000   0.95017987   -6.2939224    4138.9368            6 
  930000   0.97827317   -6.3094804    4136.5477           17 
  931000    1.0010708   -6.2849243     4133.624            6 
  932000   0.97828239   -6.3052592    4136.0746            6 
  933000   0.97168543   -6.3402184    4129.8618            4 
  934000   0.96547876   -6.3451033    4119.1521            7 
  935000     1.005634   -6.3468962    4135.6678            7 
  936000   0.97466353   -6.3415113    4127.8688            5 
  937000   0.98297256   -6.3012089    4117.4375            7 
  938000   0.98512669   -6.2931889    4139.5125            7 
  939000   0.97834843   -6.2932155    4133.9933            8 
  940000   0.98302783   -6.3170839    4130.1542            6 
  941000   0.97196111   -6.3043121    4140.0343            7 
  942000   0.96428726   -6.3494573    4137.9281            5 
  943000   0.97656813   -6.2739979    4139.1013           11 
  944000    0.9709776   -6.3136593    4136.7335            9 
  945000   0.97041095   -6.2808162    4136.3366           13 
  946000   0.97672519    -6.335483    4120.2045            9 
  947000   0.99177865    -6.322133    4143.2422           11 
  948000   0.98092285   -6.3058959     4134.035            4 
  949000    1.0063522   -6.2972456     4130.098            5 
  950000   0.97317616   -6.2922543     4147.404            4 
  951000    0.9830355     -6.30729    4142.5372            9 
  952000   0.99654764   -6.3129645     4130.165            8 
  953000   0.98714295   -6.3396342    4137.6825           15 
  954000   0.96626883   -6.2857748    4142.4796            7 
  955000   0.96728552   -6.2979637    4134.1543            8 
  956000   0.99261973   -6.2926545    4142.4985            8 
  957000   0.97715364   -6.2857211    4150.1645            5 
  958000    0.9872187   -6.3269757    4132.7946           10 
  959000    0.9801125   -6.3283524    4140.0215            3 
  960000   0.97652493   -6.3251237    4131.8654            8 
  961000   0.97997268   -6.3028588    4133.3144            5 
  962000   0.96978165   -6.3213473    4142.2538            6 
  963000   0.96868082   -6.3437704    4132.5506           16 
  964000   0.99037754   -6.3172911    4142.2826            6 
  965000   0.97202876    -6.317232    4132.1988            5 
  966000   0.98301055   -6.3210272    4129.7631            5 
  967000   0.99678331   -6.3110197    4127.1911           20 
  968000    1.0018616   -6.2996754    4145.8241            3 
  969000   0.96566703   -6.3088925     4127.083            3 
  970000   0.97838879   -6.2771713    4143.5956           10 
  971000   0.98100391   -6.3184083    4129.1689            7 
  972000   0.97004271    -6.271448    4144.4878            4 
  973000   0.97601997   -6.2637288    4152.3791            8 
  974000   0.99477783   -6.2947701    4135.9993            7 
  975000    1.0034871   -6.2722084    4144.8542            5 
  976000   0.97247272     -6.32105    4141.4875            6 
  977000   0.95627865   -6.3148818    4122.4593           18 
  978000   0.97842327   -6.3064713    4153.9985            9 
  979000   0.98003741   -6.3045731    4138.3175            6 
  980000   0.97570738   -6.3499492    4136.2566            8 
  981000   0.97760995   -6.2947862    4138.9563            9 
  982000   0.98384955   -6.2468941    4152.2121           15 
  983000   0.98124739   -6.3021176    4142.2391            4 
  984000   0.97211204   -6.2878748    4150.5733            7 
  985000    0.9711821   -6.3142918    4147.9126            8 
  986000   0.98601424   -6.3002383    4137.7063            4 
  987000   0.96153742   -6.3214931    4121.9256            7 
  988000    1.0000369    -6.313565    4135.8352            5 
  989000   0.98639742   -6.3189676     4133.189            5 
  990000   0.99483318   -6.2983004    4129.7605            5 
  991000   0.97287183   -6.2981684     4137.542            5 
  992000   0.95732273   -6.3136704    4145.2484            5 
  993000   0.99368638   -6.3021424    4146.6054            5 
  994000   0.96901492   -6.3150681    4151.3359            4 
  995000   0.97972842   -6.3079287    4138.9085           12 
  996000   0.95992839   -6.2903964    4148.7823            2 
  997000   0.96697413   -6.3317992    4123.8083            5 
  998000   0.99109285   -6.2836377    4126.1538            5 
  999000   0.97522671   -6.3061238    4135.2098           10 
 1000000   0.97529869   -6.2938333    4154.3943            5 
 1001000   0.98551873   -6.2967202     4129.736            5 
 1002000   0.97934588    -6.299642    4131.9061            7 
 1003000   0.97205371   -6.3330356    4146.8871            6 
 1004000   0.96739154   -6.3150976      4133.28            9 
Loop time of 2075.11 on 48 procs for 1000000 steps with 4000 atoms

Performance: 83272.894 tau/day, 481.903 timesteps/s
99.4% CPU use with 48 MPI tasks x no OpenMP threads

MPI task timing breakdown:
Section |  min time  |  avg time  |  max time  |%varavg| %total
---------------------------------------------------------------
Pair    | 123.35     | 133.86     | 144.95     |  48.9 |  6.45
Neigh   | 14.612     | 14.79      | 15.266     |   2.8 |  0.71
Comm    | 113.26     | 122.75     | 132.24     |  48.9 |  5.92
Output  | 1.2362     | 1.2377     | 1.2543     |   0.2 |  0.06
Modify  | 1770.1     | 1782.6     | 1792       |  11.8 | 85.90
Other   |            | 19.9       |            |       |  0.96

Nlocal:        83.3333 ave          91 max          75 min
Histogram: 1 1 2 12 6 7 11 4 1 3
Nghost:        1605.75 ave        1627 max        1585 min
Histogram: 4 4 4 4 4 9 10 5 3 1
Neighs:        9220.88 ave       10011 max        8363 min
Histogram: 2 1 3 5 15 6 4 8 1 3
FullNghs:      18440.0 ave       20220 max       16565 min
Histogram: 2 0 3 10 10 7 7 5 1 3

Total # of neighbors = 885122
Ave neighs/atom = 221.28050
Neighbor list builds = 59128
Dangerous builds = 0

#clear
#
#next RN
#
#jump SELF
Total wall time: 0:34:36
