
units lj                  # Use reduced LJ style units
atom_style atomic         # Uncharged point particles
atom_modify map hash      # Needed for indexing of clusters etc
                          # Used to be able to find where atoms are in relation to each other.

lattice fcc 1.0 spacing 1 1 1
Lattice spacing in x,y,z = 1.5874011 1.5874011 1.5874011
region box block 0 10 0 10 0 10 units lattice
create_box 2 box
Created orthogonal box = (0.0000000 0.0000000 0.0000000) to (15.874011 15.874011 15.874011)
  3 by 4 by 4 MPI processor grid
create_atoms 1 box
Created 4000 atoms
  using lattice units in orthogonal box = (0.0000000 0.0000000 0.0000000) to (15.874011 15.874011 15.874011)
  create_atoms CPU = 0.003 seconds
set type 1 type/fraction 2 0.0 78393
Setting atom values ...
  0 settings made for type/fraction
mass 1 1.0
mass 2 1.0
pair_style lj/cut  3.5
pair_modify tail  yes
pair_coeff 1  1  1.0  1.0   # Intearaction between 1 and 1 set with epsilon = 1 and sigma = 1
pair_coeff 1  2  1.5  0.8
pair_coeff 2  2  0.5  0.88

write_data data.0
System init for write_data ...
Neighbor list info ...
  update every 1 steps, delay 10 steps, check yes
  max neighbors/atom: 2000, page size: 100000
  master list distance cutoff = 3.8
  ghost atom cutoff = 3.8
  binsize = 1.9, bins = 9 9 9
  1 neighbor lists, perpetual/occasional/extra = 1 0 0
  (1) pair lj/cut, perpetual
      attributes: half, newton on
      pair build: half/bin/atomonly/newton
      stencil: half/bin/3d
      bin: standard
WARNING: Not all mixed pair coeffs generated from mixing. Use write_data with 'pair ij' option to store all pair coeffs. (../write_data.cpp:312)


#############################
#   M E L T   S Y S T E M   #
#############################

velocity all create 2.4 6583654 mom yes dist gaussian # Assign velocities
                                                    # Temperature 2.4, random number seed, zero linear momentum
                                                                                # Gaussian distribution

timestep 0.002   # simulation timestep
thermo 1000       # output thermodynamic data every 1000 steps bf 100

# Define a fix  in this case with index 1 applied to all
# particles in the simulation. This fix is for simulations
# in the anisotropic NPT ensemble. Note that we use the MTK
# correction.
fix 1 all npt temp 2.4 2.4 0.1 iso 5.68 5.68 0.5 mtk yes tchain 5 pchain 5 # Use NPT ensemble
                                                                         # Set temperature and pressure and damping
                                                                         # Numbers of thermostats in chain and in barostat
run 10000          # run for 10000 steps
Per MPI rank memory allocation (min/avg/max) = 3.642 | 3.644 | 3.648 Mbytes
Step Temp E_pair E_mol TotEng Press Volume 
       0          2.4   -8.3859253            0   -4.7868253   -2.2405722         4000 
    1000    2.3598253   -4.4579732            0  -0.91912021    5.7048558     5164.517 
    2000     2.383198   -4.3267451            0  -0.75284184    5.6269769    5254.7565 
    3000    2.3959107   -4.3928818            0  -0.79991422     5.588546    5225.7026 
    4000    2.3503695   -4.3411931            0  -0.81652021    5.7615114    5222.8281 
    5000    2.4078932   -4.3773591            0  -0.76642224     5.842355    5206.2315 
    6000    2.3685535   -4.3425818            0  -0.79063978    5.8509925    5210.9665 
    7000    2.4291595   -4.3522661            0   -0.7094378    5.9515757    5198.0937 
    8000    2.3617408   -4.3121771            0   -0.7704516    5.6392411    5264.1378 
    9000    2.4234401   -4.2878093            0  -0.65355804    5.6601748    5289.4475 
   10000    2.4312157    -4.405655            0  -0.75974307    5.6958754     5201.985 
Loop time of 2.17272 on 48 procs for 10000 steps with 4000 atoms

Performance: 795316.388 tau/day, 4602.525 timesteps/s
99.4% CPU use with 48 MPI tasks x no OpenMP threads

MPI task timing breakdown:
Section |  min time  |  avg time  |  max time  |%varavg| %total
---------------------------------------------------------------
Pair    | 0.82792    | 0.89809    | 0.95533    |   2.7 | 41.33
Neigh   | 0.16659    | 0.17077    | 0.17966    |   0.7 |  7.86
Comm    | 0.65109    | 0.71444    | 0.78528    |   3.5 | 32.88
Output  | 0.00024266 | 0.00024805 | 0.00031407 |   0.0 |  0.01
Modify  | 0.35121    | 0.37508    | 0.40669    |   2.2 | 17.26
Other   |            | 0.01409    |            |       |  0.65

Nlocal:        83.3333 ave          93 max          75 min
Histogram: 2 1 8 9 4 11 7 3 2 1
Nghost:        1380.21 ave        1407 max        1356 min
Histogram: 2 2 4 10 9 5 10 4 1 1
Neighs:        7319.10 ave        8317 max        6342 min
Histogram: 1 4 2 10 8 9 4 8 0 2

Total # of neighbors = 351317
Ave neighs/atom = 87.829250
Neighbor list builds = 902
Dangerous builds = 204

# Equilibrate just above the melting temperature to avoid step fn in T

fix 1 all npt temp 1.25 1.25 0.1 iso 5.68 5.68 0.5 mtk yes tchain 5 pchain 5
run 2000
Per MPI rank memory allocation (min/avg/max) = 3.642 | 3.644 | 3.648 Mbytes
Step Temp E_pair E_mol TotEng Press Volume 
   10000    2.4312157    -4.405655            0  -0.75974307    5.6958754     5201.985 
   11000     1.276113   -5.8036341            0   -3.8899432    5.7854896    4352.1755 
   12000    1.2485076   -5.8329942            0    -3.960701    5.6011079    4351.8865 
Loop time of 0.499803 on 48 procs for 2000 steps with 4000 atoms

Performance: 691472.424 tau/day, 4001.577 timesteps/s
99.4% CPU use with 48 MPI tasks x no OpenMP threads

MPI task timing breakdown:
Section |  min time  |  avg time  |  max time  |%varavg| %total
---------------------------------------------------------------
Pair    | 0.19233    | 0.20524    | 0.24286    |   1.8 | 41.06
Neigh   | 0.030358   | 0.031715   | 0.036323   |   0.6 |  6.35
Comm    | 0.13332    | 0.16473    | 0.20496    |   3.4 | 32.96
Output  | 4.9176e-05 | 5.0878e-05 | 6.2696e-05 |   0.0 |  0.01
Modify  | 0.059937   | 0.093735   | 0.11119    |   3.8 | 18.75
Other   |            | 0.004331   |            |       |  0.87

Nlocal:        83.3333 ave          90 max          76 min
Histogram: 3 0 6 4 4 12 6 7 5 1
Nghost:        1557.19 ave        1583 max        1542 min
Histogram: 4 6 7 13 8 5 1 2 1 1
Neighs:        8759.38 ave        9529 max        7767 min
Histogram: 2 1 4 4 7 7 7 8 7 1

Total # of neighbors = 420450
Ave neighs/atom = 105.11250
Neighbor list builds = 143
Dangerous builds = 11

#############################
# L I N E A R  Q U E N C H  #
#############################

# Define solid atoms. This closely follows ten Wolde  Ruiz-Montero and Frenkel  Faraday Discuss  1996  104  93-110
# Compute components of the per-atom q6 vector
compute q6 all orientorder/atom degrees 1 6 components 6 nnn NULL cutoff 1.3 # compute the Q6 parameter.
                                                                             # Use all neighbours within 1.3 unit cell.

# get number of connections
compute coord_number all coord/atom orientorder q6 0.5

# An atom is solid if it has 8 or more connections (of a possible 14)
variable is_solid atom c_coord_number>=8
group solid dynamic all var is_solid    # Must be dynamic to update
dynamic group solid defined

# do clustering
compute cluster solid cluster/atom 1.3 # Create a cluster where all atoms within are solid and max 1.3 units from another member

# define chunks one chunk per cluster
compute clus_chunks solid chunk/atom c_cluster nchunk every compress yes  # Says which atoms are in which chunk

# count the size of each chunk
compute size_chunks solid property/chunk clus_chunks count


# Find the maximum entry in the vector of chunk sizes
variable max_n equal max(c_size_chunks)


# Thermo style which includes this variable
# thermo_style custom step temp pe vol v_max_n

thermo ${N}  # Print the thermo information every 100 steps
thermo 1000  

# Reset the npt fix at a lower temperature (below freezing)
fix 1  all npt temp  ${temp} ${temp}  0.1  iso  5.68  5.68  0.5  mtk yes tchain  5  pchain  5
fix 1  all npt temp  0.45 ${temp}  0.1  iso  5.68  5.68  0.5  mtk yes tchain  5  pchain  5
fix 1  all npt temp  0.45 0.45  0.1  iso  5.68  5.68  0.5  mtk yes tchain  5  pchain  5

dump dmp2 all dcd ${N} traj.dcd
dump dmp2 all dcd 1000 traj.dcd


compute msd all msd com yes
variable twopoint equal c_msd[4]/6/(step*dt+1.0e-6)
fix 9 all vector 10 c_msd[4]
variable fit equal slope(f_9)/6/(10*dt)
thermo_style custom step temp pe c_msd[4] v_twopoint v_fit v_max_n

fix 1 all npt temp 1.25 ${temp} 0.1 iso 5.68 5.68 0.5 mtk yes tchain 5 pchain 5
fix 1 all npt temp 1.25 0.45 0.1 iso 5.68 5.68 0.5 mtk yes tchain 5 pchain 5
run 5000000 # 5000000  # Run for this many steps
Neighbor list info ...
  update every 1 steps, delay 10 steps, check yes
  max neighbors/atom: 2000, page size: 100000
  master list distance cutoff = 3.8
  ghost atom cutoff = 3.8
  binsize = 1.9, bins = 9 9 9
  4 neighbor lists, perpetual/occasional/extra = 1 3 0
  (1) pair lj/cut, perpetual
      attributes: half, newton on
      pair build: half/bin/atomonly/newton
      stencil: half/bin/3d
      bin: standard
  (2) compute orientorder/atom, occasional
      attributes: full, newton on
      pair build: full/bin/atomonly
      stencil: full/bin/3d
      bin: standard
  (3) compute coord/atom, occasional
      attributes: full, newton on
      pair build: full/bin/atomonly
      stencil: full/bin/3d
      bin: standard
  (4) compute cluster/atom, occasional
      attributes: full, newton on
      pair build: full/bin/atomonly
      stencil: full/bin/3d
      bin: standard
Per MPI rank memory allocation (min/avg/max) = 9.728 | 9.732 | 9.738 Mbytes
Step Temp PotEng c_msd[4] v_twopoint v_fit v_max_n 
   12000    1.2485076   -5.8329942 1.0430713e-30 7.2435506e-33 8.3333333e+20            3 
   13000    1.2120553    -5.860579   0.56179658   0.00360126  0.046290107            1 
   14000    1.2511864   -5.8310535    1.1289279 0.0067198089  0.046186961            2 
   15000    1.2400031   -5.8662576    1.6877038 0.0093761317  0.046425793            1 
   16000     1.236569   -5.8277779    2.3047158  0.012003728  0.047416066            2 
   17000     1.239125   -5.8475523    2.8802099  0.014118676  0.047814688            4 
   18000    1.2383404   -5.8821371    3.4449978  0.015949063  0.048125761            4 
   19000     1.259822   -5.8274426    4.0240657   0.01764941  0.048087835            2 
   20000    1.2831633   -5.8675061    4.5244453  0.018851855  0.047775642            5 
   21000    1.2570319   -5.8633013    5.0043496   0.01985853  0.047091645            4 
   22000    1.2410939   -5.8599273    5.5670949   0.02108748  0.046663544            3 
   23000     1.248903   -5.8736673    6.0791923  0.022026059  0.046306019            2 
   24000    1.2545794   -5.8569494    6.6334277  0.023032735  0.046036571            6 
   25000    1.2278167   -5.8477689    7.2223202    0.0240744  0.045947866            3 
   26000    1.2407516   -5.8382316    7.8201923  0.025064718  0.046000325            4 
   27000    1.2334141    -5.838862    8.4255336  0.026004733  0.046123053            4 
   28000    1.2526146   -5.8586157    8.8987858  0.026484481  0.046195879            2 
   29000    1.2420691   -5.8555052    9.4797948  0.027240789  0.046223833            3 
   30000    1.2433489   -5.8494639    9.9453379  0.027625938  0.046150064            4 
   31000    1.2271816   -5.8286664    10.607897  0.028515852   0.04610304            2 
   32000    1.2523881   -5.8153701    11.099714  0.028905504  0.046136265            2 
   33000    1.2384837   -5.8455065    11.573739  0.029226613  0.046063848            3 
   34000     1.243777   -5.8372839    12.126022  0.029720642  0.045931044            6 
   35000    1.2353183   -5.8599424    12.731108  0.030312161  0.045902242            3 
   36000    1.2240148   -5.8404324    13.372432  0.030954704  0.045974997            4 
   37000    1.2453536   -5.8387798     13.91473  0.031339482  0.046010429            4 
   38000    1.2370061   -5.8364264    14.528835   0.03186148  0.046055507            6 
   39000    1.2555016   -5.8435474    15.004646   0.03206121   0.04609852            3 
   40000    1.2283159    -5.837551    15.678415  0.032663365    0.0461317            3 
   41000    1.2769237   -5.8538303    16.077956  0.032678773  0.046163768            2 
   42000    1.2571156   -5.8470076    16.809293  0.033351772  0.046218492            2 
   43000    1.2301784   -5.9006696    17.436028  0.033790751  0.046305603            3 
   44000    1.2483863   -5.8479112    18.003038  0.034096662  0.046369339            3 
   45000    1.2490392   -5.8490883    18.616957  0.034475846  0.046454212            4 
   46000    1.2386527    -5.844658    19.147032  0.034686651  0.046532059            8 
   47000    1.2734816   -5.8445447     19.71848  0.034961843  0.046575771            1 
   48000    1.2566408   -5.8345396    20.297763  0.035239171   0.04663423            5 
   49000    1.2461329   -5.8379143    20.761953  0.035309444  0.046659457            6 
   50000    1.2561528   -5.8439739    21.248585  0.035414308   0.04666515            2 
   51000    1.2360368   -5.8555238    21.936249  0.035843545  0.046685748           11 
   52000    1.2386118   -5.8525612    22.492991  0.036046459  0.046738907            3 
   53000    1.2357303   -5.8340022    23.226008  0.036518879  0.046791249            5 
   54000    1.2149507    -5.821773    23.801335  0.036730455  0.046840001            3 
   55000    1.2298597   -5.8493341     24.45059  0.037046349  0.046914094            2 
   56000    1.2341682   -5.8476484    25.056118   0.03728589  0.046999718            4 
   57000    1.2735653   -5.8248228    25.513486  0.037300418  0.047057427            2 
   58000    1.2261569   -5.8542703    26.102794  0.037504014  0.047094283            4 
   59000    1.2501382   -5.8569206    26.624671  0.037605467  0.047122444            4 
   60000    1.2297281   -5.8446639    27.171826  0.037738646  0.047148158            2 
   61000    1.2583076   -5.8411459    27.437043  0.037482298  0.047131295            2 
   62000    1.2404133   -5.8414869    28.081916   0.03774451  0.047113828            3 
   63000    1.2485447   -5.8763338    28.551029  0.037765911  0.047090102            3 
   64000    1.2361371   -5.8367531    29.093145    0.0378817  0.047052679            5 
   65000    1.2349373   -5.8810229    29.808162  0.038215592  0.047040628            2 
   66000    1.2635503   -5.8510054    30.355369  0.038327485  0.047036685            2 
   67000    1.2711744   -5.8210025    30.852628  0.038373916  0.047034462            4 
   68000    1.2368312   -5.8738346     31.11957  0.038136728  0.047002437            1 
   69000    1.2420492   -5.8597773    31.743225  0.038337228  0.046951637            3 
   70000    1.2520597   -5.8504618    32.210941  0.038346358  0.046895556            3 
   71000    1.2366757   -5.8459781    32.707737  0.038389363  0.046836539            4 
   72000    1.2342702   -5.8486577    33.533595  0.038812031  0.046801632            2 
   73000    1.2693547   -5.8827041     33.97983   0.03878976   0.04677374            4 
   74000    1.2448273   -5.8974407    34.429071  0.038771476  0.046733436            3 
   75000    1.2378863   -5.8628349    34.864183  0.038737981  0.046680517            4 
   76000    1.2297255   -5.8996489    35.362933  0.038775145  0.046623975            2 
   77000    1.2498835   -5.8836508    36.026764  0.038990004  0.046574374            3 
   78000    1.2558435   -5.8504742    36.494016  0.038989333  0.046531122            3 
   79000    1.2378197   -5.8575755    36.851858  0.038873268  0.046475526            4 
   80000     1.270447   -5.8487902    37.367825  0.038924818  0.046414152            6 
   81000    1.2399077   -5.8780619    37.972565  0.039066424  0.046355303            2 
   82000    1.2580672   -5.8333546    38.556012  0.039182939  0.046300205            2 
   83000    1.2308435   -5.8664452    39.043431  0.039200231  0.046258702            1 
   84000    1.2471989    -5.845939    39.643887  0.039329252  0.046219634            4 
   85000    1.2028607   -5.8635517    40.231068  0.039442223  0.046178661            5 
   86000    1.2177639   -5.8824034    40.684987  0.039423437  0.046135969            3 
   87000    1.2486989   -5.8844415    41.114472  0.039381678  0.046096041            2 
   88000    1.2593212   -5.8189617    41.643904  0.039435515  0.046050316            5 
   89000    1.2378139   -5.8563402    41.984078  0.039310934  0.046003515            2 
   90000    1.2460056   -5.8683336    42.801506  0.039631024  0.045949131            5 
   91000    1.2206034   -5.8419135    43.224427  0.039582808  0.045904957            4 
   92000    1.2093788   -5.8570742    43.765126  0.039642324  0.045868747            4 
   93000    1.2498291   -5.8831102    44.536646  0.039907389  0.045836142            2 
   94000    1.2216546   -5.8569905    44.811941  0.039726897  0.045802027            2 
   95000    1.2381063    -5.867081    45.280215  0.039719487  0.045756532            4 
   96000    1.2485205   -5.8757495    45.751815  0.039715117  0.045712729            3 
   97000    1.2397762   -5.8523196    46.558493  0.039998705  0.045677331            3 
   98000    1.2506795   -5.8523882    46.862972  0.039849466  0.045644966            3 
   99000      1.21695   -5.8443498    47.499858  0.039983045    0.0456081            3 
  100000    1.2149573    -5.911538    47.981412   0.03998451  0.045571006            3 
  101000    1.2035627   -5.8531588    48.662868  0.040150881  0.045540884            4 
  102000    1.2198096   -5.8537533    49.124963  0.040134774  0.045507809            2 
  103000    1.2301127   -5.8648376    49.396113  0.039964493  0.045478692            3 
  104000    1.2434211   -5.8460685    50.215401  0.040236699  0.045451651            3 
  105000    1.2420653   -5.8604104    50.773701  0.040296588  0.045429484            8 
  106000    1.2328617   -5.8437849    51.465901  0.040460614  0.045409512            2 
  107000    1.2570018   -5.8368235    51.957841  0.040465608  0.045400245            2 
  108000    1.2415927   -5.8798329    52.396349  0.040429282  0.045387458            4 
  109000    1.2316803   -5.9014973     52.84752  0.040403302  0.045371971            2 
  110000    1.2060905   -5.8600101    53.606513  0.040610995  0.045354771            4 
  111000    1.2278538   -5.8742069    54.028481  0.040561923  0.045336645            2 
  112000    1.2591746   -5.9191491    54.950727  0.040885957  0.045326559            2 
  113000    1.2524875   -5.8842732    55.321968  0.040797912  0.045325653            2 
  114000    1.2485107   -5.8976645    56.022395  0.040952043  0.045330136            6 
  115000    1.2132233   -5.9134495    56.486687  0.040932382  0.045330342            3 
  116000    1.2601471   -5.8727615    56.895693  0.040873343  0.045325874            4 
  117000    1.2515877   -5.8513952    57.525273  0.040972417  0.045323536            6 
  118000     1.234489   -5.8039506    58.425802  0.041261159  0.045327062            4 
  119000     1.234436   -5.8607205     58.83433  0.041200511  0.045337278            5 
  120000    1.2297975   -5.8850502    59.358239  0.041220999  0.045342959            4 
  121000    1.2495894   -5.8173393    60.067835  0.041369032   0.04534976            3 
  122000     1.263925   -5.8800234    60.296262  0.041185971  0.045354941            3 
  123000    1.1958693   -5.8762826    60.587166  0.041048215  0.045354252            4 
  124000    1.2163987   -5.8461187    61.396383   0.04126101  0.045353189            3 
  125000    1.2365409    -5.853687    61.795031  0.041196687  0.045350191            3 
  126000    1.2310333   -5.8514139    62.070348  0.041051817  0.045339225            3 
  127000    1.2364099   -5.8688386    62.467356  0.040989078  0.045329011            7 
  128000      1.21429      -5.8637    62.936748  0.040974445  0.045315008            6 
  129000    1.2287342   -5.8834372    63.616297  0.041095799  0.045302526            3 
  130000     1.207218   -5.8198691    64.391657  0.041276703  0.045294376            3 
  131000    1.2316073   -5.8792442    65.084711  0.041402488  0.045291278            3 
  132000     1.263589   -5.8747036    65.867687  0.041583136  0.045289411            3 
  133000    1.2487353   -5.8646479    65.949223  0.041321568  0.045286189            2 
  134000    1.2476385   -5.8883087    66.649844  0.041448908  0.045279728            6 
  135000     1.193394   -5.8876902    67.327906  0.041560436  0.045276188            4 
  136000    1.2010773   -5.8826069    68.354658  0.041883982  0.045283742            3 
  137000    1.2275796   -5.8849454    68.481441  0.041655377  0.045298384            3 
  138000    1.2236396   -5.8756264     69.44798  0.041937186  0.045311138            5 
  139000    1.2152598   -5.8766586    69.842293  0.041871878   0.04532742            7 
  140000    1.2428901   -5.8491324    70.645286  0.042050765  0.045344434            4 
  141000    1.2475402   -5.8663737    71.351248  0.042169768  0.045362063            4 
  142000    1.2130851   -5.8508954    71.507874  0.041964715  0.045375134           10 
  143000    1.2353242   -5.8742558    72.142369  0.042041008  0.045385662            1 
  144000    1.2311022   -5.8703624    72.768684  0.042111507  0.045399588           10 
  145000    1.2107111   -5.8762613    73.277239  0.042113355  0.045414246            3 
  146000    1.2160807    -5.893811    73.578956  0.041997121  0.045423661            3 
  147000     1.226711   -5.8669192    74.124691    0.0420208  0.045426933            3 
  148000    1.2535952   -5.8896594    74.373759  0.041877116  0.045427964            4 
  149000    1.2064207   -5.9123831    75.012586  0.041953348  0.045426105            3 
  150000    1.2484151   -5.8426575    75.736651  0.042075917  0.045422876            3 
  151000    1.2285412   -5.8937314    76.221436   0.04206481   0.04542161            6 
  152000    1.2579212   -5.8356392    76.491527  0.041936144  0.045421516            2 
  153000    1.2184324   -5.8461687     77.51564  0.042219847  0.045425934            3 
  154000    1.2207112   -5.8659065    77.986076  0.042200257  0.045428868            2 
  155000    1.2266947   -5.8675241    78.375539  0.042137386  0.045436056            5 
  156000    1.2210713   -5.8725178    79.139762  0.042275514  0.045445586            2 
  157000    1.2470089   -5.8463288    80.065256  0.042497482  0.045455261            2 
  158000     1.240552   -5.8666197    80.316175  0.042360852  0.045464884            3 
  159000    1.2328537   -5.9056851    80.594123  0.042240106  0.045469394            4 
  160000    1.2368607   -5.8867312    81.116789  0.042248327  0.045473133            4 
  161000    1.2377411   -5.8814255    81.871329  0.042376464  0.045474415            2 
  162000    1.2450251   -5.8973174    82.155451  0.042261035  0.045474687            6 
  163000    1.2161573   -5.8559449    82.735715  0.042298423  0.045470962            3 
  164000    1.2369848   -5.9149536    83.182507  0.042267534  0.045469479            5 
  165000    1.2325642   -5.8937342    83.665767  0.042255438  0.045466458            5 
  166000    1.2230121   -5.8953278    84.154683  0.042246327  0.045463556            2 
  167000    1.2455859   -5.8766929    84.824629  0.042327659  0.045462325            2 
  168000     1.218591   -5.9307489    85.132071   0.04222821  0.045458852            2 
  169000    1.2455033   -5.8388577    85.918732  0.042366238  0.045453502            3 
  170000    1.2503748   -5.8832354     86.34065  0.042323848  0.045451414            2 
  171000    1.2074798   -5.8736567    87.074194  0.042433817  0.045448717            2 
  172000    1.2256136   -5.8502506    87.148495  0.042223108  0.045444344           11 
  173000     1.208046   -5.8840493    87.749034   0.04226832  0.045438366            4 
  174000    1.2255477   -5.9064258    88.011175  0.042150946   0.04542665            3 
  175000       1.2271   -5.8711553    88.740912  0.042257577  0.045418441            6 
  176000    1.2282419   -5.9255236    88.994895  0.042137734  0.045409578            4 
  177000     1.246494   -5.8904483    89.790928  0.042274448  0.045401258            3 
  178000    1.2229282   -5.9156775    90.340938  0.042294447  0.045392137            5 
  179000    1.2400353   -5.8470868    90.755019   0.04225094  0.045383451            3 
  180000    1.2371698   -5.8653262    91.529126  0.042374595  0.045376581            3 
  181000    1.2154725   -5.8805019     91.75161  0.042242914  0.045367014            4 
  182000    1.2217705   -5.8881579    91.918746  0.042087338  0.045355496            6 
  183000    1.2301032   -5.8934877    92.849318   0.04228111  0.045343669            3 
  184000    1.2164273   -5.8700722    93.082232  0.042156808  0.045331035            3 
  185000    1.2121366   -5.9089874    93.638736  0.042179611   0.04531726            4 
  186000    1.2428905   -5.9220096    94.489928  0.042334197  0.045304811            5 
  187000     1.204776   -5.8846069    94.771202  0.042233156  0.045289318            3 
  188000    1.2434211    -5.905433    95.327099   0.04225492  0.045276747            6 
  189000    1.2158145   -5.8720104     95.97318  0.042316217  0.045267247            3 
  190000     1.234209   -5.8678425    96.688547  0.042407257  0.045258906            5 
  191000    1.2508134   -5.9186523    97.249624  0.042430028  0.045250563            5 
  192000    1.2220114   -5.8857449    98.085335   0.04257176   0.04524376            3 
  193000    1.2174578    -5.870029    98.967773  0.042732199  0.045242544            4 
  194000    1.2272161   -5.9003053    99.192154  0.042608313  0.045241773            4 
  195000    1.2308197   -5.8888024    99.508363  0.042524941  0.045238058            3 
  196000    1.2144299   -5.8333792    100.20339  0.042603482  0.045233445            3 
  197000    1.2067862   -5.8683304    100.96941  0.042711257  0.045229363            5 
  198000    1.2140933    -5.891678    101.33864  0.042650943  0.045225597            4 
  199000    1.2230416   -5.8875731    101.86607  0.042657482  0.045221974            2 
  200000    1.2096632   -5.9168743    102.32311  0.042634628  0.045217229            5 
  201000    1.1847662   -5.9083976    102.82094  0.042628912  0.045216895            2 
  202000    1.1907661   -5.8854701    103.58134  0.042731576  0.045215762            7 
  203000    1.2365609    -5.894346    104.56434  0.042924605  0.045216275            4 
  204000    1.2088928   -5.8906995    105.27584  0.043004839  0.045221465            3 
  205000    1.2358133    -5.936515    105.10962  0.042727487  0.045223927            2 
  206000    1.1983825   -5.9273096    106.10203  0.042921531   0.04522708            5 
  207000    1.2265995   -5.9064242    106.73385  0.042968537  0.045233477            5 
  208000    1.2149354   -5.9293591    107.51555   0.04307514  0.045239479           10 
  209000    1.2194275   -5.9230168     107.6766  0.042933255  0.045246272            8 
  210000    1.2136519   -5.9117942     108.6084  0.043098569  0.045250373            4 
  211000    1.2249129   -5.8787009    108.61701  0.042897711  0.045255296            4 
  212000    1.1750312   -5.8992076    109.07651  0.042875988  0.045258333            2 
  213000    1.2382084   -5.8655198    110.14979  0.043094595  0.045261211            8 
  214000    1.2300223   -5.8768488    110.15738  0.042896175  0.045265216            3 
  215000     1.207215   -5.8708326    111.12074  0.043070054  0.045266602            4 
  216000    1.2202094   -5.8959209    111.34414  0.042956843  0.045266659            2 
  217000    1.2438399   -5.8504077    112.03078  0.043022574  0.045264802            4 
  218000    1.2380658   -5.8864416    112.42881  0.042977374  0.045264431            4 
  219000    1.2344536   -5.8717336    112.61243     0.042851  0.045262122            2 
  220000    1.1991688   -5.8917401    113.33758  0.042930902  0.045259127            5 
  221000     1.220377   -5.8875965    114.02908   0.04299739  0.045257538            3 
  222000    1.2090446    -5.898515     114.1342  0.042843167  0.045255416            4 
  223000    1.2316275   -5.8419253    115.06753  0.042999823  0.045254104            4 
  224000    1.2213303   -5.8785188    115.66607  0.043030533  0.045254315            2 
  225000    1.2149075   -5.8410594    116.38545  0.043105721  0.045256262            3 
  226000     1.214126   -5.8972442    116.97267  0.043131516   0.04525796            5 
  227000    1.2217374    -5.900856    117.18875  0.043020833  0.045257643            3 
  228000    1.1993214    -5.907488    117.76392  0.043042367  0.045259383            3 
  229000    1.2367452   -5.9023673    118.42705  0.043095723  0.045259682            3 
  230000    1.1953866   -5.8840715    118.99243  0.043113199  0.045259114            2 
  231000    1.1819649   -5.8677366    119.36704  0.043061704  0.045260163            1 
  232000    1.2074215   -5.9181277    120.09787  0.043138603   0.04526288            2 
  233000    1.2249139   -5.8594203    120.78164  0.043198012  0.045266773            3 
  234000     1.200712   -5.8688992    121.26891  0.043186933   0.04526807            3 
  235000    1.2250303   -5.9182417    121.73933  0.043169975  0.045267967            4 
  236000    1.2310841   -5.9261621    121.97483   0.04307021  0.045267233            8 
  237000    1.2091013   -5.9125163    122.42548  0.043046935  0.045267834            3 
  238000    1.1791963   -5.8773283    123.27138  0.043162249  0.045267388            2 
  239000     1.220387   -5.9185585    123.62578  0.043105222  0.045266151            4 
  240000     1.221783   -5.9132233    123.96961  0.043045005  0.045264893            9 
  241000    1.1948666   -5.8838271    124.49173  0.043046932  0.045260697            2 
  242000    1.1813485   -5.8646495    124.70356  0.042941999  0.045254777            2 
  243000    1.2105577   -5.9237178    125.04435  0.042882152  0.045246954            2 
  244000    1.2387506   -5.8696182    125.79181  0.042961683  0.045237782            5 
  245000    1.2122102   -5.9114952    126.17233  0.042915758  0.045230144            3 
  246000    1.2209307   -5.8953459    126.16339  0.042738277  0.045221553            4 
  247000    1.2019761   -5.9021741    127.16972  0.042904764  0.045212907            3 
  248000    1.2037757   -5.8817111    127.64939  0.042892939  0.045204562            3 
  249000    1.1759451   -5.9363287    127.74719  0.042753409  0.045194808            2 
  250000      1.23645   -5.9087736    128.04158  0.042680526  0.045181926            3 
  251000     1.205414   -5.9178981    128.89077  0.042792419   0.04516892            4 
  252000    1.1810215   -5.8745021    129.66563  0.042878847  0.045157791            3 
  253000    1.2017062   -5.8715297    129.57225  0.042678607  0.045146192            4 
  254000    1.2021279   -5.8970375     130.1335  0.042694717  0.045133246            5 
  255000    1.2361841    -5.922522    130.31009  0.042584996  0.045120775            5 
  256000    1.2193959   -5.9268971     130.6171  0.042518588  0.045106369            3 
  257000    1.2161415   -5.9180374    131.10951  0.042512812  0.045090309           11 
  258000    1.1847412   -5.9060105    131.81142  0.042574747  0.045074486            4 
  259000    1.1848043   -5.9133121    132.54939  0.042647808  0.045059466            3 
  260000    1.1918491   -5.9588343    132.76713  0.042553566  0.045044202            5 
  261000    1.2597063    -5.874056    133.80426  0.042721668  0.045031935            4 
  262000    1.2088717   -5.9250927    134.29363  0.042714258  0.045021264            4 
  263000    1.2033916   -5.9323031    135.18556  0.042834461  0.045012519            2 
  264000     1.241535    -5.898425    135.76579  0.042855363  0.045005743            2 
  265000    1.1774995   -5.9147088    135.89219  0.042733392   0.04499599            6 
  266000    1.2160962   -5.9326195    136.26694  0.042690144  0.044986201            3 
  267000    1.2212088   -5.9105042    136.91322  0.042731968  0.044976564            2 
  268000    1.2352466   -5.9249009    137.57222  0.042777433  0.044966315            4 
  269000    1.1949937   -5.9095043    137.91711   0.04272525  0.044953596            4 
  270000    1.2204244   -5.8868611    138.79438  0.042837771  0.044942624            6 
  271000    1.2054263   -5.9258941    139.26869   0.04282555  0.044933251            3 
  272000    1.1886218   -5.9398281    139.22062  0.042653376  0.044922442            4 
  273000    1.2002785   -5.8901162    140.09073  0.042762737  0.044911387            3 
  274000    1.1961953    -5.896925    140.76024  0.042810292  0.044900783            3 
  275000    1.2061819   -5.8977384    141.18052  0.042781975  0.044890176            3 
  276000    1.2097163   -5.9219589    141.55054   0.04273869  0.044878895            4 
  277000    1.1875559   -5.9042324    142.19117  0.042777128   0.04486858            3 
  278000    1.1810624    -5.881796    142.95095  0.042851004  0.044858844            9 
  279000    1.1971901    -5.955677    143.05985  0.042729944  0.044849711            4 
  280000    1.2156899   -5.9435252    143.36483  0.042668104   0.04483753            4 
  281000    1.2171209   -5.8993308     144.0192   0.04271032  0.044825629            3 
  282000    1.1874599   -5.9227563    144.07445  0.042575192  0.044814232            3 
  283000    1.1908036   -5.8578333    144.98061  0.042691583  0.044801861            8 
  284000    1.2083611   -5.9033587    145.48259  0.042688553  0.044791238            4 
  285000    1.2009715   -5.9202294    145.61308  0.042576925  0.044780096            4 
  286000    1.1762125   -5.9184474    146.67447  0.042737316  0.044769851            5 
  287000    1.2251524   -5.9205581    147.15184  0.042727014  0.044758585            4 
  288000    1.2199144   -5.8992657     147.6587  0.042725319  0.044747887            4 
  289000    1.1870743   -5.8961017    147.88211    0.0426419   0.04473647            3 
  290000    1.2184369   -5.9021134    148.34496  0.042627861  0.044725392            3 
  291000    1.2142144   -5.9136002    149.02766  0.042676879  0.044713717            7 
  292000     1.216935   -5.8955982    149.35104  0.042623014  0.044699922            4 
  293000    1.1878474   -5.8917639    149.31639  0.042467688  0.044685082            7 
  294000    1.2183099   -5.9048783    149.52354  0.042381956  0.044668668            3 
  295000    1.1937802    -5.934887    149.82564  0.042323628  0.044651095            3 
  296000    1.1926365   -5.9439526    150.36829  0.042333416  0.044634554            3 
  297000    1.2140408   -5.9044403    151.61226  0.042539915  0.044619503            5 
  298000    1.2163441   -5.8859189    152.46113  0.042634544  0.044605433            2 
  299000    1.2010909   -5.9170896    152.68572  0.042554547  0.044591799            3 
  300000     1.220028   -5.9592269    152.69182  0.042414393  0.044576351            8 
  301000    1.1768285    -5.924535    153.33658  0.042451989  0.044562012            4 
  302000    1.2059957   -5.9359733    153.68648   0.04240797  0.044546457            1 
  303000    1.1909686   -5.9075976    154.57168  0.042511463  0.044532245            3 
  304000    1.2119229   -5.9137322    156.03116  0.042771699  0.044520497            3 
  305000     1.194371   -5.9561865    156.24956  0.042691136  0.044511131            5 
  306000    1.2151925   -5.9584984    156.94382  0.042740692  0.044502041            3 
  307000    1.2031883   -5.9399764     156.5125  0.042484392  0.044492144            5 
  308000     1.203791   -5.9313983    157.34509  0.042571724  0.044482704            5 
  309000     1.214874   -5.9067501    158.23714  0.042674525  0.044473037            3 
  310000    1.1959505   -5.9201899    158.61424  0.042638235  0.044464473            3 
  311000    1.1985314   -5.9429666    158.88811   0.04257452   0.04445399            8 
  312000    1.1969083   -5.9013673    159.97291  0.042727808  0.044444772            2 
  313000    1.2112885   -5.9071052    159.96431  0.042589006  0.044434586            4 
  314000    1.1946958   -5.9355408    161.00007  0.042728257  0.044425508            4 
  315000    1.2066832   -5.9439336    161.42651  0.042705427  0.044417061            3 
  316000    1.1841447   -5.9215572    161.70388  0.042643428  0.044408535            2 
  317000    1.1989729   -5.9098995    161.83554  0.042543518  0.044399082            4 
  318000     1.182151   -5.9347451    162.41009  0.042560295  0.044389679            8 
  319000    1.1876197   -5.9328288    163.00365  0.042581936  0.044380109            3 
  320000     1.193885   -5.9542829    163.94008  0.042692728  0.044370694            3 
  321000    1.2176605   -5.9421814    163.70462  0.042498604   0.04436037            6 
  322000    1.1929015   -5.9178333    164.91216  0.042679132   0.04435203            3 
  323000     1.193724   -5.9178629    164.75128   0.04250549    0.0443419            6 
  324000    1.2104286   -5.9202213    164.76137  0.042376896  0.044331656            2 
  325000    1.1954527   -5.9134641    165.63402  0.042470262   0.04432107            8 
  326000    1.1857624   -5.9510216    166.25218  0.042498001  0.044310193            2 
  327000    1.1709073    -5.944576    167.28211  0.042630507  0.044299669            4 
  328000    1.1921838   -5.8996557    167.04765  0.042440968  0.044289224            3 
  329000    1.2055721   -5.9396925    168.13648  0.042587762  0.044280074            3 
  330000    1.1947933   -5.9536504    167.53256  0.042306201   0.04426748            3 
  331000    1.1828834   -5.9006386    168.42511    0.0424031  0.044254823            4 
  332000    1.2395675   -5.9410473    168.81525  0.042373305  0.044242428            4 
  333000    1.1916778   -5.9162303    169.14924  0.042329639  0.044230166            5 
  334000    1.2138316   -5.9134054    169.99043  0.042412781   0.04421618            3 
  335000     1.206053   -5.9015131    170.36053  0.042378241  0.044201198            4 
  336000    1.1692555   -5.9279695    170.73156  0.042344136  0.044187084            2 
  337000    1.2149211   -5.9296426    170.72263  0.042216279  0.044171494            8 
  338000    1.2342774   -5.9908142    170.80707  0.042112197  0.044157236            6 
  339000    1.2338861   -5.9142657    171.70343  0.042208315  0.044142435            6 
  340000    1.1886617   -5.9279495      172.273  0.042223775  0.044127794            3 
  341000      1.21332   -5.9281821     172.4156  0.042134798  0.044113974            6 
  342000    1.2010226    -5.937787    173.36207   0.04224222  0.044100096            5 
  343000    1.2013088   -5.9163518    174.26549  0.042338554  0.044086437            2 
  344000    1.2128725   -5.9193376    174.80334   0.04234577  0.044073268            2 
  345000    1.2090348    -5.918567     174.7134  0.042201304  0.044061247            3 
  346000    1.1893866   -5.9296025    175.72251  0.042322376  0.044050163            2 
  347000    1.2033965   -5.9307917    176.22792  0.042321786  0.044037954            2 
  348000    1.2214722   -5.9676272    176.26641  0.042209389  0.044024419            3 
  349000    1.1758218   -5.9420199    177.52628  0.042389274  0.044012129            7 
  350000    1.1878507   -5.9230757    178.06233  0.042395792  0.043999905            4 
  351000    1.2154653   -5.9075014    178.49094  0.042376767  0.043989151            2 
  352000    1.1824775   -5.9212876    178.78419  0.042325803   0.04397752            4 
  353000    1.2071625   -5.9037314    179.05945   0.04227088  0.043966464            2 
  354000    1.1785872   -5.9744739    180.04654  0.042383838   0.04395524            3 
  355000    1.2052815    -5.901014     181.0015  0.042488615  0.043944503            4 
  356000     1.236597   -5.9411879     180.5219  0.042256999  0.043932811            6 
  357000     1.178988    -5.935402    181.29587  0.042319298  0.043921456            4 
  358000     1.206128    -5.938241    181.38804  0.042222541  0.043909424            3 
  359000    1.1712904   -5.9584715    182.26239  0.042307889  0.043897827            5 
  360000    1.1989359   -5.9325964    181.87506  0.042100708  0.043885462            3 
  361000    1.1740212   -5.9347726    182.47932  0.042123574  0.043873078            4 
  362000    1.2157092   -5.9793938    183.50911   0.04224427  0.043861353            4 
  363000    1.1726094   -5.9417234    183.32713  0.042086119  0.043848672            5 
  364000    1.1875465   -5.8998656    184.67947  0.042280099  0.043835845            2 
  365000    1.1838675   -5.8865129    183.72147  0.041945541  0.043821644            5 
  366000    1.1952283   -5.9264362    185.07067  0.042138132  0.043807379            3 
  367000    1.1811411    -5.945724    185.02007  0.042011822  0.043793108            4 
  368000    1.2046329   -5.9705457    185.19977  0.041938353  0.043778743            5 
  369000    1.1834327   -5.9253666     186.2731  0.042067097  0.043763693            4 
  370000    1.2042843   -5.9514866    186.34357  0.041969272  0.043748631            3 
  371000    1.2215248    -5.962877    186.35203  0.041858047  0.043734502            4 
  372000    1.1736092   -5.8904813    188.00918  0.042116751  0.043719812            5 
  373000    1.1750057   -5.9494544    187.84009  0.041966061  0.043704948            4 
  374000    1.1784739   -5.9098407    188.74609  0.042055724  0.043690816            5 
  375000    1.1999932   -5.9439911     188.4629  0.041880644  0.043675808            6 
  376000    1.2085129   -5.9572587    188.95399    0.0418781  0.043660264            3 
  377000    1.1896365   -5.9587535    188.95941  0.041768215  0.043644206            2 
  378000    1.1946471   -5.9789988    189.96069  0.041878458  0.043628448            5 
  379000    1.1936594   -5.9125861    191.05813  0.042009264  0.043613999            4 
  380000    1.1851579   -5.9211186    191.23007   0.04193642       0.0436            3 
  381000    1.1804548   -5.9581889    191.08131  0.041793811  0.043586334            4 
  382000    1.1915429    -5.917139    192.28607  0.041947223  0.043572726            3 
  383000    1.1776753   -5.9370742    192.67694  0.041922747  0.043559297            4 
  384000     1.124173   -5.8794036    194.02319  0.042105727  0.043546546            5 
  385000    1.1875141   -5.9319789     193.1561  0.041808679  0.043533286           10 
  386000    1.1991721   -5.9291622    193.98159  0.041878581  0.043519283            3 
  387000    1.1772551   -5.9269821      194.446   0.04187037  0.043505109            5 
  388000     1.194957   -5.9544561    195.46254  0.041980785  0.043491455            3 
  389000    1.1779388   -5.9532448    196.00994  0.041990132  0.043477854            5 
  390000    1.1988735   -5.8960941    196.21791  0.041926903  0.043464448            3 
  391000    1.1781856   -5.9599794    196.95884  0.041977588  0.043451443            3 
  392000    1.2082959   -5.9217436    197.44054  0.041972903  0.043438393            2 
  393000    1.1803365   -5.9069282     197.7413  0.041929876  0.043425783            2 
  394000    1.1849953   -5.9063838    198.08008   0.04189511  0.043412929            4 
  395000    1.1778254   -5.9515522      198.564   0.04189114  0.043399602            4 
  396000    1.1778386   -5.9494443     198.8402  0.041843477  0.043386289            2 
  397000    1.1780099   -5.9391195    200.08104   0.04199854  0.043373595            6 
  398000     1.160044   -5.9665062    199.35233  0.041740438  0.043361451            8 
  399000    1.1810611    -5.935256      200.614  0.041899331  0.043348891            1 
  400000    1.1899302   -5.9348841     200.7132   0.04181525  0.043336058            4 
  401000    1.2069243   -5.9472702    201.21731  0.041815734  0.043323125            2 
  402000    1.2136962   -5.9745987    201.91119  0.041855554  0.043310791            5 
  403000    1.2152514   -5.9555453    202.75838  0.041926877  0.043298059            2 
  404000    1.1713558   -5.9426557    202.99544  0.041871996  0.043284834            2 
  405000    1.1900847   -5.9603461    203.05403  0.041780664  0.043272253            6 
  406000    1.1609729   -5.9548291    203.15902  0.041699306   0.04325921            4 
  407000    1.1943892   -5.9595483     204.3416  0.041838984   0.04324693            3 
  408000    1.1851358   -5.9061232    205.31917  0.041936105  0.043234718            3 
  409000    1.1777388   -5.9381718    205.34145  0.041838111  0.043222745            5 
  410000    1.1631591   -5.9768812    205.49562  0.041767403  0.043211185            2 
  411000    1.1693205   -5.9759582    206.43654  0.041856557  0.043199227            3 
  412000    1.1618912   -5.9148958     206.4916  0.041766099  0.043187334            2 
  413000     1.196339   -5.9521006    206.94669  0.041756798  0.043175202            7 
  414000    1.1775282   -5.9390582    208.59317  0.041987354  0.043163663            4 
  415000    1.1825505   -5.9520905    207.82095  0.041731115  0.043153078            7 
  416000    1.1980088   -5.9763619    208.87571  0.041842088  0.043141984            4 
  417000    1.1969173   -5.9416152    208.62214  0.041691075  0.043129866            3 
  418000    1.1765709   -5.9423867    209.37731  0.041741888  0.043117178            3 
  419000    1.1726053   -5.9325055    209.56063  0.041678725  0.043103998            3 
  420000    1.1648134   -5.9379788    210.23868  0.041714024  0.043092581            2 
  421000    1.1925354   -5.9824884    210.26376  0.041619905  0.043080866            3 
  422000    1.2040413   -5.9526312    211.64592  0.041794217  0.043068385            3 
  423000    1.1580493   -6.0030761    211.91471  0.041748367  0.043056339            3 
  424000    1.1789122   -5.9398494    212.10856  0.041688003  0.043044919            6 
  425000    1.1610075   -5.9396663    212.98204  0.041761183  0.043034081            3 
  426000    1.1774674   -5.9567556    213.74486  0.041812374  0.043023488            2 
  427000    1.2078922   -5.9560458    213.88009  0.041740845  0.043012537            2 
  428000    1.2126512   -5.9590512    214.64031  0.041791338  0.043000762            3 
  429000    1.1889353   -5.9614972    214.09678   0.04158834  0.042988724            3 
  430000    1.1573329   -5.9424575    215.49117  0.041761854  0.042977561            5 
  431000     1.188389   -5.9721727    215.31136  0.041630193  0.042966737            2 
  432000    1.1776525   -5.9612604    216.98338  0.041856361  0.042955109            3 
  433000    1.2109878   -5.9361165    216.44424  0.041655936  0.042942545            6 
  434000     1.185022   -5.9687835    217.32375  0.041728831  0.042930186            7 
  435000    1.1976086   -5.9270944    217.57299   0.04168065  0.042917512            6 
  436000    1.1755519   -5.9631801    217.13771  0.041501855  0.042905555            5 
  437000    1.1948113   -5.9391443    218.04046  0.041579034  0.042893535            4 
  438000    1.1989758   -5.9616206    218.73336  0.041615937  0.042881714            4 
  439000    1.1824779   -5.9577612    218.33056  0.041444678  0.042869501            4 
  440000     1.172495   -5.9338342     219.4978  0.041571553  0.042857645            4 
  441000    1.2053386   -5.9308605    219.82066  0.041538295  0.042846994            5 
  442000    1.1605263   -5.9504384      220.878  0.041643664  0.042836511            4 
  443000    1.1772297   -6.0002518    221.17826  0.041606143  0.042826073            4 
  444000     1.188735   -5.9011826    221.70827  0.041611913   0.04281594            3 
  445000    1.1737418   -5.9502366    222.10651  0.041592979   0.04280629            8 
  446000    1.2109841   -5.9588296    223.29444  0.041721681  0.042797437            3 
  447000    1.1515964   -5.9532839    223.75744   0.04171466  0.042788784           11 
  448000    1.1857533   -5.9846976    224.00511  0.041667617  0.042780774           12 
  449000    1.1855511   -5.9732561    224.79474   0.04172137  0.042772399            3 
  450000    1.1971699   -5.9758688    225.74287  0.041804236  0.042765501            4 
  451000    1.1698587   -5.9284894    226.72826  0.041893619  0.042758577            5 
  452000    1.1959924   -5.9366563    226.23262  0.041709553  0.042751599            2 
  453000    1.1742808   -5.9508342    227.65002  0.041878223  0.042744801            6 
  454000    1.1593095    -5.972004    227.87655   0.04182756  0.042738144            4 
  455000     1.193889   -5.9757238    228.70285  0.041886969  0.042731856            7 
  456000    1.1552199   -6.0151361    229.09491   0.04186676  0.042724479            3 
  457000    1.1702644   -5.9647512    228.92876  0.041744851   0.04271806            6 
  458000    1.2013968   -5.9514938    229.96948  0.041843064  0.042712028            5 
  459000    1.1815334   -5.9667868    229.89016  0.041737501   0.04270479            4 
  460000    1.1997992    -5.963248    230.45221  0.041748589  0.042698238            4 
  461000    1.1994566   -5.9847003    231.77143  0.041896499  0.042691385            6 
  462000    1.1753321   -5.9500058    231.86856  0.041823334  0.042685203            2 
  463000    1.1663432   -5.9358407    232.26483  0.041804324   0.04267804            2 
  464000    1.1632669   -5.9403082    232.48675  0.041754085  0.042671558            2 
  465000    1.1992765   -5.9594861    233.06558  0.041768025  0.042664838            4 
  466000    1.1828211   -5.9439143    233.39259  0.041736871  0.042657369            4 
  467000     1.179543   -5.9783314     233.7583  0.041712758  0.042650087            5 
  468000    1.1441714   -5.9614638    234.62751  0.041778403  0.042643055            3 
  469000    1.1920336   -5.9696095    234.43548  0.041655202  0.042636496            9 
  470000    1.1834178   -5.9847387    236.89586  0.042002812  0.042631004            4 
  471000    1.1576636   -5.9450451    235.50725   0.04166795  0.042624983            5 
  472000    1.1848686   -5.9530853    236.76344  0.041801455   0.04261867            6 
  473000    1.1728646   -5.9706311    237.05253  0.041764012   0.04261169            3 
  474000    1.1578381   -5.9516678    237.36001   0.04172996  0.042604749            5 
  475000    1.1744844   -5.9595059    237.89941  0.041736738   0.04259777            6 
  476000    1.1804783   -5.9409667    237.54868  0.041587653  0.042590437            5 
  477000    1.1633661   -5.9392888    238.90887  0.041738098  0.042583049            4 
  478000    1.1734805   -5.9644893    238.76702  0.041626049    0.0425748            2 
  479000    1.1587799   -5.9543974    239.16648  0.041608643  0.042566891            5 
  480000    1.1809481    -6.009452    239.81585  0.041634695   0.04255951            4 
  481000    1.1493447   -5.9332568    239.68404  0.041525301  0.042551829            4 
  482000    1.1436138   -6.0187886    240.46345  0.041573902  0.042543892            5 
  483000    1.1802449   -5.9895278    241.38591  0.041646982    0.0425359            4 
  484000    1.1805613   -5.9688142    241.72038  0.041618523  0.042528553            4 
  485000    1.1760139   -5.9633615    243.43577  0.041827452  0.042521625            3 
  486000    1.1664561   -5.9745458    242.89088  0.041647957    0.0425143            2 
  487000    1.1538398   -5.9649389    242.82124  0.041550519    0.0425059            3 
  488000    1.1822106    -5.993806    242.75238  0.041453617  0.042496414            7 
  489000     1.171797    -5.974841    243.92695   0.04156901  0.042487192            2 
  490000    1.1936925   -5.9848513    243.37875  0.041390943  0.042478223            6 
  491000    1.1470664   -5.9788564    243.84734  0.041386175  0.042468551            5 
  492000    1.1731173   -5.9633054     243.3221  0.041213093  0.042458321            4 
  493000    1.1770879   -5.9891019    244.59418   0.04134452  0.042447807            4 
  494000    1.1890925   -5.9547452    245.00419  0.041329991  0.042437027            4 
  495000    1.1421877   -5.9651787    245.80616  0.041381509  0.042426959            3 
  496000    1.2064281   -6.0022398    246.53289  0.041420177  0.042416404            3 
  497000    1.1776437   -5.9643425    246.16346  0.041274892  0.042406079            2 
  498000    1.1763632   -6.0049071    246.68937  0.041280015   0.04239566            3 
  499000    1.1419658   -5.9686758    247.48831  0.041330713  0.042385141            6 
  500000    1.1707497   -5.9575853    247.82507  0.041304178  0.042374724            3 
  501000    1.1748253   -5.9750682    248.88444  0.041397945  0.042364825            3 
  502000    1.1966299   -5.9684941    249.46569  0.041411967   0.04235589            3 
  503000    1.1726165   -5.9479618    249.41507  0.041321251  0.042346706            2 
  504000    1.1785933    -5.967902    249.52156  0.041256872  0.042337875            3 
  505000    1.1916373   -5.9821623    251.28814   0.04146669  0.042329116            5 
  506000    1.1869056   -5.9529416    252.25312  0.041543663  0.042320966            3 
  507000    1.1398415   -5.9792027    252.11801  0.041439516  0.042312955            4 
  508000    1.1594729   -5.9048508    253.73169  0.041622652  0.042305729            4 
  509000    1.1840472   -5.9903216    252.96956  0.041416103  0.042298871            4 
  510000    1.1700746   -5.9690091    254.69918  0.041617513  0.042291535            2 
  511000    1.1655101   -5.9822411    254.27301   0.04146657  0.042284796            4 
  512000     1.149931   -5.9924198    255.42622  0.041573279  0.042278017            4 
  513000    1.1530488   -5.9018209    256.42111  0.041653851  0.042271626            6 
  514000    1.1638018   -6.0043306    255.97364  0.041500265  0.042265248            2 
  515000    1.1776059   -5.9930937    256.17952  0.041452996  0.042258822            4 
  516000    1.1697564   -5.9553154    257.70917  0.041619699  0.042251892            4 
  517000    1.1453097    -5.981249    256.78443  0.041390141  0.042245036            5 
  518000    1.1545597   -5.9151362    258.38804  0.041568217  0.042237984            3 
  519000    1.1614156   -5.9640304    258.29916  0.041473854  0.042230775            2 
  520000     1.168425   -5.9786969    259.74894  0.041626432  0.042224079            4 
  521000    1.1745462   -6.0142988    259.57668  0.041518983  0.042217393            6 
  522000    1.1650117   -5.9819341    259.59709  0.041442703  0.042210371            3 
  523000    1.1515414   -5.9651671    260.71007  0.041540802  0.042203216            3 
  524000     1.155867   -5.9620213    260.08881  0.041362725  0.042196271            4 
  525000    1.1885607    -5.979632    260.48749  0.041347221  0.042188753            7 
  526000    1.1666997   -5.9706009    261.14357  0.041372556  0.042180636            4 
  527000    1.1466435   -5.9673242    261.51245   0.04135238  0.042172254            4 
  528000    1.1617893   -5.9765701    261.10138  0.041209183  0.042164375            6 
  529000     1.173702   -5.9687073    262.30537  0.041320947  0.042155839            5 
  530000    1.1890232   -5.9396813    263.05656  0.041361095  0.042147591            4 
  531000     1.163118   -5.9917878    263.53077  0.041357623  0.042139873            6 
  532000    1.1843129   -5.9772008    263.48068  0.041272037  0.042132544            6 
  533000    1.1614539   -5.9726898    264.65428  0.041378093  0.042125055            9 
  534000    1.1673603   -6.0011852     264.2156  0.041232148    0.0421168            3 
  535000    1.1737635   -5.9946751    265.24115  0.041314821  0.042108899            4 
  536000    1.1860731   -5.9500664    265.80336   0.04132515  0.042100903            2 
  537000    1.1711198    -5.978521    264.88121  0.041105091  0.042093025            4 
  538000    1.1672718   -5.9859676    266.08768  0.041215564  0.042084018            4 
  539000    1.1580551   -5.9844215    266.21642  0.041159001   0.04207505            4 
  540000    1.1574651   -6.0026981    265.59018  0.040986139  0.042065472            5 
  541000     1.170038   -5.9849912    265.11349  0.040836951  0.042055187            3 
  542000    1.1461086   -5.9813316     266.6115  0.040991927  0.042045293            8 
  543000    1.1870358   -5.9826967    267.62276  0.041071633  0.042035468            5 
  544000     1.153602   -5.9722327    268.20893  0.041085926  0.042026238            4 
  545000    1.1594947    -5.949303    269.68203  0.041235785  0.042017511            3 
  546000    1.1589947   -5.9572635    269.61906  0.041150649  0.042008809            9 
  547000    1.1585188   -5.9972267    270.91653  0.041273085  0.042001647            4 
  548000     1.147303   -5.9752145    270.79682  0.041179566  0.041994046            3 
  549000     1.165552   -6.0124498    271.40624  0.041197062  0.041986073            6 
  550000     1.170181   -5.9839583    271.74121   0.04117291  0.041977811            6 
  551000    1.1533627    -5.972696    271.37965  0.041043504  0.041969507            4 
  552000      1.13819   -5.9487876    273.46585  0.041284096  0.041961659            2 
  553000    1.1639703   -6.0236046    273.23297  0.041174347  0.041954281            3 
  554000    1.1748408   -5.9706032    273.93916  0.041206251  0.041946753            3 
  555000    1.1510575   -6.0027162    274.16158  0.041165402  0.041939177            3 
  556000    1.1880577   -5.9651726       275.37  0.041272482  0.041931844            2 
  557000    1.1725178   -6.0076235     274.5616  0.041077439  0.041924656            3 
  558000    1.1696953   -5.9573248    276.35408  0.041271518  0.041917404            5 
  559000    1.1651572   -6.0031256    276.32002  0.041192608  0.041910431            2 
  560000    1.1766533   -5.9712363    277.75241  0.041332203  0.041903607            5 
  561000    1.1768235   -6.0121521    277.69676  0.041250261   0.04189651            3 
  562000    1.1772226   -6.0078119    277.16986  0.041098734  0.041889365            3 
  563000    1.1608382   -6.0316456    278.15279  0.041171224  0.041881502            6 
  564000    1.1558857   -6.0081116    277.63598  0.041021864  0.041873798            4 
  565000    1.1390911   -5.9743794    279.41917  0.041212267    0.0418661            1 
  566000     1.162176   -5.9789797    279.51264  0.041153215  0.041859497            4 
  567000    1.1598706   -5.9389099     280.4353   0.04121624  0.041851973            2 
  568000    1.1666851   -5.9835866    280.28742  0.041121981  0.041845035            3 
  569000    1.1699554   -6.0134419     279.5149   0.04093657   0.04183681            3 
  570000    1.1862751    -5.996392    280.50543  0.041009565  0.041829062            4 
  571000    1.1647037   -6.0114661    281.72916  0.041116339  0.041820801            7 
  572000    1.1542984   -6.0013696    282.58213  0.041168725  0.041812782            5 
  573000    1.1626169   -5.9723476    283.45981  0.041224522  0.041805271            3 
  574000    1.1733094   -5.9694243    283.47233  0.041154519  0.041798044            3 
  575000    1.1616953    -6.018513    282.49948  0.040941954  0.041789853           16 
  576000    1.1565151   -5.9819869    282.59389  0.040884532  0.041781077           11 
  577000    1.1591936   -5.9816827    284.34927  0.041067196  0.041772874           10 
  578000    1.1728362   -6.0032119    283.52581  0.040877424  0.041764586            8 
  579000    1.1436299   -5.9909549    283.88232  0.040858134  0.041756012            4 
  580000    1.1529866   -5.9932154    285.59803    0.0410342  0.041747515            1 
  581000     1.177789   -6.0103195    284.44223  0.040797796  0.041737924            1 
  582000    1.1570725   -5.9694371     285.9959  0.040950158  0.041728963            3 
  583000    1.1428168   -6.0037612    286.11281  0.040896628  0.041720037            4 
  584000    1.1618667     -5.96659    286.76979  0.040920346  0.041711553            4 
  585000    1.1685469    -5.953266    288.06511  0.041034916  0.041703017            2 
  586000    1.1378694   -6.0044351     287.8972  0.040941013   0.04169464            4 
  587000    1.1608582   -5.9620749    288.35533  0.040936304  0.041685925            2 
  588000    1.1476903   -6.0247414    288.05306  0.040823847  0.041676889            4 
  589000    1.1642005   -6.0231062    288.54899  0.040824701  0.041668039            3 
  590000    1.1443763   -6.0176465    289.01899  0.040821891  0.041658867            7 
  591000    1.1507821   -5.9388084    289.49657  0.040820159  0.041649924            3 
  592000    1.1757026   -5.9746681    289.75739  0.040787921  0.041640577            4 
  593000    1.1825187   -5.9981459    290.08289   0.04076488  0.041631411            7 
  594000    1.1514899   -6.0201365    290.68163   0.04078025  0.041622669            8 
  595000    1.2030144   -6.0121767    290.78256  0.040725848  0.041613853            5 
  596000    1.1484595    -5.971646    291.22373  0.040719202  0.041605509            3 
  597000    1.1982518    -5.985826     291.0836  0.040631435   0.04159644            7 
  598000    1.1605478   -6.0241959    293.50609  0.040901072  0.041587867            2 
  599000     1.173561    -6.011372    293.39798  0.040817749   0.04157935            2 
  600000    1.1502812   -5.9931862    294.74857  0.040937301  0.041571173            6 
  601000    1.1855131   -5.9916896    294.66613  0.040857755  0.041563514            3 
  602000    1.1765991   -5.9627019     295.8282  0.040950748  0.041556088            5 
  603000    1.1529594   -6.0111103    296.28764  0.040946329  0.041548296            4 
  604000    1.1387051   -6.0007768    296.71554  0.040937574  0.041540536            3 
  605000    1.1584507   -6.0035731    297.14561  0.040929147  0.041533685            2 
  606000    1.1747557      -5.9868    297.81729  0.040953973  0.041526523            6 
  607000     1.158296   -5.9964355    298.57147  0.040990043  0.041519072            4 
  608000    1.1435817   -6.0085811    298.86988  0.040963526   0.04151235            3 
  609000    1.1672778   -5.9859236    297.89924  0.040763442  0.041505371            5 
  610000     1.169481   -6.0499307    298.52385  0.040781947  0.041497806            3 
  611000    1.1561385   -5.9850198     298.6704  0.040735188  0.041489912            3 
  612000    1.1435288   -5.9858301    300.38011   0.04090143  0.041482057            5 
  613000    1.1695562   -5.9859011    299.55681  0.040722785  0.041474894            3 
  614000    1.1432354   -5.9877801    300.05503  0.040724081    0.0414674            7 
  615000    1.1283872   -5.9886335    301.04371   0.04079183  0.041459906            4 
  616000    1.1328482   -5.9876844    300.76343  0.040687693  0.041452041            6 
  617000     1.142039   -6.0069769    301.64869  0.040741315   0.04144389            3 
  618000    1.1674183    -6.005863    302.20029   0.04074977  0.041436484            6 
  619000    1.1181121   -5.9669015    304.49219  0.040992486  0.041429269            5 
  620000    1.1445683   -6.0139495    303.81873  0.040835851  0.041422024            2 
  621000    1.1248977   -6.0133956    303.68762  0.040752498  0.041414615            6 
  622000    1.1684648   -6.0089463    304.13488  0.040746902  0.041407506            4 
  623000     1.150433   -5.9862542    305.22863  0.040827799  0.041400526            6 
  624000    1.1474367    -5.970641    306.03431  0.040869967  0.041393784            4 
  625000    1.1665811   -6.0166471    304.91675  0.040655566  0.041387045            4 
  626000    1.1557064   -5.9530556    306.04562  0.040740898  0.041379752            2 
  627000    1.1437646   -6.0000479    307.10827  0.040817154  0.041373036            2 
  628000    1.1598225   -5.9927759    306.09802  0.040618103   0.04136604            3 
  629000    1.1605168   -6.0061323    307.58292  0.040750254  0.041359217            2 
  630000    1.1728755   -5.9866356    308.17731  0.040764194   0.04135241            5 
  631000    1.1386382   -6.0037477    308.07805  0.040686483  0.041345149            6 
  632000    1.1667974    -5.994296    308.97842  0.040740826   0.04133824            2 
  633000     1.174614   -6.0225028    309.05715  0.040686829  0.041331217            7 
  634000    1.1496415   -5.9744672    308.89534  0.040601386  0.041323855            5 
  635000    1.1606585   -5.9931233    309.08081  0.040561786  0.041315771            4 
  636000    1.1229834   -6.0296696    309.50299  0.040553326  0.041307721            2 
  637000    1.1454604   -6.0398301    309.97662  0.040551625   0.04129963            1 
  638000    1.1733893   -5.9924381     310.9669  0.040617411  0.041291202            3 
  639000     1.151895   -5.9929253    310.89757  0.040544806  0.041282604            3 
  640000    1.1635531   -6.0039335    310.58992  0.040441396  0.041273862            5 
  641000     1.174754   -6.0058884    312.10663  0.040575485  0.041264815            3 
  642000    1.1722572   -5.9985672    312.60315  0.040576733  0.041256459            9 
  643000    1.1640923   -6.0134476     312.3298  0.040478201  0.041247781            7 
  644000    1.1579398   -6.0165796    312.86665  0.040484816  0.041239569            3 
  645000    1.1310924   -6.0261845    314.47672  0.040630068  0.041231298            3 
  646000    1.1628057   -6.0197583    313.62109  0.040456796  0.041223151            6 
  647000    1.1470648   -6.0349094    315.68453  0.040660038  0.041215229            4 
  648000    1.1412768   -5.9783163    314.82383  0.040486603  0.041207457            4 
  649000     1.140737   -6.0389478     315.8277  0.040553121  0.041199817            4 
  650000    1.1569088   -6.0241561    315.59592  0.040461015  0.041192158            3 
  651000    1.1582346   -5.9953604    316.83149  0.040557027  0.041184561            4 
  652000    1.1402316   -6.0421538     316.9868  0.040514673  0.041176669            6 
  653000    1.1382251   -6.0556546    317.37339  0.040501964  0.041169299            3 
  654000    1.1559151   -5.9868132    318.57247  0.040592822  0.041161983            3 
  655000    1.1425458   -6.0171232    318.02925  0.040461736  0.041154731            3 
  656000    1.1556846   -6.0440026    319.37915  0.040571538  0.041147777            6 
  657000    1.1501544    -6.013855    319.51802    0.0405274  0.041140216            7 
  658000    1.1749249    -6.019598    320.28638  0.040563118  0.041132719            9 
  659000    1.1383422   -5.9980836    321.13122  0.040608399  0.041125263            3 
  660000    1.1588796   -6.0021077    321.77415  0.040628049  0.041118308            3 
  661000    1.1558667   -6.0102752    321.80455  0.040570417  0.041111614            5 
  662000    1.1484515   -6.0278227     323.0386  0.040664476   0.04110517            1 
  663000    1.1261082   -5.9813268    323.73191  0.040690285  0.041098426            5 
  664000    1.1408935   -6.0299194    323.72873  0.040628605  0.041091923            5 
  665000      1.15618    -6.007241    323.87216  0.040585484  0.041085644            3 
  666000     1.157122   -5.9831644    324.51499  0.040604979  0.041078979            3 
  667000    1.1454762    -5.995946    324.48482  0.040540333  0.041072368            3 
  668000     1.159793   -6.0011942    324.90485  0.040532042   0.04106534            3 
  669000     1.143355   -6.0351052    324.13453  0.040375502  0.041058257            6 
  670000    1.1664317   -6.0096069    325.56027  0.040492571  0.041052122            4 
  671000    1.1399836    -6.044624    326.75027  0.040580014  0.041045968            7 
  672000    1.1429471   -6.0199471    327.17642  0.040572472  0.041040389            3 
  673000    1.1553998   -5.9866498    328.43892  0.040668514   0.04103468            7 
  674000    1.1520914   -6.0155016    328.09784  0.040566003  0.041028777            5 
  675000    1.1380055   -6.0007444     328.8721  0.040601494  0.041022574            6 
  676000    1.1438976   -5.9854936    328.73957  0.040525095  0.041016236            7 
  677000     1.120041   -6.0150149    330.97683  0.040740624  0.041009934            5 
  678000    1.1544587   -6.0357032    330.84311  0.040664099  0.041003821            6 
  679000    1.1329224   -6.0182404    329.60337  0.040452058  0.040997255            6 
  680000    1.1471515   -6.0300018    331.09592   0.04057548  0.040990866            3 
  681000     1.132585   -5.9872412    331.54996  0.040571459  0.040984969            4 
  682000    1.1560758   -5.9797991    332.61169  0.040641702  0.040979118            4 
  683000    1.1470086   -6.0512514    331.48835  0.040445138  0.040973345            3 
  684000    1.1310431   -6.0065002     333.3653   0.04061468  0.040967578            5 
  685000    1.1247068   -5.9813514    334.32945  0.040672682  0.040961774            3 
  686000    1.1336777   -6.0104488    333.62906  0.040528312  0.040956127            5 
  687000    1.1651877   -6.0373982    333.29137  0.040428356  0.040950032            2 
  688000    1.1501107   -6.0458218    334.11662  0.040469552  0.040944011            4 
  689000    1.1627541   -6.0248256    335.09418  0.040529049  0.040938177            4 
  690000    1.1163032   -6.0051761    335.72385  0.040546359  0.040932243            4 
  691000    1.1370906   -6.0238452    336.15015  0.040539091  0.040926261            4 
  692000    1.1334837   -6.0441113    336.26806  0.040494709  0.040919859            4 
  693000    1.1086716    -6.058554    335.85062  0.040386078   0.04091335            2 
  694000    1.1130312   -6.0125261    336.50012  0.040405874  0.040906515            6 
  695000    1.1230585   -6.0029961    337.31972  0.040446009   0.04090021            3 
  696000    1.1411385   -6.0350795    337.64505   0.04042685  0.040893759            3 
  697000    1.1307892   -6.0099705     338.1796   0.04043276  0.040887285            2 
  698000    1.1286339   -6.0330358    337.45968  0.040288883  0.040880329            7 
  699000    1.1303481    -6.037768    339.89339  0.040521387  0.040873635            4 
  700000    1.1283944    -6.057088    339.33718  0.040397283   0.04086747            4 
  701000    1.1364516   -6.0286919    339.56407  0.040366628  0.040861462            3 
  702000    1.1317713   -5.9762003    342.29074  0.040632804  0.040855702           12 
  703000    1.1531159   -6.0210141    340.63302  0.040378499  0.040849662            4 
  704000    1.1251201   -6.0471655    340.86271  0.040348332  0.040843075            3 
  705000    1.1269621   -6.0249387    341.65557   0.04038482  0.040836319            5 
  706000    1.1555551   -6.0229165    341.45059  0.040303421  0.040829073            2 
  707000    1.1396571   -6.0395875    342.30753  0.040347423   0.04082144            5 
  708000    1.1427708   -6.0263433     341.3365  0.040176141  0.040813715            2 
  709000    1.1340556   -5.9867097    344.17568  0.040453182  0.040806331            3 
  710000    1.1269063   -6.0325318    342.28115  0.040173844  0.040799208            4 
  711000    1.1114606   -6.0036461    343.25134  0.040231052   0.04079201            8 
  712000    1.1461601   -6.0122472    344.69126  0.040343079  0.040785499            3 
  713000    1.1399426   -6.0828724    344.24393  0.040234213  0.040778409            2 
  714000    1.1458908   -5.9817696    346.15481  0.040400889   0.04077155            5 
  715000    1.1253672   -6.0340164    346.70921  0.040408999   0.04076474            4 
  716000    1.1037594   -6.0309696    346.04346  0.040275077  0.040757978            3 
  717000    1.1432129   -6.0241223    346.45044  0.040266206  0.040751488            6 
  718000    1.1351689   -6.0608206     347.2194  0.040299373  0.040744994            4 
  719000    1.1290876   -6.0310503    348.09966  0.040345348  0.040738676            3 
  720000    1.1330701   -6.0754931    347.62712   0.04023462  0.040732082            2 
  721000    1.1306036   -6.0420871    347.89196  0.040209426  0.040725964            3 
  722000    1.1288393   -6.0603948    348.70337  0.040247388  0.040719521            5 
  723000    1.1304698   -6.0462093    348.69099  0.040190294  0.040712803           10 
  724000     1.145315   -6.0197769    349.38374  0.040214518  0.040705875            2 
  725000    1.1318074   -6.0493672    349.46154  0.040167994   0.04069905            3 
  726000    1.1059303   -6.0535031    349.14442  0.040076265  0.040691951            3 
  727000    1.1408545   -6.0091731    350.06814  0.040127022  0.040684805            3 
  728000    1.1311229   -6.0278389    350.20761  0.040087868  0.040677757            9 
  729000    1.1252435    -6.018215    350.60496  0.040078299  0.040670616            3 
  730000    1.1483323   -6.0132721    352.35284  0.040222927  0.040663775            3 
  731000    1.1314442   -6.0492659    350.67591  0.039976733  0.040656708            7 
  732000    1.1146962   -6.0252812    353.37997   0.04022996  0.040649479            3 
  733000    1.1527747   -6.0183104    352.58091  0.040084233  0.040642498            5 
  734000    1.1121775   -6.0345915    353.18309  0.040097989  0.040635205            3 
  735000    1.1408152   -6.0495374    353.13765  0.040038282  0.040627949            2 
  736000    1.1407174   -6.0446335    354.98844  0.040193437    0.0406211            4 
  737000    1.1435454   -6.0023872    355.13081  0.040154999  0.040614712            6 
  738000    1.1169119    -6.054993    354.82952  0.040066567  0.040608063            4 
  739000     1.137784   -6.0431596     356.3037  0.040178586  0.040601213            4 
  740000    1.1309791    -6.043118    356.24365  0.040117528  0.040594518            5 
  741000    1.1244074   -5.9894012    357.09079  0.040158658  0.040587807            6 
  742000    1.1220807   -6.0255751    356.96272  0.040090153  0.040580742            3 
  743000    1.1426199   -6.0251252    358.20559  0.040175593   0.04057352            6 
  744000    1.1297566   -6.0256756    358.80219  0.040188417  0.040566515            2 
  745000    1.1307791    -6.045461    359.04607  0.040161753  0.040559769            4 
  746000     1.141175   -6.0078473    358.85543  0.040086621  0.040553025            4 
  747000    1.1384734   -6.0339506    359.71745  0.040129122  0.040545854            2 
  748000    1.1478055   -6.0439934    359.82764  0.040087749  0.040538886            6 
  749000      1.12013   -6.0306826    358.98512  0.039940489  0.040532025            4 
  750000     1.118061   -6.0212621    361.11949  0.040124388    0.0405248            9 
  751000    1.1323249   -6.0256817    361.27473  0.040088186  0.040517871            8 
  752000    1.1279219    -6.068399     360.7624  0.039978103  0.040510908            4 
  753000     1.107791   -6.0476272     361.5271   0.04000964  0.040503832            9 
  754000    1.1170913   -6.0444022    362.55197  0.040069846  0.040497097            4 
  755000     1.148088   -6.0069571    363.79437  0.040153904  0.040490688            6 
  756000    1.1501352   -6.0501077    362.79473  0.039990601   0.04048422            5 
  757000    1.1364692    -6.037003    363.48705  0.040013986   0.04047766            4 
  758000    1.1253389   -6.0136281    365.00548  0.040128131    0.0404713            2 
  759000    1.1095011   -6.0423437    364.61297  0.040032166  0.040464662            4 
  760000     1.098094   -6.0715385    364.75551  0.039995122  0.040457833            4 
  761000    1.1093391   -6.0206345    364.76074  0.039943138  0.040450811            3 
  762000    1.1384253   -6.0254046    365.79067  0.040003354   0.04044403            5 
  763000    1.1309675   -6.0610536      364.874  0.039850808  0.040437244            7 
  764000    1.1193251    -6.034231    365.48599    0.0398654  0.040430191            4 
  765000    1.1306049   -6.0544773    366.08625  0.039878676  0.040422949            5 
  766000    1.1308979   -6.0610211    367.02311  0.039928537  0.040415482            5 
  767000    1.1357383   -6.0456342    366.15814  0.039782501  0.040407872            2 
  768000    1.1334364   -6.0099856    367.92879  0.039922829  0.040399977            4 
  769000    1.1468812   -6.0562006    367.51577  0.039826156   0.04039208            4 
  770000    1.1450659   -6.0456319    367.99791  0.039826613  0.040384135            2 
  771000    1.1370688   -6.0164951    367.74144  0.039747237  0.040376044            5 
  772000    1.1063093   -6.0296854    367.76054  0.039697813   0.04036798            6 
  773000    1.1423371   -6.0527178    367.99299  0.039671517  0.040359587            4 
  774000    1.1265996   -6.0430031    367.77388  0.039596671  0.040351106           10 
  775000    1.1190301    -6.034052    369.44422  0.039725185  0.040342579            6 
  776000    1.1318042   -6.0455076    369.65345  0.039696461  0.040334245            7 
  777000    1.1505488   -6.0615823    369.27314  0.039604584  0.040325709            4 
  778000    1.1128784   -6.0309549    371.34444   0.03977554  0.040317027            4 
  779000    1.1393052   -6.0474581    370.19818  0.039601859  0.040308025            2 
  780000    1.1175051   -6.0566262    370.54903  0.039588572  0.040298896            6 
  781000    1.1537577   -6.0474954    371.44055  0.039633008  0.040289831            4 
  782000    1.1187026   -6.0272545    371.79858   0.03962048  0.040280557            4 
  783000     1.132597   -6.0520324    371.04559   0.03948974  0.040271163            8 
  784000    1.1383247   -6.0758752    371.53956  0.039491875  0.040262124            6 
  785000    1.1398525   -6.0315539    373.63366   0.03966387  0.040253506            3 
  786000    1.1226761   -6.0682269    372.03969  0.039444412  0.040244822            4 
  787000    1.1317529    -6.086547    372.74053  0.039468502  0.040236095            7 
  788000    1.1339649   -6.0568841    373.52844  0.039501739  0.040227328           10 
  789000    1.1149064   -6.0478019    374.35085  0.039538535  0.040218692            3 
  790000    1.0998661   -6.0379223    374.51205   0.03950549  0.040209827            4 
  791000     1.126079   -6.0585857    375.04842  0.039512054  0.040201242            4 
  792000      1.13494   -6.0115778    375.21174  0.039479349  0.040192232            8 
  793000    1.1120564   -6.0205811     375.9097  0.039502911  0.040183768            2 
  794000     1.124433   -6.0440844    376.10899  0.039474075  0.040174618            3 
  795000    1.0985906   -6.0603114    376.62791  0.039478817  0.040165529            4 
  796000     1.134641   -6.0721647     376.6636  0.039432956  0.040156247            4 
  797000    1.1314194   -6.0660078    376.89564  0.039407741  0.040146572            8 
  798000    1.1159442   -6.0661815    376.84556  0.039353129  0.040137703            7 
  799000    1.1343851   -6.0385005    377.03175  0.039323294  0.040128341            7 
  800000    1.1221709   -6.0399245    378.99926   0.03947909  0.040118906            4 
  801000    1.1408623    -6.012677    379.34409  0.039465677  0.040109695            3 
  802000    1.1190621   -6.0508461    378.58295  0.039337381  0.040100538            6 
  803000     1.141982     -6.02403     380.0056  0.039436031   0.04009093            6 
  804000    1.0993367   -6.0391924    379.31271  0.039315165  0.040081529            3 
  805000    1.1478692   -6.0605759    379.88916     0.039326   0.04007201            4 
  806000    1.1087217   -6.0566959    379.76027  0.039263882  0.040062622            7 
  807000    1.1055328   -6.0780989    381.49658  0.039394525   0.04005332            4 
  808000    1.0985165   -6.0640765    381.40081  0.039335892  0.040044073            3 
[...]
 4800000   0.48527535   -7.7730457    822.16906  0.014273768  0.012469639         4000 
 4801000    0.4937468   -7.7718296    820.75592  0.014246267  0.012465358         3997 
 4802000   0.49349305   -7.7868696    821.24297  0.014251752  0.012461079         3996 
 4803000   0.48167386    -7.764874    821.27272  0.014249301  0.012456802         3998 
 4804000   0.48644488   -7.7762127    821.03758  0.014242256  0.012452527         4000 
 4805000    0.4793184   -7.7732946    820.72304  0.014233837  0.012448256         3998 
 4806000   0.47616309   -7.7625027    822.14516  0.014255534  0.012443983         3999 
 4807000   0.47568887   -7.7818447    820.37531  0.014221887  0.012439713         3998 
 4808000   0.48870587   -7.7595685    821.99453  0.014246993  0.012435443         3999 
 4809000   0.48365343   -7.7632439    821.88681  0.014242164  0.012431176         3999 
 4810000   0.48804295   -7.7696477    821.22043  0.014227658  0.012426913         3996 
 4811000   0.47977754   -7.7644168    820.60172  0.014213984   0.01242265         3998 
 4812000   0.48728265   -7.7789756    822.00133  0.014235268   0.01241839         3999 
 4813000   0.48272692   -7.7511467     820.4451  0.014205366  0.012414134         3998 
 4814000   0.49170209   -7.7647463    821.98332  0.014229042  0.012409876         3996 
 4815000   0.47556361   -7.7763177    820.40988  0.014198856  0.012405624         3995 
 4816000   0.47186859   -7.7705295    821.40169  0.014213069  0.012401373         3997 
 4817000   0.46815438   -7.7931913    822.05242  0.014221376  0.012397119         3999 
 4818000   0.47596584   -7.7719966    821.56197  0.014209941  0.012392868         3998 
 4819000   0.49435386   -7.7690377    822.53719  0.014223857  0.012388624         3998 
 4820000    0.4810576   -7.7593687    820.01569  0.014177311  0.012384379         3998 
 4821000   0.48373948   -7.7673001    822.16609  0.014211541  0.012380138         3995 
 4822000   0.48805205   -7.7761866    821.69325  0.014200423  0.012375899         3997 
 4823000   0.48037856   -7.7731863    821.89538  0.014200971  0.012371661         3998 
 4824000   0.47304892   -7.7729847    822.45712  0.014207731  0.012367424         3999 
 4825000   0.48052193   -7.7635388    821.74733  0.014192527  0.012363188         3999 
 4826000   0.47606703   -7.7677344    819.80959  0.014156126  0.012358952         3998 
 4827000   0.48385366   -7.7595464    821.38856  0.014180453  0.012354721         3998 
 4828000   0.46922177   -7.7594594    821.61176  0.014181368   0.01235049         3995 
 4829000   0.47993616   -7.7904029    821.41841  0.014175095  0.012346262         3998 
 4830000   0.46580867    -7.775595    820.70296  0.014159816  0.012342037         3999 
 4831000   0.47928904   -7.7742534    820.38108  0.014151333  0.012337812         4000 
 4832000   0.47749018   -7.7810625    821.43359  0.014166556   0.01233359         3998 
 4833000   0.48270145   -7.7814203    822.03908  0.014174065  0.012329368         3997 
 4834000   0.47756604   -7.7608504     821.6634  0.014164657   0.01232515         3997 
 4835000   0.48023861    -7.782336    822.27319  0.014172237  0.012320934         3998 
 4836000   0.48441792   -7.7828472    821.57964  0.014157355  0.012316718         4000 
 4837000   0.46449394   -7.7669247    822.28833  0.014166638  0.012312504         3996 
 4838000   0.46517237   -7.7823958    822.16526   0.01416159  0.012308294         3995 
 4839000   0.47634988   -7.7916617    820.22061  0.014125174  0.012304082         3999 
 4840000   0.47362389   -7.7768377    819.98877  0.014118264  0.012299874         4000 
 4841000   0.47820801   -7.7707474     820.9272  0.014131502   0.01229567         3999 
 4842000   0.47182406   -7.7635528    820.15115  0.014115227  0.012291465         3998 
 4843000   0.46874218   -7.7756715    820.63112  0.014120571  0.012287266         3999 
 4844000   0.48085607   -7.7774599     820.7042  0.014118914  0.012283065         3998 
 4845000   0.47857206    -7.792465    820.23404  0.014107913  0.012278867         3999 
 4846000   0.47837393   -7.7901775    821.03856  0.014118836  0.012274672         4000 
 4847000   0.47079159   -7.7833608    820.70884  0.014110254  0.012270479         3997 
 4848000    0.4694847    -7.772328    820.19165  0.014098454  0.012266287         3999 
 4849000   0.47280517   -7.7737901    820.80644  0.014106112  0.012262095         3999 
 4850000   0.47677318   -7.7813549    821.33887  0.014112352  0.012257907         3999 
 4851000   0.48100487   -7.7913851    820.49688  0.014094978  0.012253723         3997 
 4852000   0.47251073   -7.7797709    821.91686  0.014116462  0.012249538         3999 
 4853000   0.46948072     -7.78683    821.84468  0.014112313  0.012245355         3997 
 4854000   0.48022823   -7.7921066    821.48441  0.014103221  0.012241173         3995 
 4855000   0.47796649   -7.7725726    820.20886  0.014078422  0.012236995         3996 
 4856000   0.47475657   -7.7624631    821.16432  0.014091919  0.012232818         3999 
 4857000   0.46450897   -7.7796916    821.10404  0.014087984  0.012228642         3995 
 4858000   0.47525681   -7.7717916    820.39559  0.014072931  0.012224467         4000 
 4859000   0.47838153   -7.7827577    820.66063   0.01407458  0.012220292         3997 
 4860000   0.47320809   -7.7957111    822.28792  0.014099587  0.012216122         4000 
 4861000   0.46562555   -7.7644666    820.92311  0.014073289  0.012211955         3997 
 4862000   0.46954648    -7.773239     821.7658  0.014084838  0.012207788         3994 
 4863000   0.47242215   -7.7664516    820.67823  0.014063305  0.012203623         3998 
 4864000   0.46815695   -7.7729457    820.29761  0.014053893  0.012199462         3994 
 4865000   0.47293887   -7.7751269    820.28676  0.014050818  0.012195301         3998 
 4866000   0.46646063   -7.7934777    822.47969  0.014085486  0.012191145         4000 
 4867000   0.46505753   -7.7805237    820.56307  0.014049775  0.012186989         4000 
 4868000   0.47567053   -7.7863564    820.55746  0.014046793  0.012182833         3999 
 4869000   0.47364267   -7.7924118     819.5173  0.014026106   0.01217868         3998 
 4870000   0.47267526   -7.7626429    820.21362  0.014035141  0.012174529         3999 
 4871000   0.48144043   -7.7872024    820.07067  0.014029814  0.012170378         3999 
 4872000   0.47211596   -7.7863234    820.61328  0.014036215   0.01216623         4000 
 4873000   0.47221263   -7.7794319    820.97836  0.014039578  0.012162084         3999 
 4874000   0.47006012   -7.7807057    821.05956  0.014038086  0.012157938         3998 
 4875000   0.46331901    -7.792651    820.16079  0.014019843  0.012153794         3998 
 4876000   0.46487549   -7.7779564    820.92539  0.014030035  0.012149653         3999 
 4877000   0.47885572   -7.7692781    821.49018  0.014036808  0.012145515         3999 
 4878000   0.46950439   -7.7872127    819.94772   0.01400758  0.012141381         4000 
 4879000   0.46689619   -7.7916134    820.82935  0.014019768  0.012137246         3998 
 4880000   0.47180332   -7.7979354    821.03194  0.014020354  0.012133112         3999 
 4881000   0.47674954   -7.7885106    821.00055  0.014016946   0.01212898         3997 
 4882000   0.46533621   -7.7699754    820.91568  0.014012626  0.012124848         3997 
 4883000   0.46665623    -7.787669     822.2193  0.014032004  0.012120721         3999 
 4884000   0.47593497   -7.7828811    821.15514  0.014010974  0.012116594         3999 
 4885000   0.46687128   -7.7860355    820.41486  0.013995477  0.012112469         3997 
 4886000     0.469586     -7.79773    820.56947  0.013995249  0.012108348         3999 
 4887000   0.47393735   -7.7785837    820.13486  0.013984975  0.012104225         3999 
 4888000   0.46634591   -7.7707263    820.39946  0.013986625  0.012100107         3999 
 4889000   0.46984767   -7.7727359    819.24839  0.013964144  0.012095994         3999 
 4890000   0.46116909    -7.806988    820.70436    0.0139861  0.012091878         3995 
 4891000   0.46685956   -7.7857599    820.23907  0.013975313  0.012087764         3997 
 4892000   0.47115298   -7.7869188    820.13984  0.013970766  0.012083653         3998 
 4893000   0.46560606   -7.7866828    821.34071  0.013988363  0.012079543         4000 
 4894000   0.46686612   -7.7866699     820.5374  0.013971826  0.012075437         4000 
 4895000   0.47063818   -7.7808402    820.90356  0.013975205   0.01207133         3997 
 4896000    0.4643015   -7.7937581    820.22251  0.013960759  0.012067224         3997 
 4897000   0.48239665   -7.7964648    819.75531  0.013949958   0.01206312         4000 
 4898000   0.47139948    -7.780208     820.0688  0.013952443  0.012059021         3998 
 4899000   0.46378853    -7.789182    820.91011  0.013963906  0.012054921         4000 
 4900000   0.46155031   -7.7916832    821.85268  0.013977086  0.012050824         4000 
 4901000   0.46208493   -7.7889529    819.90219   0.01394107  0.012046729         3998 
 4902000   0.46586236   -7.7913289    819.81622  0.013936764  0.012042635         3999 
 4903000   0.48108785    -7.790767    820.44233  0.013944563  0.012038542         4000 
 4904000   0.46519777   -7.8142575    820.88303  0.013949209  0.012034451         3999 
 4905000   0.46506652   -7.7799528    820.70188  0.013943287  0.012030364         3999 
 4906000   0.46426635   -7.7847468    820.14796  0.013931036  0.012026276         3993 
 4907000    0.4722386   -7.7951573    819.23142  0.013912632   0.01202219         3996 
 4908000    0.4596962   -7.7943037     821.9952  0.013956724  0.012018107         3999 
 4909000   0.47380535   -7.7909335    821.55928  0.013946481  0.012014027         4000 
 4910000   0.47040428   -7.8017494    820.88176  0.013932141  0.012009949         3998 
 4911000   0.46682118   -7.7997698    821.10094  0.013933023  0.012005872         3998 
 4912000   0.46472138   -7.7975167     820.3508  0.013917461  0.012001796         3998 
 4913000   0.46863221   -7.8042216    819.33824  0.013897453  0.011997722         3999 
 4914000   0.45932311   -7.8076893    820.77688  0.013919022   0.01199365         3997 
 4915000   0.46003809    -7.786306    820.39021  0.013909634   0.01198958         3998 
 4916000   0.46215463   -7.7914382    820.42248  0.013907351  0.011985509         3999 
 4917000   0.46061871   -7.7950459     819.7737  0.013893528  0.011981441         3999 
 4918000   0.47072355   -7.7797401    820.55935  0.013904015  0.011977377         3999 
 4919000   0.45720478   -7.7901664    820.32466  0.013897213  0.011973314         4000 
 4920000   0.46280388   -7.7908912    820.13583  0.013891189  0.011969254         4000 
 4921000   0.45900408   -7.7846053    820.22178  0.013889822  0.011965194         3998 
 4922000   0.46149402   -7.7949453    820.28662  0.013888098  0.011961138         3997 
 4923000   0.45234999   -7.7997231    819.78928  0.013876858   0.01195708         3995 
 4924000   0.47389227    -7.785393    820.58637   0.01388753  0.011953028         4000 
 4925000   0.46433069   -7.7888703     820.3076  0.013879993  0.011948977         3999 
 4926000   0.47556895   -7.7921027    819.94003  0.013870957  0.011944925         4000 
 4927000   0.46439066   -7.7912576    820.51287  0.013877831  0.011940875         3998 
 4928000   0.46432397    -7.797089    820.37048  0.013872607  0.011936831         4000 
 4929000   0.45636101   -7.7816165    818.92307  0.013845321  0.011932785         3999 
 4930000   0.45849791   -7.7925472    820.44433  0.013868227  0.011928743         3998 
 4931000   0.45194759   -7.7892578    820.05233   0.01385879  0.011924702         3998 
 4932000   0.44954701    -7.818044    820.66091  0.013866263  0.011920662         4000 
 4933000   0.46683485   -7.7940119    819.32085  0.013840814  0.011916621         3999 
 4934000   0.46213681   -7.8118147    820.34233  0.013855262  0.011912584         3998 
 4935000   0.45756698   -7.7848467    819.11803   0.01383178  0.011908548         3999 
 4936000   0.46990969   -7.7867189    820.94131   0.01385976  0.011904517         4000 
 4937000    0.4656155   -7.7872898    820.17484  0.013844015  0.011900486         3997 
 4938000   0.46919094   -7.7996501    819.08216  0.013822772  0.011896458         3999 
 4939000   0.45587072   -7.7913034      820.337  0.013841145  0.011892434         3998 
 4940000   0.45617484   -7.8073673    820.08284  0.013834056   0.01188841         3999 
 4941000   0.45183491   -7.7919014    820.08925  0.013831364  0.011884386         3999 
 4942000   0.45794666   -7.7866952      819.627  0.013820771  0.011880362         3998 
 4943000   0.46137531   -7.8186313    820.15692  0.013826909  0.011876342         3997 
 4944000   0.47402216   -7.7778916     819.9033  0.013819837  0.011872324         3999 
 4945000   0.46551865   -7.7924822    820.28246  0.013823432  0.011868308         3998 
 4946000   0.46461991   -7.7968688    821.29868  0.013837759  0.011864294         3996 
 4947000    0.4681159   -7.8101642    820.32177  0.013818506  0.011860281         3997 
 4948000   0.46617538   -7.8044244     819.4105  0.013800366   0.01185627         4000 
 4949000   0.46051387    -7.811495    820.97067  0.013823848  0.011852261         3998 
 4950000   0.46715432   -7.7901646    819.52039  0.013796639  0.011848252         3996 
 4951000   0.45627452   -7.8070274    821.19488  0.013822037  0.011844247         3997 
 4952000   0.45514053   -7.7921408    820.67756  0.013810541  0.011840243         3998 
 4953000   0.46195169   -7.8013381    819.95432  0.013795584  0.011836241         3999 
 4954000   0.46340203   -7.8104354    820.68938  0.013805164   0.01183224         3999 
 4955000   0.45995258   -7.8030729     819.0407   0.01377465  0.011828242         4000 
 4956000   0.45617544   -7.8132117    819.53253  0.013780141  0.011824244         3999 
 4957000    0.4497786   -7.8075003    819.37362  0.013774689  0.011820249         3997 
 4958000   0.46970803   -7.7979668    819.83033  0.013779587  0.011816255         3999 
 4959000   0.46165601   -7.7927509    821.33688  0.013802126  0.011812265         3999 
 4960000   0.46781171   -7.7965919    819.89183  0.013775064  0.011808277         3998 
 4961000    0.4544306   -7.8053958    821.09421  0.013792485  0.011804289         4000 
 4962000   0.45970522   -7.7886472    819.89553  0.013769574  0.011800301         3997 
 4963000   0.44402044   -7.8018942    821.46213  0.013793104  0.011796317         3997 
 4964000   0.46164357   -7.8044122     818.6656  0.013743379  0.011792333         4000 
 4965000   0.45629201   -7.8058734    820.01469  0.013763254  0.011788354         3998 
 4966000    0.4583181   -7.8183637    819.51254  0.013752056  0.011784375         4000 
 4967000   0.44983173   -7.7953404    819.82728  0.013754568  0.011780399         3998 
 4968000    0.4538673   -7.8087937    819.83917  0.013751999  0.011776422         3999 
 4969000   0.44977524   -7.8080414    821.98649  0.013785243  0.011772445         4000 
 4970000   0.45601009   -7.8083035    820.05446  0.013750075  0.011768473         3995 
 4971000   0.45138438   -7.7994382    819.89065  0.013744563  0.011764502         3999 
 4972000   0.44563642   -7.8049699    820.41866  0.013750648  0.011760532         3999 
 4973000   0.45238137   -7.7938158    820.11901  0.013742862  0.011756564         4000 
 4974000   0.45200946    -7.806942    820.35713  0.013744088    0.0117526         3999 
 4975000   0.45510437   -7.8039688     819.1232  0.013720657  0.011748639         4000 
 4976000    0.4619346   -7.8143634    819.49718  0.013724162   0.01174468         4000 
 4977000   0.45593497   -7.7939149    820.44614  0.013737294  0.011740721         4000 
 4978000   0.46145889   -7.7998478    817.99282  0.013693465  0.011736762         4000 
 4979000    0.4727977   -7.7971325    819.88893   0.01372245  0.011732808         3999 
 4980000   0.46110372   -7.8009949    820.07826  0.013722862  0.011728854         3996 
 4981000   0.46793504   -7.8032741    819.36077  0.013708104  0.011724903         4000 
 4982000   0.45687461   -7.7946297    819.25551  0.013703591  0.011720951         3998 
 4983000   0.46493139   -7.7983195    818.84194  0.013693925  0.011717004         3998 
 4984000   0.45780142   -7.8049566    820.00439  0.013710614  0.011713057         4000 
 4985000   0.44622329   -7.8032612     821.0222  0.013724878  0.011709112         4000 
 4986000    0.4577257   -7.8040404    820.34799  0.013710857  0.011705167         3999 
 4987000   0.45857406   -7.8023343    818.99803   0.01368555  0.011701224         3999 
 4988000   0.45197581    -7.797633    820.36524  0.013705648  0.011697284         3999 
 4989000   0.46118957   -7.7982083    818.31192  0.013668603  0.011693345         3998 
 4990000   0.46073226   -7.8211917    820.16195  0.013696759  0.011689408         3999 
 4991000   0.45508664   -7.8061764    818.64187  0.013668635  0.011685475         3999 
 4992000   0.46477835   -7.8116509    819.84236  0.013685937   0.01168154         3999 
 4993000   0.46400269   -7.8080066     819.8468   0.01368327  0.011677607         3998 
 4994000    0.4499952   -7.7934242    819.98518  0.013682839  0.011673677         3999 
 4995000   0.45397606   -7.8203211    821.23493   0.01370095  0.011669749         4000 
 4996000   0.45951795   -7.8137203    819.77941  0.013673929   0.01166582         3998 
 4997000   0.45231719    -7.799038    818.66702  0.013652642  0.011661895         3998 
 4998000   0.45444462   -7.8081527    820.05562  0.013673063  0.011657972         3998 
 4999000   0.43889162   -7.8085295    818.75268  0.013648608   0.01165405         3999 
 5000000   0.44349917   -7.8075962     820.6807  0.013678012  0.011650129         3996 
 5001000   0.45273472   -7.7970507    820.42158  0.013670959  0.011646211         3994 
 5002000   0.45006231   -7.8086503    818.08097  0.013629231  0.011642293         3999 
 5003000   0.45038419   -7.8038113    820.23227   0.01366234  0.011638379         3997 
 5004000   0.45348265   -7.8011858    820.37679  0.013662017  0.011634467         4000 
 5005000   0.45326183     -7.80016    819.83689  0.013650298  0.011630557         3999 
 5006000   0.45729143   -7.7997298    817.76477  0.013613077  0.011626647         3999 
 5007000   0.43792304   -7.8122594    819.92264  0.013646273   0.01162274         3998 
 5008000   0.45641089   -7.8113377    819.92939   0.01364366  0.011618833         4000 
 5009000   0.45194566   -7.8286935    819.70211  0.013637155  0.011614927         3999 
 5010000   0.45042489   -7.8073295    819.80735  0.013636183  0.011611024         3999 
 5011000   0.44647888   -7.7957021    820.03243  0.013637205  0.011607122         3999 
 5012000   0.44837579   -7.8120242    819.25695  0.013621591  0.011603224         3999 
Loop time of 10731 on 48 procs for 5000000 steps with 4000 atoms

Performance: 80514.306 tau/day, 465.939 timesteps/s
99.4% CPU use with 48 MPI tasks x no OpenMP threads

MPI task timing breakdown:
Section |  min time  |  avg time  |  max time  |%varavg| %total
---------------------------------------------------------------
Pair    | 636.99     | 714.22     | 748.7      |  78.7 |  6.66
Neigh   | 65.778     | 67.449     | 68.862     |   8.8 |  0.63
Comm    | 572.55     | 606.02     | 684.92     |  96.0 |  5.65
Output  | 15.772     | 15.778     | 15.871     |   0.3 |  0.15
Modify  | 9166.7     | 9208.7     | 9252.5     |  21.4 | 85.81
Other   |            | 118.9      |            |       |  1.11

Nlocal:        83.3333 ave          90 max          77 min
Histogram: 4 0 3 12 7 5 9 3 3 2
Nghost:        1752.15 ave        1771 max        1739 min
Histogram: 4 6 5 8 7 10 3 3 0 2
Neighs:        10385.8 ave       11206 max        9395 min
Histogram: 2 1 4 2 13 9 5 5 4 3
FullNghs:      20772.0 ave       22511 max       19105 min
Histogram: 4 1 4 8 9 8 4 4 5 1

Total # of neighbors = 997056
Ave neighs/atom = 249.26400
Neighbor list builds = 270113
Dangerous builds = 0

#clear
#
#next RN
#
#jump SELF
Total wall time: 2:58:54
