
units lj                  # Use reduced LJ style units
atom_style atomic         # Uncharged point particles
atom_modify map hash      # Needed for indexing of clusters etc
                          # Used to be able to find where atoms are in relation to each other.

lattice fcc 1.0 spacing 1 1 1
Lattice spacing in x,y,z = 1.5874011 1.5874011 1.5874011
region box block 0 10 0 10 0 10 units lattice
create_box 2 box
Created orthogonal box = (0.0000000 0.0000000 0.0000000) to (15.874011 15.874011 15.874011)
  3 by 4 by 4 MPI processor grid
create_atoms 1 box
Created 4000 atoms
  using lattice units in orthogonal box = (0.0000000 0.0000000 0.0000000) to (15.874011 15.874011 15.874011)
  create_atoms CPU = 0.004 seconds
set type 1 type/fraction 2 0.37 78393
Setting atom values ...
  1496 settings made for type/fraction
mass 1 1.0
mass 2 1.0
pair_style lj/cut  3.5
pair_modify tail  yes
pair_coeff 1  1  1.0  1.0   # Intearaction between 1 and 1 set with epsilon = 1 and sigma = 1
pair_coeff 1  2  1.5  0.8
pair_coeff 2  2  0.5  0.88

write_data data.0
System init for write_data ...
Neighbor list info ...
  update every 1 steps, delay 10 steps, check yes
  max neighbors/atom: 2000, page size: 100000
  master list distance cutoff = 3.8
  ghost atom cutoff = 3.8
  binsize = 1.9, bins = 9 9 9
  1 neighbor lists, perpetual/occasional/extra = 1 0 0
  (1) pair lj/cut, perpetual
      attributes: half, newton on
      pair build: half/bin/atomonly/newton
      stencil: half/bin/3d
      bin: standard
WARNING: Not all mixed pair coeffs generated from mixing. Use write_data with 'pair ij' option to store all pair coeffs. (../write_data.cpp:312)


#############################
#   M E L T   S Y S T E M   #
#############################

velocity all create 2.4 6583654 mom yes dist gaussian # Assign velocities
                                                    # Temperature 2.4, random number seed, zero linear momentum
                                                                                # Gaussian distribution

timestep 0.002   # simulation timestep
thermo 1000       # output thermodynamic data every 1000 steps bf 100

# Define a fix  in this case with index 1 applied to all
# particles in the simulation. This fix is for simulations
# in the anisotropic NPT ensemble. Note that we use the MTK
# correction.
fix 1 all npt temp 2.4 2.4 0.1 iso 5.68 5.68 0.5 mtk yes tchain 5 pchain 5 # Use NPT ensemble
                                                                         # Set temperature and pressure and damping
                                                                         # Numbers of thermostats in chain and in barostat
run 10000          # run for 10000 steps
Per MPI rank memory allocation (min/avg/max) = 3.642 | 3.644 | 3.648 Mbytes
Step Temp E_pair E_mol TotEng Press Volume 
       0          2.4   -6.0326183            0   -2.4335183   -4.1254262         4000 
    1000    2.4257767   -5.0313331            0   -1.3935777    5.5671098    3978.6275 
    2000     2.400074   -5.0618091            0   -1.4625981    5.6478321    3956.3844 
    3000    2.4308242   -5.0046959            0   -1.3593711    6.0153598    3951.9845 
    4000    2.4082138   -5.0653055            0   -1.4538878    5.4543063    3975.0331 
    5000     2.446384   -4.9846193            0   -1.3159607    5.6776422     3991.792 
    6000     2.453214   -5.0888929            0   -1.4099919    6.0362678    3915.1007 
    7000    2.4044307   -5.0100397            0   -1.4042953    5.5199624     3989.513 
    8000    2.3891506   -5.0051975            0   -1.4223675    5.7007459    3968.1584 
    9000    2.3950776   -4.9967574            0   -1.4050391    5.6972171    3982.8005 
   10000     2.373237   -5.0244756            0   -1.4655101    5.7613764    3950.0071 
Loop time of 2.53519 on 48 procs for 10000 steps with 4000 atoms

Performance: 681605.431 tau/day, 3944.476 timesteps/s
99.7% CPU use with 48 MPI tasks x no OpenMP threads

MPI task timing breakdown:
Section |  min time  |  avg time  |  max time  |%varavg| %total
---------------------------------------------------------------
Pair    | 1.1127     | 1.1707     | 1.27       |   3.2 | 46.18
Neigh   | 0.20843    | 0.21814    | 0.23672    |   1.2 |  8.60
Comm    | 0.7763     | 0.87984    | 0.94357    |   3.9 | 34.71
Output  | 0.00024844 | 0.00026167 | 0.00033846 |   0.0 |  0.01
Modify  | 0.22743    | 0.25094    | 0.2907     |   3.4 |  9.90
Other   |            | 0.01534    |            |       |  0.61

Nlocal:        83.3333 ave          93 max          75 min
Histogram: 4 3 4 6 6 16 3 2 3 1
Nghost:        1656.33 ave        1680 max        1625 min
Histogram: 1 2 2 3 12 6 8 6 5 3
Neighs:        9669.17 ave       11041 max        8563 min
Histogram: 5 4 1 10 11 7 3 3 3 1

Total # of neighbors = 464120
Ave neighs/atom = 116.03000
Neighbor list builds = 911
Dangerous builds = 242

# Equilibrate just above the melting temperature to avoid step fn in T

fix 1 all npt temp 1.25 1.25 0.1 iso 5.68 5.68 0.5 mtk yes tchain 5 pchain 5
run 2000
Per MPI rank memory allocation (min/avg/max) = 3.643 | 3.645 | 3.649 Mbytes
Step Temp E_pair E_mol TotEng Press Volume 
   10000     2.373237   -5.0244756            0   -1.4655101    5.7613764    3950.0071 
   11000    1.2619987   -7.0330716            0   -5.1405469    5.3431054    3163.4254 
   12000    1.2487016   -7.0232634            0   -5.1506793    5.9859204    3138.7284 
Loop time of 0.591677 on 48 procs for 2000 steps with 4000 atoms

Performance: 584102.345 tau/day, 3380.222 timesteps/s
99.7% CPU use with 48 MPI tasks x no OpenMP threads

MPI task timing breakdown:
Section |  min time  |  avg time  |  max time  |%varavg| %total
---------------------------------------------------------------
Pair    | 0.26272    | 0.28864    | 0.30898    |   1.8 | 48.78
Neigh   | 0.039931   | 0.041714   | 0.043905   |   0.5 |  7.05
Comm    | 0.19164    | 0.21137    | 0.23984    |   2.3 | 35.72
Output  | 5.3326e-05 | 5.4671e-05 | 7.2122e-05 |   0.0 |  0.01
Modify  | 0.040052   | 0.045163   | 0.050286   |   1.4 |  7.63
Other   |            | 0.004735   |            |       |  0.80

Nlocal:        83.3333 ave          90 max          77 min
Histogram: 5 1 3 9 9 2 11 3 3 2
Nghost:        1932.27 ave        1955 max        1906 min
Histogram: 3 1 3 7 5 8 8 8 3 2
Neighs:        12178.7 ave       13472 max       10749 min
Histogram: 2 2 8 4 6 6 5 6 7 2

Total # of neighbors = 584577
Ave neighs/atom = 146.14425
Neighbor list builds = 144
Dangerous builds = 9

#############################
# L I N E A R  Q U E N C H  #
#############################

# Define solid atoms. This closely follows ten Wolde  Ruiz-Montero and Frenkel  Faraday Discuss  1996  104  93-110
# Compute components of the per-atom q6 vector
compute q6 all orientorder/atom degrees 1 6 components 6 nnn NULL cutoff 1.3 # compute the Q6 parameter.
                                                                             # Use all neighbours within 1.3 unit cell.

# get number of connections
compute coord_number all coord/atom orientorder q6 0.5

# An atom is solid if it has 8 or more connections (of a possible 14)
variable is_solid atom c_coord_number>=8
group solid dynamic all var is_solid    # Must be dynamic to update
dynamic group solid defined

# do clustering
compute cluster solid cluster/atom 1.3 # Create a cluster where all atoms within are solid and max 1.3 units from another member

# define chunks one chunk per cluster
compute clus_chunks solid chunk/atom c_cluster nchunk every compress yes  # Says which atoms are in which chunk

# count the size of each chunk
compute size_chunks solid property/chunk clus_chunks count


# Find the maximum entry in the vector of chunk sizes
variable max_n equal max(c_size_chunks)


# Thermo style which includes this variable
# thermo_style custom step temp pe vol v_max_n

thermo ${N}  # Print the thermo information every 100 steps
thermo 1000  

# Reset the npt fix at a lower temperature (below freezing)
fix 1  all npt temp  ${temp} ${temp}  0.1  iso  5.68  5.68  0.5  mtk yes tchain  5  pchain  5
fix 1  all npt temp  0.45 ${temp}  0.1  iso  5.68  5.68  0.5  mtk yes tchain  5  pchain  5
fix 1  all npt temp  0.45 0.45  0.1  iso  5.68  5.68  0.5  mtk yes tchain  5  pchain  5

dump dmp2 all dcd ${N} traj.dcd
dump dmp2 all dcd 1000 traj.dcd


compute msd all msd com yes
variable twopoint equal c_msd[4]/6/(step*dt+1.0e-6)
fix 9 all vector 10 c_msd[4]
variable fit equal slope(f_9)/6/(10*dt)
thermo_style custom step temp pe c_msd[4] v_twopoint v_fit v_max_n

fix 1 all npt temp 1.25 ${temp} 0.1 iso 5.68 5.68 0.5 mtk yes tchain 5 pchain 5
fix 1 all npt temp 1.25 0.45 0.1 iso 5.68 5.68 0.5 mtk yes tchain 5 pchain 5
run 5000000 # 5000000  # Run for this many steps
Neighbor list info ...
  update every 1 steps, delay 10 steps, check yes
  max neighbors/atom: 2000, page size: 100000
  master list distance cutoff = 3.8
  ghost atom cutoff = 3.8
  binsize = 1.9, bins = 8 8 8
  4 neighbor lists, perpetual/occasional/extra = 1 3 0
  (1) pair lj/cut, perpetual
      attributes: half, newton on
      pair build: half/bin/atomonly/newton
      stencil: half/bin/3d
      bin: standard
  (2) compute orientorder/atom, occasional
      attributes: full, newton on
      pair build: full/bin/atomonly
      stencil: full/bin/3d
      bin: standard
  (3) compute coord/atom, occasional
      attributes: full, newton on
      pair build: full/bin/atomonly
      stencil: full/bin/3d
      bin: standard
  (4) compute cluster/atom, occasional
      attributes: full, newton on
      pair build: full/bin/atomonly
      stencil: full/bin/3d
      bin: standard
Per MPI rank memory allocation (min/avg/max) = 9.820 | 9.826 | 9.830 Mbytes
Step Temp PotEng c_msd[4] v_twopoint v_fit v_max_n 
   12000    1.2487016   -7.0232634 1.8076748e-30 1.2553296e-32 8.3333333e+20            1 
   13000     1.262367   -7.0122534   0.49525512 0.0031747122   0.04049234            1 
   14000    1.2595674   -7.0101956   0.92535273 0.0055080518   0.03740525            1 
   15000    1.2429955   -7.0492817    1.3791642  0.007662023  0.037705069            1 
   16000    1.2467438   -7.0813738    1.8622769 0.0096993585  0.037966235            1 
   17000    1.2330082   -7.0307684    2.3458633  0.011499329  0.038556779            1 
   18000    1.2506105   -7.0415428    2.8129404  0.013022872  0.038730652            1 
   19000    1.2612364   -7.0121768     3.304463  0.014493258  0.038895565            2 
   20000    1.2820471   -7.0304454    3.7346751  0.015561146   0.03908648            1 
   21000    1.2479733   -6.9997667    4.2007336  0.016669577  0.038959329            1 
   22000    1.2406275    -7.054609    4.6937091  0.017779201  0.038944027            1 
   23000    1.2269431   -7.0565837    5.1204027  0.018552183  0.038936251            4 
   24000    1.2121215   -7.0482771    5.5318126  0.019207682  0.038765305            4 
   25000    1.2226789   -7.0578806    5.9522559  0.019840853  0.038533831            2 
   26000    1.2566946    -7.102767     6.342884  0.020329756  0.038205236            1 
   27000    1.2379059    -7.057973    6.7469592  0.020823948  0.037920847            2 
   28000    1.2193443   -7.0054299    7.0930094  0.021110147  0.037569346            2 
   29000    1.2438933   -7.0619994    7.5022825  0.021558283  0.037202241            1 
   30000     1.285152    -7.025648    7.9760742  0.022155761   0.03691695            1 
   31000    1.2532457   -7.0892302    8.2239283  0.022107334  0.036611924            2 
   32000     1.236194   -7.0410602    8.6158921  0.022437219  0.036222445            2 
   33000    1.2700538   -7.0854919    9.0046935  0.022739125  0.035910901            2 
   34000    1.2332529   -7.0229018    9.4013051  0.023042414  0.035666493            2 
   35000    1.2296228   -7.1124179    9.8769364  0.023516515  0.035499127            1 
   36000    1.2569648   -7.0278198    10.351586  0.023962003  0.035374079            1 
   37000    1.2404382   -7.0275606     10.81009   0.02434705   0.03532672            1 
   38000     1.247046   -7.0465586    11.235726  0.024639749  0.035286327            3 
   39000    1.2414082   -7.0817753    11.693554  0.024986226  0.035272236            1 
   40000    1.2287078   -7.0297493    12.089042  0.025185504  0.035288727            1 
   41000    1.2732446   -7.0726523     12.53225  0.025472053  0.035270523       -1e+20 
   42000    1.2431687    -7.080712    12.876375  0.025548363  0.035253483            1 
   43000     1.236612   -7.0354558    13.344931   0.02586227  0.035235019            1 
   44000    1.2407935   -7.0596933    13.796712  0.026130137  0.035229131            1 
   45000    1.2354074   -7.0806285    14.243096  0.026376104  0.035255761            1 
   46000    1.2862751   -7.0363024    14.679771  0.026593788  0.035264611            1 
   47000    1.2525516   -7.0763098    15.114174   0.02679818  0.035275763            1 
   48000    1.2608285   -7.0804888    15.526908  0.026956436  0.035279282            1 
   49000    1.2527675   -7.1132479    15.949917  0.027125709  0.035284275            2 
   50000    1.2187246   -7.0869561    16.363476  0.027272461  0.035287086            1 
   51000    1.2539381   -7.0808338    17.007118  0.027789408   0.03532466            2 
   52000    1.2420802   -7.0177003    17.464057  0.027987271  0.035389389            3 
   53000    1.2461244     -7.10258    17.757328  0.027920327  0.035439675            1 
   54000    1.2200683   -7.0826869    18.333306  0.028292139  0.035484946            1 
   55000    1.2644837   -7.0093535    18.681469  0.028305256  0.035531733            1 
   56000    1.2722039   -7.0693242    19.003944  0.028279678  0.035559088            1 
   57000    1.2511495    -7.025663    19.413063  0.028381671  0.035568224            4 
   58000    1.2596733   -7.0807975    19.804607  0.028454895  0.035565125            1 
   59000    1.2686167   -7.0477533    20.309931  0.028686343  0.035571932            2 
   60000    1.2264015   -7.1142193    20.611925  0.028627673  0.035569196            1 
   61000    1.2518088   -7.0828387     21.05897  0.028769085  0.035549403            1 
   62000    1.2378877   -7.0370776    21.510319  0.028911719  0.035538799            1 
   63000     1.242452   -7.0631685    21.851769  0.028904456   0.03553005            2 
   64000     1.258729   -7.0909975    22.338428  0.029086495  0.035523499            1 
   65000    1.2518746   -7.0983459    22.732724  0.029144518  0.035516881            1 
   66000    1.2055674   -7.1285056    22.971356  0.029004237  0.035507704            2 
   67000     1.255214   -7.0274188    23.582412  0.029331358  0.035489803       -1e+20 
   68000       1.2464   -7.0851226    23.812321  0.029181766  0.035472012            1 
   69000    1.2170399    -7.089214    24.353382  0.029412297  0.035452867            3 
   70000    1.2354853    -7.044104    24.764595  0.029481661  0.035436589            2 
   71000     1.276203   -7.0630101    25.099326  0.029459302  0.035414612            2 
   72000    1.2317909   -7.0729691    25.588352  0.029616148  0.035397987            1 
   73000    1.2378563   -7.0782584     26.10149  0.029796222  0.035395685            3 
   74000    1.2415176   -7.1011647    26.672884  0.030037031  0.035395522            1 
   75000    1.2560265   -7.0826614    27.255197  0.030283552  0.035413856            2 
   76000     1.254959    -7.130171    27.692389  0.030364461  0.035445259            2 
   77000    1.2362841   -7.0748753    27.964499  0.030264609   0.03546221            2 
   78000     1.235687   -7.1111023    28.268516  0.030201406  0.035471383            4 
   79000    1.2145202   -7.0800081    28.716712   0.03029189  0.035467276            2 
   80000    1.2290397   -7.0769179    29.186648  0.030402759  0.035462193            1 
   81000    1.2749647   -7.0489894    29.533604  0.030384366  0.035458823            2 
   82000    1.2636119   -7.0777411    29.942838  0.030429713  0.035454532            1 
   83000    1.2294176   -7.0910865    30.401513  0.030523608   0.03545311            1 
   84000    1.2664029   -7.0333541    30.938332   0.03069279  0.035457354            1 
   85000    1.2376625   -7.0817671    31.226789  0.030614499  0.035457472            1 
   86000    1.2314195   -7.0877574     31.76582  0.030780833  0.035456692            3 
   87000    1.2314635   -7.0641406    32.024536  0.030674843  0.035453977            1 
   88000    1.2423943   -7.0544697    32.373345  0.030656576  0.035443101            2 
   89000    1.2408175   -7.0481552     32.82243  0.030732612  0.035427497            1 
   90000    1.2479628   -7.1085084     33.20803  0.030748176  0.035418418            4 
   91000    1.2412142   -7.0933326     33.54883  0.030722371  0.035403758            2 
   92000    1.2094573   -7.0472837    33.953954  0.030755393  0.035386872            2 
   93000    1.2411007   -7.0788051    34.305838  0.030739998   0.03536509            2 
   94000    1.2647447    -7.113074    34.518037  0.030601096  0.035335244            2 
   95000    1.2282277    -7.091863    34.996131   0.03069836  0.035304642            3 
   96000    1.2184115   -7.0839228    35.564687  0.030872124  0.035279726            1 
   97000    1.2420575    -7.084399    36.162085  0.031067083  0.035257176            5 
   98000    1.2246654   -7.1134567    36.421689  0.030970824  0.035236882            2 
   99000    1.2463399   -7.0820403    36.712597  0.030902859  0.035216361            2 
  100000     1.219452    -7.080356    37.138611  0.030948842  0.035190832            1 
  101000     1.244088   -7.0809953    37.420478  0.030874982  0.035165526            1 
  102000    1.2606849    -7.154237    37.795802  0.030878923  0.035142865            2 
  103000    1.2377053   -7.0531315    38.417946  0.031082481  0.035122884            2 
  104000    1.2143434   -7.0895214    38.754556   0.03105333  0.035103188            1 
  105000    1.2448994    -7.068478    39.260394  0.031159042  0.035083547            2 
  106000    1.2329025   -7.0752384    39.672261  0.031188885  0.035070909            1 
  107000    1.2120106   -7.1123519    40.216582  0.031321326  0.035065049            1 
  108000    1.2262234   -7.1213725     40.53329  0.031275686  0.035053959            1 
  109000    1.2398693   -7.1209704    40.808395  0.031199079  0.035036752            2 
  110000    1.2238627   -7.0996777    41.426593  0.031383782  0.035030734            1 
  111000    1.2251047   -7.0715437    42.080768  0.031592168  0.035026941            2 
  112000    1.2446358   -7.0707791    42.523196  0.031639282  0.035028168            1 
  113000    1.2360983   -7.1160494    42.716195  0.031501619  0.035027937            3 
  114000    1.2249383   -7.0872086    43.238679  0.031607221  0.035022752            1 
  115000    1.2395879   -7.0992032    43.584797  0.031583186  0.035019556            1 
  116000    1.2425691   -7.1175272    43.892977  0.031532311  0.035018603            1 
  117000     1.236133    -7.093368    44.657328  0.031807214  0.035020789            1 
  118000    1.2337584   -7.1074397     45.19221  0.031915403  0.035028723            2 
  119000    1.2455881   -7.1013606    45.548057  0.031896398  0.035036914            1 
  120000    1.2204142   -7.0918357    46.061822  0.031987377  0.035050986            1 
  121000     1.251875   -7.1186856    46.509664  0.032031449  0.035063832            2 
  122000    1.2316108    -7.085586    46.945171  0.032066373  0.035073538            1 
  123000    1.2101132   -7.0967582     47.35334  0.032082209  0.035084616            1 
  124000    1.2244368   -7.0986353    47.889503  0.032183805  0.035100208            1 
  125000    1.2586694   -7.0798635    48.383397  0.032255598  0.035115655            1 
  126000    1.2501391   -7.0854081     48.55806  0.032115119  0.035124795            1 
  127000    1.2206526   -7.0998814    48.888534   0.03207909  0.035135821            2 
  128000    1.2365933    -7.085802    49.307735   0.03210139  0.035142333            4 
  129000    1.2194093   -7.1218004    49.716291  0.032116467  0.035144662            1 
  130000    1.2339929   -7.0939575    50.057578  0.032088191  0.035145122            2 
  131000    1.2333978   -7.0798979    50.326984  0.032014621    0.0351445            2 
  132000    1.2303876   -7.1051775    50.611232  0.031951535  0.035134173            1 
  133000    1.2437447   -7.0674187    51.022725  0.031969126  0.035121821            1 
  134000     1.236529    -7.098189    51.224513   0.03185604  0.035111714            1 
  135000    1.2403479   -7.0925499    51.929069  0.032054981   0.03509983            1 
  136000    1.2421841   -7.0923689    52.083063  0.031913642  0.035086775            2 
  137000    1.2129844    -7.077167    52.550045  0.031964748  0.035073783            1 
  138000    1.2366002   -7.0824985    53.063081  0.032042923  0.035060306            1 
  139000     1.219621   -7.0732439    53.638894   0.03215761  0.035048295            2 
  140000    1.2016827   -7.0998261      53.8871  0.032075654  0.035036649            1 
  141000    1.2085497   -7.1175346    54.213285  0.032040948  0.035019921            3 
  142000    1.2175162    -7.071007    54.420974  0.031937191  0.035004151            1 
  143000    1.2452433   -7.0910229    54.778665  0.031922299  0.034988727            2 
  144000    1.2302948   -7.0966721    55.410089  0.032066024  0.034975554            1 
  145000    1.2356734   -7.0774489    55.725802  0.032026323  0.034962606            2 
  146000    1.2171243   -7.0946562    56.119086  0.032031441  0.034948281            1 
  147000    1.2495143   -7.1229311    56.522161  0.032042041  0.034933533            1 
  148000    1.2420104   -7.1085249    56.844772  0.032007191  0.034916616            2 
  149000    1.1931363   -7.0980344    57.314811  0.032055263  0.034898893            1 
  150000    1.2463288   -7.0979859    57.617533   0.03200974  0.034881313            1 
  151000    1.2266599   -7.0941372    57.978632  0.031997038  0.034864747            2 
  152000    1.1960511   -7.0847452    58.491469  0.032067691  0.034848382            1 
  153000    1.2146009   -7.1017698    58.795711  0.032023808  0.034834369            1 
  154000    1.2088097   -7.1380466    59.268713  0.032071814  0.034819373            2 
  155000     1.232873   -7.1026533    59.807257  0.032154439  0.034810073            3 
  156000    1.2213147   -7.0750404    60.219624  0.032168602  0.034798147            1 
  157000     1.231247   -7.0955996     60.42661  0.032073572  0.034782659            2 
  158000    1.2413884   -7.0662119    60.840874  0.032089069  0.034765397            3 
  159000    1.2321364   -7.0916857    61.377437  0.032168468  0.034751057            1 
  160000    1.2507439   -7.1057465    61.864849  0.032221276   0.03473943            1 
  161000    1.2162409   -7.1119961    62.222955  0.032206498  0.034732198            2 
  162000    1.2406943   -7.0784406    62.719045  0.032262883  0.034726126            1 
  163000    1.2003242   -7.0868735    63.471365  0.032449573  0.034719236            2 
  164000    1.2412357   -7.0881389    64.063767  0.032552727   0.03471656            3 
  165000    1.2106501   -7.1097844    64.376027  0.032513145  0.034717351            1 
  166000      1.24054   -7.0908101    64.462527  0.032360706  0.034716101            1 
  167000    1.2135243   -7.1562359    64.511317  0.032191276  0.034707372            1 
  168000     1.239761    -7.124546    65.160685  0.032321768   0.03469783            1 
  169000    1.2318257   -7.1147052    65.363071  0.032230311  0.034688163            1 
  170000     1.215933   -7.1012296    65.757954  0.032234291   0.03467729            1 
  171000    1.2062332   -7.1104981    66.340762  0.032329806   0.03466935            2 
  172000    1.2010481    -7.106036    66.624748  0.032279432  0.034657513            1 
  173000    1.2454438   -7.1066158    66.873562  0.032212698   0.03464291            2 
  174000    1.2314377   -7.1117941    67.362774  0.032261865  0.034630021            3 
  175000    1.2338765   -7.0898101    68.083597  0.032420761  0.034621814            1 
  176000    1.1858602   -7.1409558    68.430866  0.032400978  0.034613835            1 
  177000    1.2207839    -7.101447    68.996988  0.032484457  0.034607458            2 
  178000    1.2211921   -7.0764576    69.644562  0.032605132  0.034602698            2 
  179000    1.2286448   -7.1081701    69.698843  0.032448251    0.0346018            1 
  180000    1.2596559   -7.1260734    70.254932  0.032525431  0.034597758            1 
  181000    1.2241213   -7.1541122    70.578458  0.032494686  0.034593178            1 
  182000    1.2382779   -7.1115008    71.090966  0.032550809  0.034588524            1 
  183000    1.2325016   -7.0730113     71.46938  0.032545255  0.034585129            5 
  184000    1.2073505   -7.0979675    71.721321  0.032482482  0.034580028            1 
  185000    1.2481272   -7.1421971    71.889049  0.032382454  0.034573491            1 
  186000    1.2135804   -7.1313404    72.089183  0.032298021  0.034565057            1 
  187000    1.2159751   -7.0944945    72.909448  0.032490841  0.034557601            1 
  188000    1.2086173   -7.0921262    72.867888  0.032299596  0.034548348            1 
  189000    1.2132249   -7.0822728    73.484335    0.0324005  0.034538865            2 
  190000    1.2022823   -7.1119398    74.000621  0.032456413  0.034533385            1 
  191000    1.2178559   -7.0660825    74.598178  0.032547198  0.034526149            2 
  192000    1.2028116    -7.139395      74.4846  0.032328385  0.034518529            1 
  193000    1.2290292   -7.1258424    75.096331  0.032425013  0.034507383            2 
  194000    1.2381698   -7.0384476    75.974449  0.032635073  0.034500301            2 
  195000    1.1863893   -7.1397144    75.830461   0.03240618  0.034493453            2 
  196000    1.2234541   -7.0802898    76.515003  0.032531889  0.034486117            1 
  197000    1.2209231   -7.1068062    77.043111  0.032590149  0.034479347            1 
  198000    1.2107613   -7.0974363    77.315902  0.032540363  0.034473755            1 
  199000    1.2196161   -7.0856105    77.870727  0.032609182  0.034470161            1 
  200000    1.2401888   -7.1078782      78.1368     0.032557  0.034466982            2 
  201000    1.1861874   -7.0986398    78.834434  0.032684259  0.034463408            1 
  202000    1.2385967   -7.0451309    79.197676  0.032672308  0.034460797            2 
  203000    1.2478096   -7.1243352    79.390111  0.032590358  0.034458006            1 
  204000    1.1997423   -7.1232927    79.360821  0.032418636  0.034451229            2 
  205000    1.2237223   -7.0933872    80.015461   0.03252661  0.034441724            2 
  206000    1.2095212   -7.1638868    80.055579  0.032384943  0.034433058            2 
  207000    1.2039349   -7.1281137    80.435086  0.032381275  0.034425392       -1e+20 
  208000     1.228006   -7.0975246    81.200304  0.032532173  0.034415951            1 
  209000    1.2134137   -7.1174176    81.158999  0.032360047  0.034404678            1 
  210000    1.2214252      -7.0901    81.694546   0.03241847  0.034394108            2 
  211000        1.195   -7.1280705    82.006235  0.032387928  0.034381068            2 
  212000    1.2191026    -7.127727    82.349624  0.032370135   0.03436933            2 
  213000    1.2236634    -7.103929    82.758031  0.032377946   0.03435801            3 
  214000    1.2296317   -7.0970053    83.104194  0.032361446  0.034346271            1 
  215000    1.1846875   -7.1203129    82.994037  0.032168231  0.034332769            1 
  216000    1.2140476   -7.0919782    83.781679  0.032323178  0.034318234            1 
  217000    1.2451796    -7.139398    83.725507  0.032152652  0.034304537            2 
  218000    1.2439262   -7.1609818    84.320454  0.032232589  0.034287839            1 
  219000    1.2096551   -7.1225009    84.963627  0.032330147  0.034273366            1 
  220000    1.2082467   -7.1187737    85.294604  0.032308562  0.034259775            1 
  221000    1.2384581   -7.1273564    85.390703  0.032198606  0.034246011            2 
  222000    1.1898935   -7.0998972    86.009728  0.032285934   0.03423085            1 
  223000    1.2190234   -7.1393189    86.141947  0.032190563  0.034214507            1 
  224000    1.2147646   -7.1288979    86.357664  0.032127107  0.034197901            2 
  225000    1.2198046   -7.0957297    87.063351  0.032245685  0.034182317            3 
  226000    1.2398708    -7.106425    86.982305  0.032073121  0.034166767            1 
  227000    1.2347931    -7.141665    87.305397  0.032050439  0.034150461            2 
  228000    1.2344923   -7.1152513     88.19382  0.032234583  0.034134411            3 
  229000    1.2084946   -7.1136329    88.436552  0.032182151  0.034120089            2 
  230000    1.2230802   -7.0808537    89.266854  0.032343063  0.034107175            2 
  231000    1.2285082   -7.1367803    89.700815  0.032359601  0.034094993            2 
  232000    1.2368203   -7.1384475    89.797555  0.032254869  0.034084417            2 
  233000    1.2134771   -7.1536611    90.586445  0.032398585  0.034073686            2 
  234000    1.2129036   -7.1605594    90.708151  0.032303473  0.034063449            1 
  235000    1.2314081    -7.110967    91.328987  0.032386165  0.034055353            5 
  236000    1.2276912   -7.1592734    91.736066  0.032392679  0.034047192            2 
  237000    1.1999073   -7.0933292    92.565462  0.032547631   0.03403957            1 
  238000    1.2518554   -7.1495032    92.766223  0.032481171  0.034032314            1 
  239000    1.2164404   -7.1212977    92.899294  0.032391664  0.034026143            2 
  240000    1.2151294   -7.1627333    93.208572  0.032364087  0.034018991            1 
  241000    1.1861176   -7.1319973    94.028374  0.032513269  0.034010318            1 
  242000    1.2267296   -7.1231041    94.423627  0.032515023  0.034003159            1 
  243000    1.2009261   -7.1609137    94.474226  0.032398568  0.033996222            1 
  244000    1.2004908    -7.130351    94.747654  0.032359171  0.033987344            2 
  245000    1.1946347    -7.120396    95.231976  0.032391829  0.033977747            1 
  246000    1.2118852   -7.1404437    95.566826  0.032373586  0.033969663            1 
  247000    1.2249196   -7.0969893    96.154852  0.032440908  0.033963381            1 
  248000    1.2213535   -7.1157543    96.700136  0.032493325   0.03395869            1 
  249000    1.2028247   -7.1499455    96.692267  0.032360196  0.033952579            1 
  250000    1.2160428    -7.038325    97.942859   0.03264762  0.033947398            2 
  251000    1.1954255   -7.1448517    97.690113  0.032433636  0.033941301            1 
  252000    1.2155454   -7.1623341    98.027722  0.032416575   0.03393439            2 
  253000     1.228237   -7.1205474    98.064181  0.032300455  0.033926265            2 
  254000     1.216811   -7.0999349    99.123981  0.032520991   0.03391723            1 
  255000    1.2153096   -7.1144608    99.759268  0.032601068  0.033910491            1 
  256000    1.2195613   -7.1390343    99.894392  0.032517706  0.033905496            2 
  257000    1.2050726   -7.2022442     99.99537   0.03242392  0.033901603            1 
  258000    1.1836945   -7.1223284    100.63083  0.032503498   0.03389705            1 
  259000    1.2345653   -7.1455019     101.1096  0.032532045  0.033893676            2 
  260000    1.2126032   -7.1457292     102.2259  0.032764712  0.033893995       -1e+20 
  261000    1.2115843   -7.1279137    102.69985  0.032790501  0.033894575            2 
  262000    1.2179985   -7.1308815    103.21897  0.032830462  0.033896112            1 
  263000    1.1609531    -7.164017    103.12143  0.032674723  0.033897375            1 
  264000     1.213189   -7.1529671    104.05766  0.032846485   0.03389828            1 
  265000    1.2159799   -7.1246028    104.47376  0.032853383  0.033899439            1 
  266000    1.1971338   -7.1124023    105.19306   0.03295522  0.033902289            2 
  267000    1.2164196   -7.1272624    105.34509  0.032879242  0.033904364            2 
  268000    1.2382126   -7.1676519    105.43983  0.032786016  0.033906775            2 
  269000    1.2043861   -7.1337259    105.70363  0.032745858  0.033909654            1 
  270000    1.2199033   -7.1218956    106.28058  0.032802649  0.033910077            1 
  271000    1.2192174   -7.1736728    106.38206  0.032712811  0.033910838            1 
  272000    1.2104327   -7.1397096    106.97161  0.032773163  0.033912317            2 
  273000    1.2006778   -7.1323455    107.74747  0.032889949  0.033914554            2 
  274000    1.1818429   -7.0956113     108.3745  0.032960614  0.033917494            2 
  275000    1.2020226   -7.1293302    108.62983  0.032918129  0.033919415            2 
  276000    1.2206258   -7.1153024    109.13584  0.032951642  0.033922309            2 
  277000    1.2098452   -7.1553731    109.75592  0.033019231  0.033925952            1 
  278000     1.202732   -7.1116376    109.98859    0.0329702  0.033929612            5 
  279000    1.1881261   -7.1025665    110.33806  0.032956409  0.033931735            2 
  280000    1.2235587   -7.1161993    110.78517  0.032971776  0.033932725            1 
  281000    1.2087386   -7.1599365    110.96146   0.03290672  0.033934877            1 
  282000    1.1714675    -7.139337    111.24038  0.032872453  0.033936606            2 
  283000    1.2227162   -7.1478138    111.74113  0.032903748  0.033938265            2 
  284000    1.2038556   -7.2056243    111.41285  0.032691563  0.033938285            2 
  285000    1.2236487   -7.1428052    112.34315  0.032848875  0.033937139            1 
  286000     1.196726   -7.1985213    112.49519  0.032778317  0.033935225            1 
  287000    1.1921911    -7.137308    112.99248  0.032808503  0.033934689            1 
  288000    1.1803725   -7.1503777    113.38753  0.032808891  0.033933259            1 
  289000     1.184326   -7.1177133    114.06515  0.032890758  0.033932002            2 
  290000    1.2057359   -7.1559946    114.42589  0.032881002  0.033930404            1 
  291000    1.2115756    -7.189668    114.18236  0.032698271  0.033928323            1 
  292000    1.2130525   -7.1482805    114.69573  0.032732799  0.033927009            2 
  293000    1.2201688   -7.1477678    115.84734  0.032948617  0.033926681            2 
  294000    1.2037688   -7.1455789    115.89611  0.032850372  0.033925653            1 
  295000    1.2139689   -7.1371345     116.2811  0.032847768  0.033925895            5 
  296000    1.2165179   -7.1391319    116.57289  0.032818945  0.033924615            4 
  297000    1.1890587   -7.1798417    117.08659  0.032852579  0.033923733            1 
  298000    1.2062276   -7.1287558    117.54296  0.032869954   0.03392316            3 
  299000    1.2377304   -7.1556535    117.38583   0.03271623   0.03392066            2 
  300000    1.2072263   -7.1363018    118.01381  0.032781613  0.033918242            2 
  301000    1.1653061   -7.1491405    118.33544  0.032761749  0.033915636            1 
  302000    1.1893102   -7.1837235    118.86341  0.032798954  0.033913829            2 
  303000    1.1979835   -7.1226999    119.23345  0.032792479  0.033911329            1 
  304000    1.2083124   -7.1554822    119.46185  0.032747216  0.033908959            1 
  305000    1.1791574   -7.1874482    119.80822  0.032734487  0.033906237            3 
  306000    1.1993202   -7.1687369    120.13137  0.032715515  0.033902658            2 
  307000    1.2082406   -7.1595492    119.85803  0.032534753  0.033897897            3 
  308000    1.1891935   -7.1367068    120.48715  0.032599337  0.033892742            1 
  309000    1.2089156   -7.1544614    120.93696  0.032615145  0.033887552            2 
  310000    1.2042507   -7.1739606    121.25886  0.032596468  0.033882624            3 
  311000    1.2269188   -7.1271985    121.96063  0.032679696  0.033876214            2 
  312000    1.1893672   -7.1438788    121.93987   0.03256941  0.033869358            2 
  313000    1.2085663   -7.1201047    122.16959  0.032526515   0.03386183            2 
  314000    1.1904707   -7.1300151    122.61072  0.032539999  0.033854378            1 
  315000    1.2088993    -7.177656    123.19485   0.03259123  0.033846269            1 
  316000    1.2036008   -7.1642772    123.10269  0.032463789  0.033838769            2 
  317000    1.2202809   -7.1533181    123.30268  0.032413955  0.033830655            2 
  318000    1.1957277   -7.1630894    123.42224  0.032343355  0.033820213            2 
  319000    1.1932394   -7.1373098    124.30768   0.03247327  0.033809831            2 
  320000    1.1890536   -7.1547178    124.49817  0.032421399  0.033801135            2 
  321000    1.1838228   -7.1724533    124.92825  0.032432047  0.033792466            2 
  322000    1.1953372   -7.1369503    125.11944  0.032380808  0.033783474            3 
  323000    1.1984853   -7.1689128    125.54782  0.032391079  0.033773458            2 
  324000     1.219487   -7.1734269    126.08508   0.03242929  0.033764446            1 
  325000     1.186732   -7.1589848    126.46628  0.032427251  0.033755116            1 
  326000    1.1889037   -7.1720549    126.58813  0.032358929  0.033746221            1 
  327000    1.2009044   -7.1374583    127.63831  0.032527603  0.033736596            1 
  328000     1.205051   -7.1428833     127.9457  0.032506529  0.033728489            2 
  329000    1.1959429   -7.2035367    127.53205  0.032302952  0.033719981            1 
  330000    1.1631543    -7.146615    128.50666  0.032451176  0.033710515            2 
  331000    1.2219503   -7.1505367    127.85582  0.032189279  0.033700557            1 
  332000    1.2100717   -7.1664422    128.02558  0.032134935  0.033689187            3 
  333000    1.2129689   -7.1656435    128.66858  0.032199345  0.033676808            3 
  334000    1.1996697   -7.1972423    129.10097  0.032210821  0.033663658            1 
  335000    1.1962325   -7.1376704     129.2846  0.032160349  0.033650695            2 
  336000    1.2156638   -7.1900375    128.89022   0.03196682  0.033637889            1 
  337000    1.1786987   -7.1609926    129.98214  0.032141973  0.033625843            3 
  338000    1.1973298   -7.1822529    130.60578  0.032200635  0.033613892            1 
  339000      1.22388   -7.1988247    131.63156  0.032357807   0.03360391            1 
  340000    1.1755516   -7.1468434     131.8642  0.032319656  0.033594706            1 
  341000    1.2051304    -7.112744    132.74268  0.032439561   0.03358541            1 
  342000    1.2042398   -7.1318254    132.58943  0.032307365  0.033575727            1 
  343000    1.2054755   -7.1943511    132.26011  0.032133167  0.033565752            2 
  344000    1.1914832   -7.1495182    133.19213  0.032265536  0.033554853            1 
  345000     1.200321   -7.1663799    133.22209  0.032179249  0.033543728            2 
  346000    1.2230759    -7.206246     133.3416  0.032115028  0.033532935            1 
  347000    1.1705648   -7.1697226     134.1374  0.032213592  0.033523308            2 
  348000    1.1889295   -7.1819025    135.10068  0.032351696  0.033514144            3 
  349000    1.2171345   -7.1899048    135.27403   0.03230039  0.033505604       -1e+20 
  350000    1.1950294   -7.1352353    135.75882   0.03232353  0.033496434            1 
  351000    1.2117226   -7.1876721    135.50042   0.03217009  0.033486808            2 
  352000    1.2180578    -7.201765    135.96882  0.032189588  0.033477233            3 
  353000    1.2057309   -7.1337056    136.58131  0.032242992  0.033468126            1 
  354000    1.2009717   -7.1853533     137.1361   0.03228251  0.033458838            2 
  355000    1.1877644   -7.1924384    137.55907  0.032290861  0.033449796            1 
  356000    1.1892207   -7.1707588    137.86715  0.032272272  0.033439748            2 
  357000     1.208561   -7.1499104    137.87884  0.032184603  0.033429898            1 
  358000    1.1967842   -7.2204278     137.5781  0.032024697  0.033420176            1 
  359000    1.1790702   -7.1762134    138.69701  0.032195221  0.033410347            3 
  360000    1.1832736   -7.2135547    138.52976  0.032067073  0.033400611            3 
  361000    1.2130546   -7.1650289    139.76183  0.032262656  0.033391314            5 
  362000    1.1773201   -7.2051543    139.94176  0.032214955  0.033383551            1 
  363000    1.1718233   -7.1705876    140.69444     0.032299  0.033376372            3 
  364000    1.1915265   -7.1786381    141.56015   0.03240846  0.033369394            1 
  365000    1.1920008   -7.1175387    142.36634  0.032503731  0.033363835            1 
  366000     1.202143   -7.1647665    141.89296  0.032307139  0.033359073            1 
  367000    1.2075564   -7.1780896    142.66701  0.032394871   0.03335328            2 
  368000    1.2060826   -7.1749946     142.6224  0.032296739  0.033347144            1 
  369000    1.1862682   -7.1991271    143.10528  0.032318266  0.033341108            1 
  370000    1.2127358   -7.1656085     143.7965  0.032386599  0.033335977            2 
  371000    1.2041113   -7.1603153    144.62595  0.032485613  0.033331101            1 
  372000    1.2146319   -7.1501376    145.00355  0.032482874  0.033326266            3 
  373000    1.1721407   -7.2258874    144.59222  0.032303892  0.033320185            1 
  374000    1.2027525   -7.1651874    145.45739  0.032410292  0.033313904            2 
  375000    1.2201637    -7.171648    145.65888   0.03236864  0.033308078            1 
  376000    1.2157084   -7.1707189    146.02039  0.032362675  0.033302189            2 
  377000    1.1982724   -7.2108084    146.18381  0.032312955  0.033296203            1 
  378000    1.1933603   -7.1871411    146.62088  0.032323828   0.03328994            1 
  379000    1.1948435   -7.1542481    147.30984  0.032390027  0.033284991            2 
  380000    1.1840033   -7.1873891    147.36059  0.032315919  0.033279918            2 
  381000    1.1886767   -7.1523432     148.1699  0.032408114  0.033274931            2 
  382000    1.2039668   -7.1510081    148.80173  0.032461111  0.033270053            4 
  383000     1.194321   -7.1921541    148.63747  0.032340616  0.033265645            1 
  384000    1.1962593   -7.1464136    149.16953  0.032371859  0.033260434            2 
  385000    1.1744906   -7.1543753    149.22363  0.032299488  0.033254716            1 
  386000    1.1710087   -7.1666606     149.9853  0.032380245   0.03324899            2 
  387000    1.1825481   -7.1704718    150.11068  0.032323574  0.033242585            1 
  388000    1.1883709   -7.1276636    150.50245   0.03232441  0.033236723            1 
  389000    1.1933325   -7.1824344    150.43849  0.032227612   0.03323066            1 
  390000    1.1650964   -7.1827308    151.26001  0.032320514  0.033224752            1 
  391000    1.2010899   -7.1905245    151.26904  0.032239779  0.033218357            2 
  392000    1.1943766   -7.1791929    151.22592  0.032148368  0.033211219            3 
  393000    1.1768855   -7.1744046    152.07487   0.03224658  0.033204745            3 
  394000    1.1916601   -7.1543707    152.82464  0.032323315  0.033198064            1 
  395000    1.1871657   -7.1837342    153.34457  0.032351176  0.033192207            1 
  396000    1.1874286   -7.1832962    153.56489  0.032315844  0.033187035            1 
  397000    1.1676567    -7.200871    154.21579  0.032371072  0.033181774            2 
  398000    1.1859262   -7.1914325    154.29357  0.032306023  0.033177494            2 
  399000    1.1955253   -7.1843103    155.11042   0.03239566  0.033172351            2 
  400000    1.1985607   -7.1780052    154.71773   0.03223286  0.033166728            1 
  401000    1.1977063   -7.1760847    155.33856  0.032281495  0.033161277            2 
  402000     1.196971   -7.1617958    155.71364  0.032278946  0.033155598            2 
  403000    1.1746793   -7.2148751     155.9539  0.032248531  0.033149306            4 
  404000     1.174396   -7.1917455    156.21267  0.032222085  0.033142989            1 
  405000    1.1683545   -7.1778651    157.44357  0.032395795  0.033137313            1 
  406000    1.1859287   -7.2075026    157.18015  0.032261936  0.033131277            1 
  407000    1.1691369   -7.2042458    157.24958  0.032196884  0.033125557            2 
  408000    1.2017734   -7.1916436    158.00455  0.032272171  0.033119494            1 
  409000    1.2054666   -7.2019979     158.4857    0.0322913  0.033114213            1 
  410000     1.169441   -7.1751435    159.11961  0.032341384  0.033108928            1 
  411000    1.2015372   -7.1695721    160.15077  0.032471769    0.0331045            1 
  412000    1.1762819   -7.2114401    159.80639  0.032323299  0.033100629            2 
  413000    1.2013989   -7.2247663     159.7755  0.032238802  0.033096664            1 
  414000    1.1805422   -7.1947039    160.31924  0.032270378  0.033092421            1 
  415000    1.1885982   -7.1881128    161.28043  0.032385628  0.033089184            3 
  416000    1.1910148    -7.189126    161.91862  0.032435621  0.033086009            1 
  417000    1.1806318   -7.1934043    161.81923  0.032337975  0.033083473            2 
  418000    1.1954359   -7.1613971    162.43893  0.032384157  0.033080415            1 
  419000     1.160321   -7.2518769    162.10201  0.032239859  0.033077236            3 
  420000    1.2006912   -7.1531976    163.56929  0.032454224  0.033074141            3 
  421000    1.1975625   -7.2020629    163.53235  0.032369823  0.033071409            2 
  422000    1.1644544   -7.1684356    164.81918  0.032547232  0.033069245            3 
  423000    1.1785317   -7.2038587     164.0901  0.032326655  0.033067006            3 
  424000    1.1922026   -7.1743788    164.90569  0.032410709  0.033064327            2 
  425000    1.2243514   -7.2043101    165.52492  0.032455866  0.033061437            4 
  426000    1.2168962   -7.2383045    165.74452  0.032422637  0.033058584            4 
  427000    1.1600718    -7.157975    166.73583   0.03254017   0.03305621            2 
  428000    1.1784558   -7.1948915    166.54852  0.032427671  0.033054777            2 
  429000    1.1606766    -7.181452    166.92886  0.032425963   0.03305279            1 
  430000     1.186494   -7.1937022    166.77047  0.032319859  0.033049652            1 
  431000    1.1921335   -7.2045597    167.44576  0.032375437  0.033046044            3 
  432000    1.2092081   -7.1854713    168.01336  0.032409985  0.033041792            5 
  433000    1.1888871   -7.1914703    167.94666  0.032322297  0.033038224            1 
  434000      1.18092    -7.201603    167.85521  0.032230264  0.033033931            3 
  435000    1.1839985   -7.2277241    168.05921  0.032195251  0.033029631            2 
  436000    1.1964007   -7.2003723    168.76945  0.032257157  0.033025022            1 
  437000     1.170136   -7.1829621    169.76546  0.032373276  0.033021214            2 
  438000    1.1645521   -7.1693909    169.63267    0.0322741  0.033017266            2 
  439000    1.1999449    -7.189512    170.00233  0.032270753  0.033013691            1 
  440000    1.1859222   -7.2136263    170.45576  0.032283288  0.033009703            2 
  441000     1.183413      -7.2214     170.5808  0.032233712  0.033005673            1 
  442000    1.1829057   -7.2020332    171.18215   0.03227416  0.033001559            1 
  443000    1.1806915   -7.1955112    171.95742  0.032347144  0.032998165            1 
  444000     1.196145   -7.2298885    172.00094  0.032282458  0.032994137            2 
  445000    1.1899653   -7.1867986    172.37365   0.03227971  0.032990548            1 
  446000    1.1682647   -7.2021378    172.69508  0.032267391  0.032987044            1 
  447000    1.1994778   -7.2045047    173.34014  0.032315463  0.032983639            1 
  448000    1.1687142    -7.171899    173.58548  0.032288967  0.032979898            2 
  449000    1.1808562   -7.2110522    173.65883  0.032230665  0.032975321            2 
  450000    1.2064819   -7.1651015    174.53738  0.032321738  0.032971115            1 
  451000    1.1656521   -7.1871901    174.15131  0.032178734  0.032966803            3 
  452000    1.1511507   -7.2083447    175.42184  0.032341785  0.032962243            1 
  453000    1.1846444   -7.2099362    175.53447  0.032291109   0.03295807            1 
  454000    1.1787669   -7.2258617    175.74387  0.032258419  0.032953624            2 
  455000      1.19417   -7.2465114    175.96321  0.032227694  0.032949384            2 
  456000    1.1813812   -7.2426231    175.84623  0.032135642  0.032945097            2 
  457000    1.1898566    -7.184581    176.87933  0.032253707  0.032941075            1 
  458000    1.2106791    -7.179207    178.19209  0.032422141  0.032937898            1 
  459000     1.177649   -7.2026856    177.83683  0.032287007  0.032934644            1 
  460000    1.1658475   -7.1956122     178.2352  0.032288986  0.032931302            2 
  461000    1.1784989    -7.181244    178.51696  0.032269877  0.032927404            1 
  462000    1.1667195    -7.241129    178.41547  0.032181723  0.032923235            1 
  463000    1.1807764   -7.2323462    179.37042  0.032284093  0.032919132            1 
  464000    1.1799201   -7.2144266     179.7508   0.03228283  0.032915319            2 
  465000    1.1479371   -7.2060675    180.81613  0.032404325  0.032912241            2 
  466000    1.1470919   -7.2163838    180.98586   0.03236514  0.032909291            2 
  467000    1.2055184   -7.1867985    180.98383  0.032295473  0.032906475            1 
  468000    1.1716304   -7.2138237    181.12796  0.032252129  0.032903813            3 
  469000    1.1959977   -7.2099284    182.38612  0.032406916  0.032902981            1 
  470000    1.1787422   -7.1801656    182.96514  0.032440628   0.03290193            1 
  471000    1.1907035   -7.1608573    184.16859  0.032584676  0.032900918            2 
  472000    1.1891555   -7.2336074    183.15877  0.032337353  0.032899427            1 
  473000    1.1787337   -7.2492983    183.75322  0.032373717  0.032896833            2 
  474000    1.1853119   -7.2080315    183.24242  0.032215616  0.032894066            1 
  475000    1.1696248   -7.2789246    183.48289  0.032189981  0.032890228            1 
  476000    1.2017555   -7.2400877    183.89305  0.032194161  0.032885268            2 
  477000    1.1840647   -7.2136126    184.19993  0.032180281  0.032880574            1 
  478000     1.163242    -7.164128    185.19596  0.032286604  0.032876129            2 
  479000     1.196625   -7.1897481    185.57405  0.032284977   0.03287216            1 
  480000    1.1839749   -7.1757464    185.94874  0.032282767  0.032867489            1 
  481000    1.1763897   -7.2076214    185.68395  0.032169776  0.032863164            3 
  482000    1.1613584   -7.2239543    186.27555  0.032205316  0.032858692            1 
  483000    1.1685788   -7.2102643    186.50261  0.032177815  0.032853887            2 
  484000     1.175675   -7.1700875    187.16282  0.032225004  0.032849819            4 
  485000    1.1495182   -7.1812178    187.97337   0.03229783  0.032846131            3 
  486000    1.2051204   -7.1989221    187.23344  0.032104499  0.032841288            2 
  487000    1.2085091   -7.2010188     187.9228  0.032156536  0.032836033            1 
  488000    1.1724955   -7.2010343    188.60364  0.032206906  0.032830835            5 
  489000    1.1422489    -7.208245    187.97591  0.032034068   0.03282489            1 
  490000    1.1687296   -7.2339908    188.53081  0.032063062  0.032819811            2 
  491000    1.1735779   -7.2402467    189.74233  0.032203383   0.03281522            1 
  492000    1.1829186    -7.244322    189.47783  0.032093128  0.032810618            2 
  493000    1.1564463   -7.2175787     190.1427  0.032140416  0.032805358            1 
  494000    1.1530815   -7.2229123    190.75876  0.032179278  0.032800224            2 
  495000    1.1880547   -7.2254653    191.02672  0.032159381  0.032795756            1 
  496000    1.1713113   -7.2308604    191.46099  0.032167505  0.032790491            1 
  497000    1.1607454   -7.2396332    191.50479  0.032110126  0.032785235            1 
  498000    1.1805633   -7.2231496    191.03979  0.031967837  0.032779749            2 
  499000    1.1754901    -7.229505    192.74178  0.032188006  0.032775019            1 
  500000    1.1711783   -7.2031927    192.73777  0.032122961   0.03277064            2 
  501000    1.1712796   -7.2117138    193.96743  0.032263378  0.032766242            1 
  502000    1.2006422   -7.2119844    193.68466  0.032152168  0.032762113            2 
  503000    1.1711719   -7.2262124    193.75578   0.03210003  0.032757847            1 
  504000    1.1659031   -7.2543152    193.83857  0.032050028  0.032753404            1 
  505000    1.1383649   -7.2349133    194.51336  0.032097915  0.032749069            1 
  506000    1.1635756   -7.2125347    195.30099  0.032164195  0.032745096            2 
  507000    1.1767941   -7.2022343    195.26761  0.032095268  0.032740786            2 
  508000    1.1687505   -7.2084861    195.99954  0.032152155  0.032736456            3 
  509000     1.172636   -7.1846027    196.88604  0.032234125  0.032732919            4 
  510000    1.1805138   -7.2051006    197.00467  0.032190306  0.032729079            1 
  511000    1.1408969   -7.2670292    197.23847  0.032165438  0.032725357            1 
  512000    1.1625501    -7.207971    198.53506  0.032313649  0.032722794            1 
  513000    1.1374096   -7.2445427    198.45365  0.032237435  0.032720045       -1e+20 
  514000    1.1671406    -7.254286    198.69176  0.032213321  0.032716966            3 
  515000    1.1741621   -7.2029747    199.17557  0.032229057  0.032713519            1 
  516000    1.1786443   -7.2534158     198.4458   0.03204874  0.032710065            1 
  517000    1.1862286    -7.226136    199.18058  0.032105187  0.032705836            2 
  518000    1.2029752   -7.1869201    199.67171  0.032122218  0.032702797            2 
  519000    1.1770506   -7.2069573     200.1777  0.032141571  0.032699514            1 
  520000    1.1846704   -7.2531619    200.66374  0.032157651  0.032696595            1 
  521000     1.167416    -7.225067    200.75736  0.032110903  0.032693953            1 
  522000    1.1740349   -7.2582958    201.60653  0.032184951   0.03269087            2 
  523000    1.1712974   -7.2410982    201.07154  0.032038167  0.032687203            3 
  524000    1.1502545   -7.2923664    201.59793  0.032060739  0.032683936            1 
  525000    1.1815562   -7.2225376    203.34066  0.032276295   0.03268071            1 
  526000    1.1705018   -7.2721377    203.22636  0.032196826  0.032678011            1 
  527000    1.1499838   -7.2153866    204.14755  0.032281396  0.032675439            1 
  528000    1.1545606   -7.2196644    204.81302  0.032325287  0.032673373            2 
  529000    1.1740634   -7.2290493    204.92829  0.032282339  0.032671073            3 
  530000    1.1669293   -7.2288356    204.47093  0.032149517  0.032668357            3 
  531000    1.1527779   -7.1782389    205.73418  0.032287222  0.032665988            1 
  532000    1.1707516   -7.2269584    205.46837  0.032184895  0.032663697            2 
  533000    1.1589309   -7.2709525    205.16165  0.032076555  0.032661075            1 
  534000    1.1623935   -7.2232024    206.19931  0.032178418  0.032658563            2 
  535000    1.1577736    -7.246602    206.60823  0.032181968  0.032655986            2 
  536000    1.1609092   -7.2301865    207.11954  0.032201421  0.032653496            1 
  537000    1.1620701   -7.2312791    207.80754  0.032248222  0.032650934            3 
  538000    1.1701652   -7.2405516    208.16425  0.032243534  0.032648013            1 
  539000    1.1849347   -7.2235594    207.80523  0.032128205  0.032645036            1 
  540000    1.1421299    -7.247658    208.41224  0.032162382  0.032641529            1 
  541000    1.1812942   -7.2711109     207.8396  0.032014726  0.032637907            1 
  542000    1.1694912   -7.2381472    208.41793  0.032044577  0.032634096            1 
  543000    1.1514799   -7.2319881    209.02839  0.032079249  0.032629647            1 
  544000     1.184784    -7.204796    209.27761  0.032058458  0.032625509            1 
  545000    1.1612387    -7.244499    209.74921  0.032071745  0.032621341            1 
  546000    1.1841414   -7.2687306    209.26411  0.031938967  0.032617021            1 
  547000    1.1761051   -7.1917996     211.0774  0.032156826  0.032613156            2 
  548000    1.2018629    -7.240201    210.80583  0.032056848  0.032609748            3 
  549000    1.1647008   -7.2614232      210.125  0.031895112  0.032606071            1 
  550000    1.1963374   -7.2782104    210.85492  0.031947715  0.032601603            1 
  551000     1.165628   -7.2287333    211.79439  0.032031819  0.032596736            1 
  552000    1.1656068    -7.235611    211.83169  0.031979422  0.032591488            1 
  553000    1.1495097   -7.2482525    212.54392  0.032028921  0.032586824            2 
  554000    1.1791522   -7.2145957    212.93584   0.03203006  0.032582643            1 
  555000    1.1775925   -7.2652416    213.03529  0.031987281  0.032578177            1 
  556000    1.1667865   -7.2372413    213.12206  0.031942755  0.032573761            2 
  557000    1.1472235   -7.2166436    213.89418  0.032000925  0.032569115            3 
  558000    1.1684233   -7.2287825    214.06878   0.03196965   0.03256421            1 
  559000    1.1734115   -7.2546608    213.94084  0.031893387  0.032558828            3 
  560000    1.1379336   -7.2470405    214.18159   0.03187226  0.032553761       -1e+20 
  561000    1.1414974    -7.270482    214.93647   0.03192758   0.03254866            1 
  562000    1.1544173   -7.2284362    215.28289  0.031922137  0.032543529            1 
  563000    1.1605038    -7.245723    215.85456  0.031950053  0.032538503            1 
  564000    1.1500229   -7.2934881    215.39531  0.031825548  0.032533158            4 
  565000    1.1646201   -7.2456105    216.07432  0.031869368  0.032527927            3 
  566000    1.1835142   -7.2640254    216.08819  0.031815104  0.032522899            3 
  567000    1.1655939   -7.2523938    216.91249  0.031880142  0.032518077            1 
  568000    1.1837129   -7.2492473    216.76641  0.031802583  0.032512602            2 
  569000    1.1790108   -7.2843314    217.06018  0.031789716  0.032506889            1 
  570000    1.1686274   -7.2633905    217.48402  0.031795909  0.032501509            1 
  571000    1.1426016   -7.2572258    218.16373  0.031839423  0.032496055            2 
  572000    1.1754512   -7.2847821    217.64293  0.031707886  0.032490118            2 
  573000    1.1523236   -7.2315046    218.30507  0.031748847  0.032483973            1 
  574000    1.1737893   -7.2386033    219.34016  0.031843809  0.032478291            2 
  575000    1.1731106   -7.2866604    219.20296  0.031768544  0.032472466            3 
  576000    1.1555543     -7.26431    219.24881  0.031720024  0.032466717            3 
  577000    1.1682382    -7.258917    220.03113  0.031778037  0.032461234            1 
  578000    1.1641113   -7.2374638    220.05701  0.031726789  0.032455229            2 
  579000    1.1576797   -7.2999453    220.68236  0.031761997  0.032449693            1 
  580000    1.1709937   -7.2691144    222.17198  0.031921262  0.032444868            1 
  581000    1.1501611   -7.2582829    221.38833  0.031753919  0.032439517            2 
  582000    1.1387581   -7.2299005     221.6101  0.031731115  0.032434429            1 
  583000    1.1716329   -7.2166561    223.17867  0.031900896  0.032429436            2 
  584000    1.1541853   -7.2975153    222.23555  0.031711694  0.032423903            2 
  585000     1.149304    -7.289135    223.05334   0.03177398   0.03241819            2 
  586000    1.1427032   -7.2542165    223.69287  0.031810704  0.032412885            2 
  587000    1.1661648   -7.2503989    223.63309  0.031748025  0.032407907            1 
  588000    1.1576327   -7.2790434    223.51523  0.031677328  0.032401923            2 
  589000    1.1727946    -7.253636    224.02778  0.031696064  0.032396507            1 
  590000      1.14757   -7.2526788    224.59538  0.031722511  0.032390539            2 
  591000    1.1398062   -7.2857453    224.42902  0.031645378   0.03238482            3 
  592000    1.1398252    -7.260039    225.86174  0.031793601  0.032379556            1 
  593000    1.1586941   -7.2310457    226.92823  0.031889858  0.032374739            1 
  594000    1.1790075   -7.2136507    226.12914  0.031724066  0.032369663            2 
  595000    1.1530811    -7.242895    227.70645   0.03189166   0.03236518            3 
  596000    1.1674725   -7.2862747    226.86737  0.031720829   0.03236069            2 
  597000    1.1324518   -7.2487077    227.36223  0.031736771  0.032356117            2 
  598000     1.157647   -7.2418032    228.05616  0.031780401   0.03235145            2 
  599000    1.1391683   -7.2558418    228.49872  0.031788914  0.032346934            2 
  600000    1.1606472    -7.282223    228.76983  0.031773588  0.032342125            1 
  601000    1.1762083   -7.2688974    228.86388  0.031733761   0.03233688            1 
  602000    1.1386413   -7.2502457    229.05534   0.03170755  0.032331656            2 
  603000    1.1431117   -7.2646023    229.91403  0.031773636  0.032326694            1 
  604000    1.1517115   -7.2654776    229.89932  0.031719001  0.032321888            1 
  605000    1.1757127   -7.2608655    230.03228  0.031684887  0.032316623            2 
  606000    1.1684059   -7.2300339    230.73738  0.031729562  0.032311399            3 
  607000    1.1335839   -7.2753454    231.00549  0.031714098  0.032306181            1 
  608000    1.1556821   -7.2637266    230.60071  0.031606457  0.032300942            2 
  609000    1.1479343   -7.2662468    230.98842  0.031607611  0.032295279            4 
  610000    1.1341274   -7.2983525    231.72555  0.031656495  0.032289553            3 
  611000    1.1305777   -7.2542355    232.25984  0.031677556  0.032283984            1 
  612000    1.1559387   -7.2600768    231.70817  0.031550676  0.032278389            2 
  613000    1.1546935   -7.2509399    232.83885  0.031652916  0.032272944            1 
  614000    1.1686706    -7.280423    233.01643  0.031625465  0.032267439            1 
  615000    1.1594231   -7.2323991    233.50489  0.031640229  0.032261775            1 
  616000    1.1479397   -7.2347403    233.78419  0.031626649  0.032256337            3 
  617000    1.1658595   -7.2606948    233.84619  0.031583764  0.032250077            3 
  618000    1.1289226    -7.248374    233.55389  0.031493244  0.032243824            1 
  619000     1.164815   -7.2624388    234.34903  0.031549412  0.032237642            3 
  620000    1.1425798   -7.2734138     234.3432  0.031497742  0.032231471            1 
  621000    1.1477304   -7.2716921    235.69321  0.031628182  0.032224939       -1e+20 
  622000    1.1661713    -7.244435    235.74295  0.031583996  0.032219088            1 
  623000    1.1552665   -7.2532775    235.86226  0.031549259  0.032213142            1 
  624000    1.1725149   -7.3177729    235.91715  0.031506029  0.032206608            1 
  625000    1.1558575   -7.2995619    235.32801  0.031377067  0.032199427            1 
  626000    1.1726912   -7.3113359    235.70629  0.031377302  0.032192931            1 
  627000    1.1554203   -7.2386998    237.05352  0.031506316  0.032186033            2 
  628000    1.1906463   -7.2725556    236.10749  0.031330612  0.032179414            2 
  629000    1.1322426   -7.2404613    237.94215  0.031523867  0.032173068            1 
  630000    1.1645138   -7.2462568    238.75643  0.031581538  0.032167141            6 
  631000    1.1588514   -7.2699962    238.68568  0.031522144  0.032161241            1 
  632000    1.1397044   -7.2664987    237.95539  0.031375975  0.032154993            2 
  633000    1.1496533   -7.2465078    239.62051  0.031545618  0.032148675            1 
  634000    1.1381734   -7.2701175    238.92998  0.031405098  0.032142552            1 
  635000     1.165661   -7.2739117      239.671  0.031452887  0.032136095            1 
  636000    1.1574883   -7.2633182    239.52688  0.031384549  0.032129894            3 
  637000    1.1286418   -7.2873482    240.30432  0.031436985  0.032123344            1 
  638000    1.1486032    -7.308207    240.19259  0.031373117  0.032116605            2 
  639000    1.1528769   -7.2592957    240.72275   0.03139316  0.032109903            1 
  640000    1.1689061   -7.2252238    242.12905   0.03152722  0.032103703            1 
  641000    1.1434238   -7.2712583    241.40633  0.031384079  0.032097411            1 
  642000    1.1761728   -7.2566315     241.9245  0.031402453  0.032091585            1 
  643000    1.1542106   -7.2990214    242.74166  0.031459521  0.032085432            1 
  644000    1.1699334   -7.3036993    242.21772  0.031342873   0.03207919            1 
  645000    1.1330965   -7.2664521    242.81864  0.031371917  0.032073084            2 
  646000    1.1475647   -7.2901732    243.16656  0.031368235  0.032066985            1 
  647000    1.1541018   -7.3136989    243.64909  0.031381902  0.032060663            2 
  648000     1.153509   -7.2815634    244.01123  0.031380046    0.0320543            1 
  649000    1.1595232   -7.2513078    244.32838  0.031372416     0.032048            3 
  650000    1.1198429   -7.3021655    244.45341   0.03134018  0.032041527            3 
  651000    1.1340219   -7.2615083    245.32174  0.031403193  0.032035342            1 
  652000    1.1733063   -7.2176726     245.9346  0.031433359   0.03202951            2 
  653000      1.12197    -7.307578    246.06582  0.031401968  0.032023345            2 
  654000    1.1661964    -7.252524    246.35559  0.031390876  0.032017232            2 
  655000    1.1366922   -7.2479709    246.43055  0.031352488  0.032011171            5 
  656000    1.1415009   -7.2929242    246.36655  0.031296564  0.032004643            1 
  657000    1.1462247   -7.2939024    247.53882  0.031397618  0.031998144            1 
  658000    1.1441433   -7.2999269    246.30361  0.031193467  0.031991453            2 
  659000    1.1345239   -7.2861743     247.1161  0.031248875  0.031984404            1 
  660000    1.1537828   -7.2720432    247.53376  0.031254262  0.031977922            2 
  661000    1.1536058   -7.2951043    247.87616  0.031250146  0.031971227            1 
  662000    1.1389271   -7.3197848    248.38799   0.03126737  0.031963957            2 
  663000    1.1450938   -7.2371715    248.82006  0.031274518  0.031957188            1 
  664000    1.1528689   -7.2957661    248.55808  0.031194538   0.03195041            1 
  665000    1.1517348   -7.2996326    249.36258  0.031248444  0.031943423            2 
  666000    1.1449601   -7.3227697    249.44558   0.03121191  0.031936856            1 
  667000    1.1542737   -7.2445657    249.89006  0.031220647  0.031930012            1 
  668000     1.116749   -7.2539204    251.27487  0.031346665  0.031923464            2 
  669000    1.1225048   -7.3163458    250.34571   0.03118407  0.031916768            2 
  670000    1.1453691   -7.2757905    251.30898  0.031257336  0.031910126            1 
  671000    1.1542857   -7.2537389    250.98771  0.031170853  0.031903761            1 
  672000    1.1462244   -7.2871957     251.6653  0.031208494  0.031897207            1 
  673000    1.1579539   -7.2587508    251.88899  0.031189821  0.031890969            4 
  674000    1.1533034     -7.31188    253.44025  0.031335342  0.031884697            2 
  675000    1.1346801   -7.2496521    254.20323  0.031383115  0.031878612            1 
  676000    1.1475612   -7.3031264    253.57199  0.031258875  0.031873071            3 
  677000    1.1458435   -7.2927834    254.95643  0.031383115  0.031867845            2 
  678000     1.122473   -7.3012138     254.7032  0.031305703  0.031862359            2 
  679000    1.1196962   -7.2867656    255.07906  0.031305727  0.031856678            1 
  680000    1.1185663   -7.2839081     254.7558  0.031220073  0.031851146            1 
  681000     1.144537   -7.3048935    255.98817  0.031325033   0.03184552            2 
  682000    1.1607827   -7.2979404    255.93137  0.031272161  0.031840249            2 
  683000     1.142401   -7.3076598    256.00118  0.031234893  0.031834476            1 
  684000      1.14829   -7.3004813    256.73194  0.031278258  0.031829119            2 
  685000    1.1198726   -7.3298088    256.59946   0.03121648   0.03182377            2 
  686000    1.1431718   -7.3096693    257.21091  0.031245252  0.031817975            2 
  687000    1.1511724   -7.2869302      258.196  0.031319262  0.031812003            3 
  688000    1.1507763   -7.2896334    257.98197  0.031247816  0.031806409            1 
  689000    1.1368967   -7.3045636     257.6577  0.031163244  0.031800747            1 
  690000    1.1311473   -7.2951102    257.87605   0.03114445  0.031794858            2 
  691000    1.1551948   -7.2261223    259.40616  0.031283907   0.03178916            1 
  692000    1.1414414   -7.3096874    258.35862   0.03111255  0.031783146            3 
  693000    1.1370884   -7.2309013    259.31189  0.031182286  0.031777208            1 
  694000    1.1391534   -7.3032374    259.90337  0.031208378  0.031771494            2 
  695000    1.1233185   -7.2851685    259.38461  0.031101272  0.031766009            4 
  696000    1.1250229    -7.324938    260.13036  0.031145876  0.031760019            3 
  697000    1.1374241   -7.2864861    260.91101  0.031194526   0.03175406            1 
  698000    1.1232232   -7.3013051    261.34538  0.031201693  0.031747967            3 
  699000    1.1301261   -7.2863719    261.91221  0.031224631  0.031741786            1 
  700000    1.1229348   -7.3364368    260.89307  0.031058699  0.031735878            2 
  701000    1.1231132   -7.3108479    261.80465   0.03112276  0.031729618            1 
  702000    1.1172039   -7.3162069    261.95217  0.031095937  0.031723387            2 
  703000    1.1486813   -7.2803073    261.91164  0.031046899  0.031716693            2 
  704000    1.1317213   -7.2678828    262.55801   0.03107931  0.031709897            1 
  705000    1.1468859    -7.287321    262.56886  0.031036508  0.031702918            1 
  706000    1.1471583   -7.2770684    263.02981  0.031046956  0.031696081            2 
  707000    1.1385854   -7.2863283    263.21044  0.031024333  0.031689247            1 
  708000    1.1324543   -7.2839395    263.75882  0.031045059  0.031682843            1 
  709000    1.1297754   -7.2859692    264.64775  0.031105753   0.03167632            3 
  710000    1.1601332   -7.2247059    264.14605  0.031003057  0.031669949            2 
  711000    1.1166901   -7.2992178    264.72483  0.031027289  0.031663337            1 
  712000    1.1372947   -7.3190586    264.90908  0.031005276  0.031656567            2 
  713000    1.1486183   -7.3103259    265.68456  0.031052427  0.031649738            2 
  714000    1.1448403   -7.3271905    265.62274   0.03100172  0.031642978            1 
  715000    1.1520099   -7.3213565      266.089  0.031012704  0.031636157            2 
  716000    1.1540293   -7.2894228    266.59192  0.031027924  0.031629719            3 
  717000    1.1339098   -7.3306817    265.94871  0.030909892  0.031623207            1 
  718000    1.1342353   -7.3371887     267.2327  0.031015865  0.031616849            1 
  719000    1.1588272   -7.3221923    267.64445   0.03102045  0.031610782            2 
  720000    1.1528192   -7.3124996    268.37185  0.031061557  0.031605019            2 
  721000    1.1412751   -7.2996146    268.10398  0.030987515   0.03159891            3 
  722000    1.1628453   -7.2884642    268.83115  0.031028526  0.031592878            3 
  723000    1.1344075   -7.3256124    269.01341  0.031006618  0.031586785            2 
  724000    1.1432358   -7.2839274    270.22865  0.031103666  0.031581033            1 
  725000     1.113319   -7.3150155    270.26328  0.031064745   0.03157538            1 
  726000    1.1432101   -7.3003983    270.77071    0.0310802  0.031569724            1 
  727000     1.146757   -7.3172898    270.44472  0.031000082  0.031563825            2 
  728000     1.135038   -7.3295015    270.94703  0.031014999  0.031557887            3 
  729000    1.1327118    -7.299124    271.15688  0.030996442  0.031551835            2 
  730000    1.1400298   -7.2909271    271.52836  0.030996388  0.031545769            1 
  731000    1.1250115   -7.2961775    271.29723  0.030927637  0.031539202            1 
  732000      1.12432   -7.3040377    272.09311  0.030975992  0.031532359            2 
  733000    1.1265154   -7.3182601    271.33116  0.030847107  0.031525688            4 
  734000    1.1233904   -7.3269817    271.90339  0.030870049  0.031518929            2 
  735000    1.1452188   -7.3273454    272.10588  0.030851007  0.031512314            2 
  736000    1.1468294   -7.2761875    273.68209  0.030987555   0.03150585            1 
  737000    1.1467811   -7.3183608    273.72588  0.030950462  0.031499671            3 
  738000    1.1232498   -7.2773619    274.17109  0.030958795  0.031493067            2 
  739000    1.1631197   -7.3294328    273.94931  0.030891893  0.031486532            1 
  740000    1.1554952   -7.3002933      274.791  0.030944933  0.031480272            2 
  741000    1.1167487   -7.2925384    275.53041  0.030986326  0.031474215            1 
  742000    1.1483308    -7.362218    274.55524  0.030835045  0.031468044       -1e+20 
  743000    1.1443666   -7.3323347    275.80523   0.03093374  0.031462046            2 
  744000    1.1616763   -7.2774976    276.45095  0.030964488  0.031455889            2 
  745000     1.117787   -7.3460879    275.62308  0.030830322   0.03144963            1 
  746000    1.1188301   -7.2722363    277.36432  0.030983503  0.031443794            8 
  747000    1.1425681   -7.3367355    276.50572  0.030846243  0.031437923            2 
  748000    1.1372459   -7.3447933    277.86356  0.030956278  0.031431906            2 
  749000    1.1242931   -7.2998131    277.43552  0.030867325  0.031426099            2 
  750000    1.1623484   -7.2884907    278.46277  0.030940308  0.031420137            1 
  751000     1.113271   -7.3463378    277.84504  0.030830563  0.031414348            1 
  752000    1.1429703   -7.3052532    279.69637  0.030994722  0.031408569            4 
  753000    1.1303491   -7.2738106    279.43019  0.030924103  0.031402992            2 
  754000     1.143049   -7.3602633    278.66231  0.030798222  0.031397196            2 
  755000     1.150778   -7.3388204    280.25976  0.030933748  0.031391114            1 
  756000    1.1251662   -7.3489925    279.41635  0.030799863  0.031385228            1 
  757000    1.1379885   -7.3143494    280.45586  0.030873608  0.031379534            1 
  758000    1.1193435   -7.3091247    282.15493  0.031019671  0.031373867            1 
  759000    1.1158024   -7.3245812    281.48656  0.030905419   0.03136802            2 
  760000    1.1433156   -7.2834994    280.89437  0.030799821  0.031362296            1 
  761000    1.1522789   -7.3436556    280.94353  0.030764731  0.031356044            1 
  762000    1.1042412   -7.3110096    281.56945   0.03079281  0.031349705            2 
  763000    1.1331968    -7.317704    283.07693  0.030917095  0.031343907            2 
  764000    1.1146619   -7.3010466    282.29654  0.030791507  0.031337901            4 
  765000    1.1130204   -7.3346001    282.88588  0.030815455  0.031331852            3 
  766000    1.1460339   -7.2833525    283.56382  0.030848979  0.031326026            1 
  767000    1.1500484    -7.316741    283.19226  0.030768389  0.031320113            3 
  768000    1.1207038   -7.3094029     283.8048  0.030794792  0.031314291            3 
  769000    1.1370306   -7.3242522    283.99874  0.030775763   0.03130819            2 
  770000    1.1626999    -7.306657    284.39944   0.03077916  0.031301953            2 
  771000    1.1225821   -7.3238323     283.5706  0.030649654  0.031295409            2 
  772000    1.1429839   -7.3557034    283.32721   0.03058368  0.031288672            1 
  773000    1.1037645   -7.3494228    284.07157  0.030624361  0.031281804            2 
  774000    1.1202706   -7.3231715     285.3311  0.030720403  0.031275003            1 
  775000    1.1332743     -7.28289    285.54863  0.030704154  0.031268055            1 
  776000    1.1058162   -7.2805891    286.51837  0.030768726  0.031261644            2 
  777000    1.1669849   -7.3026108    285.75662  0.030647428   0.03125509            1 
  778000    1.1359413   -7.3010127    286.22271   0.03065796   0.03124833            3 
  779000    1.1323508   -7.3318265      286.168  0.030612752  0.031241593            1 
  780000    1.1320497   -7.3391886    286.75622  0.030636348  0.031234505            1 
  781000    1.1222573   -7.3672992    285.32175  0.030444062  0.031227498            1 
  782000    1.1193791   -7.3209463    286.62831  0.030544364  0.031220323            1 
  783000    1.1662168   -7.3560303    286.86422  0.030530462  0.031212769            1 
  784000    1.1123798    -7.343133     286.6986  0.030473916  0.031205338            2 
  785000    1.1151163    -7.275011    289.00088  0.030679499  0.031198241            1 
  786000    1.1472021   -7.3530119    287.16172  0.030445475  0.031191331            3 
  787000    1.1319201   -7.3292891     287.7944  0.030473782  0.031184338            1 
  788000    1.1171254   -7.2946798    289.50467  0.030615976  0.031177275            1 
  789000    1.1251701   -7.3247976    289.15926  0.030540691  0.031170259            1 
  790000      1.13299   -7.3383694    289.40494  0.030527948  0.031162973            2 
  791000    1.1255839    -7.342053    289.96975  0.030548857  0.031155823            3 
  792000    1.1211058   -7.3372954    290.22372  0.030537008  0.031148978            2 
  793000    1.1168774   -7.3420024    289.90409  0.030464911  0.031141982            4 
  794000    1.1231731   -7.3133552    291.02327  0.030544004  0.031135191            2 
  795000    1.1433511   -7.3678429    290.96766  0.030499755  0.031128299            3 
  796000    1.1234425   -7.3139469    291.89667  0.030558697  0.031121462            1 
  797000    1.1292246   -7.3762386    291.78591  0.030508773  0.031114652            4 
  798000    1.1197967   -7.3327748    292.73242  0.030569384    0.0311078            2 
  799000    1.1138267   -7.3318933    292.67433  0.030525065  0.031101057            2 
  800000    1.1001362   -7.3776616    291.79314  0.030395119  0.031094327            3 
  801000    1.1067565   -7.3329828    293.45543  0.030530112  0.031087505            2 
  802000    1.1281315   -7.3451387    294.41427  0.030591674  0.031080816            4 
  803000    1.1211051    -7.336406    294.81428   0.03059509  0.031074087            2 
  804000    1.1250473   -7.3840513    293.33288  0.030403491  0.031067086            2 
  805000    1.1252765    -7.342473    294.28455   0.03046424  0.031060064            1 
  806000     1.137133   -7.3377106    294.62715  0.030461864  0.031052968            2 
  807000     1.117061   -7.3686869    295.07406  0.030470266  0.031045989            1 
  808000    1.1421775    -7.339451    295.25898  0.030451628     0.031039            1 
[...]
 4800000   0.48255507    -8.892841    594.24014  0.010316669 0.0086948678            5 
 4801000   0.47755633   -8.8953351    594.58418  0.010320492  0.008691931            3 
 4802000   0.48201162   -8.8951448    593.87137  0.010305973 0.0086889975            2 
 4803000   0.48555645   -8.8830151    594.92932  0.010322183 0.0086860657            3 
 4804000   0.49532373   -8.9042647     594.8781  0.010319146 0.0086831343            5 
 4805000   0.47378279   -8.8748706    593.69499  0.010296479 0.0086802028            3 
 4806000   0.48834278   -8.8987705    595.47216  0.010325152 0.0086772751            5 
 4807000   0.48111037   -8.9034028    594.61781  0.010308193 0.0086743463            3 
 4808000   0.47605684   -8.9027368    594.49533  0.010303926 0.0086714191            3 
 4809000   0.47457035   -8.8958128    594.73039  0.010305857 0.0086684931            2 
 4810000   0.48479087   -8.8977614    593.88889  0.010289135 0.0086655677            3 
 4811000   0.48115788   -8.8961713    594.27252  0.010293642 0.0086626429            4 
 4812000   0.48044092   -8.8988793    594.59305  0.010297053 0.0086597234            3 
 4813000    0.4841477   -8.9081019    594.24164   0.01028883 0.0086568032            3 
 4814000   0.48011722      -8.8957    594.46383  0.010290539  0.008653882            4 
 4815000   0.47195703   -8.9077628    593.98145  0.010280053 0.0086509631            5 
 4816000   0.46595856   -8.9041246    594.14496  0.010280747  0.008648045            3 
 4817000   0.47927228   -8.9174164    595.28826  0.010298392 0.0086451256            2 
 4818000   0.48671745   -8.8885805    594.43167  0.010281439 0.0086422088            3 
 4819000   0.49026287   -8.9146504    594.82887  0.010286174 0.0086392951            2 
 4820000   0.48180882   -8.8902873      594.734    0.0102824 0.0086363826            2 
 4821000    0.4918576    -8.890245    594.21541  0.010271303 0.0086334716            6 
 4822000   0.48172021   -8.9053088    594.25753  0.010269901 0.0086305626            3 
 4823000   0.47852515   -8.9158709    593.46258  0.010254036  0.008627655            5 
 4824000    0.4765263   -8.8957169     594.7789  0.010274649 0.0086247497            3 
 4825000   0.48415875   -8.9024346    594.69444  0.010271061 0.0086218434            4 
 4826000   0.47428028   -8.8881638    593.71101  0.010251951 0.0086189406            4 
 4827000   0.47700397   -8.9095962    594.17041  0.010257759 0.0086160412            4 
 4828000     0.491437   -8.8987186    594.29455  0.010257777 0.0086131376            2 
 4829000   0.48685293   -8.9079636    595.16457  0.010270666 0.0086102393            4 
 4830000   0.48623185   -8.9072562    593.62242  0.010241933 0.0086073402            5 
 4831000    0.4734829   -8.9087136    593.82472  0.010243302 0.0086044417            4 
 4832000   0.47560808   -8.9125749    594.30548  0.010249474 0.0086015443            3 
 4833000    0.4679617   -8.9000784     594.8322  0.010256435 0.0085986454            4 
 4834000   0.46358447   -8.9056984     593.7494  0.010235647 0.0085957488            3 
 4835000   0.47770569   -8.8958986    595.12606  0.010257257 0.0085928532            4 
 4836000   0.47572799    -8.895802    594.00073  0.010235745 0.0085899608            5 
 4837000   0.48109627   -8.9200554     594.7678  0.010246844   0.00858707            1 
 4838000    0.4798123    -8.909327    592.64907  0.010208231 0.0085841781            4 
 4839000   0.47502163   -8.9133387     594.1366  0.010231739 0.0085812878            3 
 4840000   0.48176744   -8.9100152    594.27805   0.01023206 0.0085783991            2 
 4841000   0.47970637   -8.9120869    593.59312  0.010218156 0.0085755097            3 
 4842000   0.48235306    -8.917701    593.63658  0.010216794 0.0085726235            6 
 4843000   0.48527703   -8.8967707    593.95116  0.010220097 0.0085697393            6 
 4844000   0.47623826   -8.9129314     594.1635   0.01022164  0.008566857            4 
 4845000    0.4667995   -8.8930708    594.83565  0.010231091  0.008563974            1 
 4846000   0.47718839   -8.9087624    593.36586  0.010203705 0.0085610938            4 
 4847000   0.46930437   -8.9269443    594.33415  0.010218248  0.008558215            5 
 4848000   0.47521697   -8.9091734    593.91193  0.010208882 0.0085553364            2 
 4849000   0.48484665   -8.9179765    594.11975  0.010210348  0.008552457            3 
 4850000    0.4789727   -8.9191404    593.37072  0.010195373 0.0085495796            3 
 4851000    0.4723151   -8.9058947    594.54287  0.010213407 0.0085467042            3 
 4852000   0.47089093   -8.9042922    593.70207  0.010196862 0.0085438284            6 
 4853000   0.48200064   -8.9109274    593.42227  0.010189956 0.0085409573            5 
 4854000   0.47896233   -8.9073908    593.46629  0.010188612 0.0085380858            2 
 4855000   0.47840393    -8.905441    594.42698  0.010203003 0.0085352162            4 
 4856000   0.46840285   -8.9113697    593.45369    0.0101842 0.0085323467            4 
 4857000   0.46602739   -8.9053923    593.15132  0.010176915 0.0085294778            2 
 4858000   0.47791438   -8.9270164    594.41016  0.010196414 0.0085266115            3 
 4859000   0.47017616   -8.8994802    594.47482  0.010195425 0.0085237464            4 
 4860000   0.47890508   -8.9044316    594.06649  0.010186325 0.0085208826            5 
 4861000   0.48480544    -8.906036    594.02074  0.010183445 0.0085180205            4 
 4862000   0.48020674   -8.9125952    593.78013  0.010177227 0.0085151613            3 
 4863000   0.46884742   -8.9093304    594.09281  0.010180492 0.0085123006            4 
 4864000   0.46426407   -8.9060586    594.36633  0.010183085 0.0085094409            4 
 4865000   0.48028379   -8.9120886    593.23107  0.010161546 0.0085065818            2 
 4866000   0.47726233   -8.9091338    594.78112  0.010186003 0.0085037244            4 
 4867000   0.48081834   -8.9083802    593.80077  0.010167125 0.0085008683            2 
 4868000   0.48229048   -8.9150589    594.06641  0.010169584 0.0084980136            4 
 4869000   0.47162316   -8.9318428    594.12937  0.010168573 0.0084951592            5 
 4870000   0.47463511   -8.9073026    594.12053  0.010166334 0.0084923065            6 
 4871000   0.47333675     -8.91987    592.90921  0.010143523 0.0084894561            4 
 4872000   0.48150908   -8.9041892    593.98341  0.010159815 0.0084866086            1 
 4873000   0.48267886   -8.8964432     593.2127   0.01014455 0.0084837623            3 
 4874000   0.45547394   -8.9236743    592.97327  0.010138375 0.0084809144            3 
 4875000   0.46646713   -8.8972762    594.16373  0.010156645 0.0084780679            4 
 4876000   0.47200177   -8.9119891     593.5765  0.010144526 0.0084752236            3 
 4877000   0.46612343     -8.92385    593.40406  0.010139499 0.0084723795            2 
 4878000   0.47193953   -8.9203201    593.32286  0.010136034 0.0084695378            3 
 4879000   0.46823561   -8.9141005     594.1472  0.010148036 0.0084666979            3 
 4880000   0.47403139   -8.9181656    593.40615  0.010133302 0.0084638575            3 
 4881000   0.47235384   -8.9156451    594.37873  0.010147831 0.0084610209            6 
 4882000   0.47173612   -8.9075545    593.54248  0.010131478 0.0084581852            2 
 4883000   0.46422135   -8.9165751    593.84204  0.010134515 0.0084553486            2 
 4884000   0.46778762   -8.9343006    593.76705   0.01013116 0.0084525123            5 
 4885000   0.47019521   -8.9206022    593.60357  0.010126298 0.0084496781            1 
 4886000   0.46871631   -8.9114857    593.94793  0.010130098 0.0084468472            4 
 4887000   0.46843427    -8.908022    593.14838  0.010114392  0.008444016            3 
 4888000   0.47258605   -8.9230715    593.48937  0.010118136 0.0084411859            2 
 4889000   0.47291763   -8.9177827    593.59675  0.010117897 0.0084383565            3 
 4890000   0.47549994   -8.9237575    594.41603  0.010129789 0.0084355312            4 
 4891000   0.46066713   -8.9083646    594.06663  0.010121765 0.0084327066            2 
 4892000   0.46821323   -8.9186654    592.97457  0.010101093 0.0084298806            3 
 4893000   0.47173598   -8.9312819    593.62443  0.010110097 0.0084270552            2 
 4894000   0.46452155   -8.9260365    593.99224  0.010114294  0.008424233            3 
 4895000   0.47411677   -8.9207322    593.89568  0.010110584 0.0084214113            2 
 4896000    0.4533052   -8.9103499    594.08643  0.010111765 0.0084185923            3 
 4897000   0.46059159   -8.9250894    593.24844   0.01009544 0.0084157737            3 
 4898000   0.46333438   -8.9287384    594.28908  0.010111084 0.0084129568            3 
 4899000   0.47068693   -8.9223504    593.63195  0.010097842 0.0084101395            1 
 4900000   0.47635397   -8.9129511    593.34116  0.010090836 0.0084073253            3 
 4901000   0.47144631   -8.9155438    594.55553  0.010109425 0.0084045113            3 
 4902000   0.45494765   -8.8997652    595.04139  0.010115623 0.0084016989            2 
 4903000     0.450459   -8.9118955    593.96635  0.010095288 0.0083988872            2 
 4904000   0.46867925   -8.9269786     593.0742  0.010078069 0.0083960778            2 
 4905000   0.46623675   -8.9182543    593.72635  0.010087094 0.0083932687            3 
 4906000   0.46429747   -8.9264763     593.1484  0.010075221 0.0083904586            5 
 4907000   0.45706107   -8.9217343    593.78476  0.010083975 0.0083876512            2 
 4908000   0.46501543   -8.9129918    592.89602   0.01006683 0.0083848472            6 
 4909000   0.47192923   -8.9143029    593.41041  0.010073511 0.0083820452            3 
 4910000   0.45991528   -8.9196092    593.13778  0.010066833 0.0083792424            3 
 4911000   0.46301132   -8.9288418    594.10524  0.010081199 0.0083764429            6 
 4912000   0.47120982   -8.9222321    594.18873  0.010080563 0.0083736418            5 
 4913000   0.47181706   -8.9243695    593.23845  0.010062393 0.0083708417            4 
 4914000   0.46110078   -8.9289422    593.38964  0.010062909 0.0083680421            3 
 4915000   0.47013255   -8.9229934    593.62256  0.010064811 0.0083652464            4 
 4916000    0.4629594   -8.9387581    594.57133  0.010078847 0.0083624515            6 
 4917000   0.46049122   -8.9271205    593.34584  0.010056027 0.0083596581            4 
 4918000   0.46139821   -8.9236196    593.91648  0.010063652 0.0083568666            2 
 4919000   0.45931079   -8.9370183    593.64094  0.010056938 0.0083540739            1 
 4920000   0.46792444   -8.9146796    594.00883  0.010061125 0.0083512837            1 
 4921000   0.46472075   -8.9242863    593.93915  0.010057901 0.0083484933            3 
 4922000   0.45567658   -8.9112211     593.1639  0.010042732 0.0083457075            4 
 4923000   0.46254018   -8.9219761    592.96415   0.01003731 0.0083429221            2 
 4924000   0.46870152   -8.9360413    593.92655   0.01005156 0.0083401365            3 
 4925000   0.46393565    -8.908987    593.70487  0.010045768  0.008337355            3 
 4926000   0.46199884   -8.9211785    593.48246  0.010039966 0.0083345721            3 
 4927000   0.46915245   -8.9391447     594.0217  0.010047049 0.0083317918            4 
 4928000   0.47261934   -8.9204396    594.01087  0.010044827 0.0083290109            5 
 4929000   0.46083759   -8.9396397    593.09989  0.010027387 0.0083262329            7 
 4930000   0.45527726   -8.9169288    593.10209   0.01002539 0.0083234537            5 
 4931000   0.46670058   -8.9365093     593.7403  0.010034143 0.0083206769            2 
 4932000   0.46766216   -8.9274109    593.23564  0.010023581 0.0083179031            4 
 4933000   0.46738202   -8.9270801    593.34531  0.010023402 0.0083151279            2 
 4934000   0.46141052   -8.9383382    593.86563  0.010030159 0.0083123561            3 
 4935000   0.45888016   -8.9239988    593.24888  0.010017712 0.0083095886            4 
 4936000   0.47052191   -8.9157889    593.66497  0.010022707 0.0083068191            4 
 4937000   0.46616466   -8.9414445    594.21002  0.010029877 0.0083040504            4 
 4938000   0.46863021   -8.9200856    594.10366  0.010026051 0.0083012824            3 
 4939000    0.4599914   -8.9320788    594.06664  0.010023396 0.0082985148            3 
 4940000   0.46236112   -8.9452088    593.79002  0.010016701 0.0082957495            4 
 4941000   0.46676565   -8.9369061    593.20459    0.0100048 0.0082929849            3 
 4942000   0.46142159   -8.9227395    593.39133  0.010005924 0.0082902231            2 
 4943000   0.46407227   -8.9275664    593.35133  0.010003226 0.0082874622            5 
 4944000   0.46304238   -8.9426328    593.70121    0.0100071 0.0082846995            2 
 4945000   0.46178539   -8.9296781    593.94997  0.010009268 0.0082819397            3 
 4946000   0.45847744   -8.9305351    593.53135  0.010000191 0.0082791782            2 
 4947000   0.45924836   -8.9450582    593.91502  0.010004633 0.0082764217            4 
 4948000   0.46014439   -8.9257862    592.88849 0.0099853221 0.0082736641            3 
 4949000   0.46043673   -8.9310046    592.59792 0.0099784119  0.008270908            4 
 4950000   0.46103632   -8.9514468    593.37986 0.0099895599 0.0082681551            5 
 4951000   0.45714651   -8.9324314    593.29968 0.0099861927 0.0082654029            6 
 4952000   0.46683114   -8.9345767    594.66742  0.010007193 0.0082626529            2 
 4953000   0.46806138   -8.9190971    593.32256 0.0099825452  0.008259902            2 
 4954000   0.45969712   -8.9268819    593.38325  0.009981551 0.0082571518            4 
 4955000   0.46396667   -8.9289608    594.06159 0.0099909449 0.0082544032            2 
 4956000   0.46495148   -8.9232149    593.60721 0.0099812888 0.0082516565            3 
 4957000     0.453395   -8.9367145    592.87221  0.009966919 0.0082489108            3 
 4958000   0.47007864   -8.9321576    593.64134 0.0099778361 0.0082461669            3 
 4959000   0.45717641   -8.9335027    593.35149 0.0099709534 0.0082434235            3 
 4960000   0.45578729   -8.9396327    593.38143  0.009969446 0.0082406803            4 
 4961000   0.46097367   -8.9261711    592.84579  0.009958439 0.0082379385            2 
 4962000   0.46351277   -8.9342279    592.96177 0.0099583798  0.008235197            2 
 4963000   0.45822646   -8.9383399    593.25979 0.0099613774 0.0082324568            3 
 4964000   0.45764979   -8.9330342    593.67487 0.0099663387 0.0082297178            4 
 4965000   0.44775998   -8.9533126    593.22059 0.0099567068 0.0082269827            3 
 4966000   0.46059198   -8.9460258    592.60273 0.0099443337 0.0082242446            3 
 4967000   0.45833117   -8.9327809    592.93002 0.0099478226 0.0082215118            2 
 4968000   0.45078849   -8.9344174     593.3564 0.0099529724 0.0082187756            6 
 4969000   0.45892975   -8.9257156    593.18719 0.0099481316  0.008216043            2 
 4970000   0.47038227    -8.938777    592.90921  0.009941469 0.0082133117            5 
 4971000   0.46184125   -8.9446781    592.33379 0.0099298229 0.0082105813            3 
 4972000   0.45536577   -8.9314712    592.60368 0.0099323491 0.0082078502            4 
 4973000   0.45488349   -8.9495837     592.8854 0.0099350727 0.0082051215            6 
 4974000   0.45440714   -8.9334611    593.12371  0.009937068 0.0082023939            5 
 4975000   0.45005994   -8.9355912    593.33843 0.0099386672 0.0081996684            3 
 4976000   0.45866693   -8.9243959    593.30715  0.009936146 0.0081969431            4 
 4977000   0.46238963   -8.9379402    593.58665 0.0099388294 0.0081942188            4 
 4978000   0.44216081    -8.946488    593.44336 0.0099344342 0.0081914953            2 
 4979000   0.45403805   -8.9340358    592.85457 0.0099225843 0.0081887718            3 
 4980000   0.45154028   -8.9379367    593.45873 0.0099307016 0.0081860526            3 
 4981000   0.46281148   -8.9497723    593.65268 0.0099319527 0.0081833335            4 
 4982000   0.45287667   -8.9552086    592.60756 0.0099124776 0.0081806139            4 
 4983000   0.45780722   -8.9455529     593.4112  0.009923928 0.0081778971            4 
 4984000   0.45101717   -8.9455158    592.59766 0.0099083344 0.0081751796            4 
 4985000   0.45882291   -8.9387299    594.09793 0.0099314265 0.0081724653            4 
 4986000   0.44476724   -8.9383527    593.09856 0.0099127316 0.0081697504            1 
 4987000   0.45128451   -8.9486369     593.3699 0.0099152781 0.0081670384            5 
 4988000   0.44519769   -8.9506838    593.34506 0.0099128752  0.008164325            3 
 4989000   0.45614617   -8.9506283    593.81124 0.0099186751 0.0081616134            1 
 4990000    0.4561059   -8.9488027    593.33024 0.0099086546 0.0081589028            3 
 4991000   0.46025333   -8.9366808    593.49063 0.0099093473 0.0081561958            6 
 4992000   0.45689959    -8.944901    593.68966 0.0099106847 0.0081534882            5 
 4993000   0.45674066   -8.9249201    593.19902  0.009900511 0.0081507832            3 
 4994000   0.45376762   -8.9460171    593.44233 0.0099025885   0.00814808            3 
 4995000   0.45135777   -8.9447262    592.40536  0.009883306 0.0081453777            2 
 4996000    0.4457296   -8.9443487    592.84117 0.0098885971  0.008142676            3 
 4997000   0.45963117    -8.932641    592.85813  0.009886901 0.0081399755            4 
 4998000   0.46079343   -8.9452857    592.55653  0.009879894 0.0081372767            4 
 4999000   0.45120087   -8.9404884    592.57413 0.0098782111  0.008134578            4 
 5000000   0.45202715   -8.9461832    593.53117 0.0098921861 0.0081318808            2 
 5001000   0.45956714   -8.9407838    593.16208 0.0098840578 0.0081291855            6 
 5002000   0.44731113   -8.9459306    593.20983 0.0098828773 0.0081264935            2 
 5003000   0.45091865   -8.9398276    593.03302 0.0098779568 0.0081238013            3 
 5004000   0.46059622    -8.958358    593.01341 0.0098756562 0.0081211089            5 
 5005000   0.45299271   -8.9695892    592.74222 0.0098691678 0.0081184174            5 
 5006000    0.4502316   -8.9461009    593.55408 0.0098807111 0.0081157268            2 
 5007000   0.44571348   -8.9497197    593.50775 0.0098779667 0.0081130381            4 
 5008000   0.45349271   -8.9312454    594.05595 0.0098851164 0.0081103509            3 
 5009000    0.4567113   -8.9542144    592.53745 0.0098578801 0.0081076631            2 
 5010000   0.44609012   -8.9423088     592.6059 0.0098570509 0.0081049785            3 
 5011000   0.44549875   -8.9508299    592.66694 0.0098560989 0.0081022928            2 
 5012000   0.43384743   -8.9482128    592.67627 0.0098542875 0.0080996097            4 
Loop time of 12305.2 on 48 procs for 5000000 steps with 4000 atoms

Performance: 70214.400 tau/day, 406.333 timesteps/s
99.4% CPU use with 48 MPI tasks x no OpenMP threads

MPI task timing breakdown:
Section |  min time  |  avg time  |  max time  |%varavg| %total
---------------------------------------------------------------
Pair    | 817.48     | 877.11     | 933.8      | 102.7 |  7.13
Neigh   | 80.672     | 84.166     | 87.267     |  22.0 |  0.68
Comm    | 789.83     | 841.47     | 910.25     | 107.8 |  6.84
Output  | 13.93      | 13.936     | 14.027     |   0.4 |  0.11
Modify  | 10356      | 10376      | 10400      |  10.1 | 84.32
Other   |            | 112.8      |            |       |  0.92

Nlocal:        83.3333 ave          92 max          78 min
Histogram: 7 4 6 8 7 9 2 3 1 1
Nghost:        2160.62 ave        2180 max        2132 min
Histogram: 1 2 3 1 8 9 7 7 8 2
Neighs:        14262.2 ave       16431 max       12625 min
Histogram: 2 5 5 10 8 9 6 2 0 1
FullNghs:      28524.1 ave       31403 max       26503 min
Histogram: 7 4 4 6 10 9 3 2 2 1

Total # of neighbors = 1369155
Ave neighs/atom = 342.28875
Neighbor list builds = 267131
Dangerous builds = 0

#clear
#
#next RN
#
#jump SELF
Total wall time: 3:25:08
