
units lj                  # Use reduced LJ style units
atom_style atomic         # Uncharged point particles
atom_modify map hash      # Needed for indexing of clusters etc
                          # Used to be able to find where atoms are in relation to each other.

# Define a lattice with which to populate the simulation cell. With units
# set to 'lj' the second argument to the lattice command is the reduced
# density rho* and the spacings are multiples of that required to acheive
# that density. Also define a simulation cell called 'box' in lattice units
# and fill it with atoms. Here we're creating a box which is ten lattice
# constants in each direction.
lattice fcc 1.0 spacing 1 1 1                 # All equal sizes - gives the right reduced density.
Lattice spacing in x,y,z = 1.5874011 1.5874011 1.5874011

region box block 0 10 0 10 0 10 units lattice # Defines a region, "box", in lattice units
create_box 1 box                              # Creates a simulation box as specified above,
Created orthogonal box = (0.0000000 0.0000000 0.0000000) to (15.874011 15.874011 15.874011)
  2 by 3 by 3 MPI processor grid
                                              # with one type of atom
create_atoms 1 box                            # Creates particles on lattice points
Created 4000 atoms
  using lattice units in orthogonal box = (0.0000000 0.0000000 0.0000000) to (15.874011 15.874011 15.874011)
  create_atoms CPU = 0.001 seconds


# Set the mass of the first (and only) atom type.
mass 1 1.0

# Lennard-Jones interactions between particles, 3.5 sigma cut-off. Apply
# long range tail corrections to energy and pressure and set all coefficients
# to unity since we work in reduced units here. Note that this doesn't shift
# the potential such that it goes to zero at the cutoff. That would require
# pair_modify('shift', 'yes').
pair_style lj/cut  3.5      # non-GPU version
pair_modify tail  yes
pair_coeff 1  1  1.0  1.0   # Intearaction between 1 and 1 set with epsilon = 1 and sigma = 1

write_data data.*
System init for write_data ...
Neighbor list info ...
  update every 1 steps, delay 10 steps, check yes
  max neighbors/atom: 2000, page size: 100000
  master list distance cutoff = 3.8
  ghost atom cutoff = 3.8
  binsize = 1.9, bins = 9 9 9
  1 neighbor lists, perpetual/occasional/extra = 1 0 0
  (1) pair lj/cut, perpetual
      attributes: half, newton on
      pair build: half/bin/atomonly/newton
      stencil: half/bin/3d
      bin: standard

#############################
#   M E L T   S Y S T E M   #
#############################

velocity all create 2.4 8172548 mom yes dist gaussian # Assign velocities
                                                    # Temperature 2.4, random number seed, zero linear momentum
						                                                        # Gaussian distribution

timestep 0.002   # simulation timestep
thermo 100       # output thermodynamic data every 100 steps

# Define a fix  in this case with index 1 applied to all
# particles in the simulation. This fix is for simulations
# in the anisotropic NPT ensemble. Note that we use the MTK
# correction.
fix 1 all npt temp 2.4 2.4 0.1 iso 5.68 5.68 0.5 mtk yes tchain 5 pchain 5 # Use NPT ensemble
                                                                         # Set temperature and pressure and damping
                                                                         # Numbers of thermostats in chain and in barostat
run 1000         # run for 10000 steps
Per MPI rank memory allocation (min/avg/max) = 3.680 | 3.683 | 3.691 Mbytes
Step Temp E_pair E_mol TotEng Press Volume 
       0          2.4   -8.3859253            0   -4.7868253   -2.2405722         4000 
     100    1.2521358   -6.5115055            0   -4.6337712    5.4508644    4089.6042 
     200    1.4689284   -6.2983762            0   -4.0955344    6.0837578    4137.2801 
     300    1.5740251   -6.0110759            0   -3.6506285    5.8428293    4272.3887 
     400    1.7007621   -5.7248177            0   -3.1743123    5.9311621    4395.3486 
     500    1.8066394   -5.4467078            0   -2.7374262    5.7861894     4545.589 
     600    1.8844107   -5.1406616            0   -2.3147521    5.8323888    4700.1474 
     700    2.0254849   -4.9242047            0    -1.886737    5.8268404    4833.6959 
     800    2.1385093   -4.7031284            0   -1.4961664    5.8326966    4964.1584 
     900    2.2562357   -4.5439597            0   -1.1604522    5.8538779    5071.7859 
    1000    2.3669211   -4.4724005            0  -0.92290647    5.7399528    5154.5285 
Loop time of 0.560654 on 18 procs for 1000 steps with 4000 atoms

Performance: 308211.322 tau/day, 1783.630 timesteps/s
99.6% CPU use with 18 MPI tasks x no OpenMP threads

MPI task timing breakdown:
Section |  min time  |  avg time  |  max time  |%varavg| %total
---------------------------------------------------------------
Pair    | 0.32046    | 0.34348    | 0.37028    |   2.4 | 61.26
Neigh   | 0.062093   | 0.0647     | 0.068021   |   0.7 | 11.54
Comm    | 0.097876   | 0.12429    | 0.14615    |   3.9 | 22.17
Output  | 0.00021365 | 0.00022214 | 0.00028722 |   0.0 |  0.04
Modify  | 0.02139    | 0.025038   | 0.028774   |   1.4 |  4.47
Other   |            | 0.002924   |            |       |  0.52

Nlocal:        222.222 ave         234 max         214 min
Histogram: 2 3 0 3 1 4 2 2 0 1
Nghost:        2030.39 ave        2051 max        2008 min
Histogram: 1 1 1 2 3 4 3 1 1 1
Neighs:        19703.8 ave       21135 max       18594 min
Histogram: 1 3 3 1 1 4 2 2 0 1

Total # of neighbors = 354669
Ave neighs/atom = 88.667250
Neighbor list builds = 86
Dangerous builds = 10

# Equilibrate just above the melting temperature to avoid step fn in T

fix 1 all npt temp 1.25 1.25 0.1 iso 5.68 5.68 0.5 mtk yes tchain 5 pchain 5
run 1000
Per MPI rank memory allocation (min/avg/max) = 3.680 | 3.684 | 3.691 Mbytes
Step Temp E_pair E_mol TotEng Press Volume 
    1000    2.3669211   -4.4724005            0  -0.92290647    5.7399528    5154.5285 
    1100    1.9578949   -4.6918684            0   -1.7557603    5.6487477    4991.6913 
    1200    1.7396677   -4.9813711            0   -2.3725219    5.5906411    4811.1244 
    1300    1.5731527   -5.2038437            0   -2.8447047    5.7283734     4660.157 
    1400    1.4617969   -5.4064956            0   -3.2143485    5.7429155    4548.2287 
    1500    1.3856267   -5.5768053            0   -3.4988849    5.5616911    4480.7352 
    1600    1.2965183   -5.6686791            0   -3.7243878    5.5183337    4437.4897 
    1700    1.2706454   -5.7482266            0   -3.8427351     5.587581    4391.7293 
    1800    1.2485176   -5.8146125            0   -3.9423043    5.4355018     4375.335 
    1900    1.2452702    -5.820016            0   -3.9525776    5.6724499    4352.6927 
    2000     1.271515   -5.8429821            0   -3.9361864    5.6243904    4346.3347 
Loop time of 0.53895 on 18 procs for 1000 steps with 4000 atoms

Performance: 320623.689 tau/day, 1855.461 timesteps/s
99.8% CPU use with 18 MPI tasks x no OpenMP threads

MPI task timing breakdown:
Section |  min time  |  avg time  |  max time  |%varavg| %total
---------------------------------------------------------------
Pair    | 0.32696    | 0.34312    | 0.35454    |   1.4 | 63.66
Neigh   | 0.05532    | 0.056858   | 0.058352   |   0.4 | 10.55
Comm    | 0.099191   | 0.11007    | 0.1226     |   2.2 | 20.42
Output  | 0.0002152  | 0.00022437 | 0.00029179 |   0.0 |  0.04
Modify  | 0.0229     | 0.025407   | 0.030199   |   1.5 |  4.71
Other   |            | 0.003273   |            |       |  0.61

Nlocal:        222.222 ave         228 max         215 min
Histogram: 1 0 1 3 2 3 5 0 0 3
Nghost:        2236.78 ave        2249 max        2225 min
Histogram: 2 1 1 2 2 5 1 1 2 1
Neighs:        23340.2 ave       24347 max       22415 min
Histogram: 1 1 3 2 3 2 3 1 0 2

Total # of neighbors = 420123
Ave neighs/atom = 105.03075
Neighbor list builds = 75
Dangerous builds = 7


# Small amount of linear quench

fix 1 all npt temp 1.25 ${temp} 0.1 iso 5.68 5.68 0.5 mtk yes tchain 5 pchain 5
fix 1 all npt temp 1.25 2.26 0.1 iso 5.68 5.68 0.5 mtk yes tchain 5 pchain 5
run 2000
Per MPI rank memory allocation (min/avg/max) = 3.680 | 3.684 | 3.691 Mbytes
Step Temp E_pair E_mol TotEng Press Volume 
    2000     1.271515   -5.8429821            0   -3.9361864    5.6243904    4346.3347 
    2100    1.2533269   -5.8307111            0   -3.9511907    5.6398504     4353.166 
    2200    1.3206722   -5.7826565            0   -3.8021435    5.6939929    4372.6023 
    2300    1.3351076   -5.7121387            0    -3.709978    5.5080572    4419.3409 
    2400    1.3873151   -5.6719283            0    -3.591476    5.3839268    4452.5922 
    2500    1.4451763   -5.5989553            0   -3.4317328    5.6247492    4468.5726 
    2600    1.4912636   -5.5137841            0    -3.277448    5.8040534    4497.0159 
    2700    1.5388076   -5.4382054            0   -3.1305711    5.8364461      4533.16 
    2800    1.5752292   -5.3695552            0   -3.0073022    5.6884703    4577.3753 
    2900    1.6376712   -5.3068549            0   -2.8509623    5.6338769    4618.4764 
    3000    1.7059355   -5.2557326            0   -2.6974692    5.5693262    4660.1087 
    3100    1.7498853    -5.188259            0   -2.5640872    5.5379475    4699.9886 
    3200    1.8042918   -5.0827134            0   -2.3769524     5.878613     4722.097 
    3300    1.8424894   -5.0141919            0   -2.2511488    5.6411848    4786.5337 
    3400    1.8741331   -4.9535329            0    -2.143036    5.4949738    4844.8324 
    3500    1.9568945   -4.8963173            0   -1.9617094    5.5689421    4871.9794 
    3600    1.9923975   -4.7846949            0   -1.7968459    5.9054052    4895.9547 
    3700    2.0789297   -4.7686644            0   -1.6510495    5.8487285    4926.4424 
    3800    2.1206777   -4.7034627            0   -1.5232413    5.8278572    4965.3088 
    3900    2.1645831   -4.6637273            0   -1.4176644    5.6078098    5023.4641 
    4000    2.1558732   -4.5567273            0   -1.3237259    5.6093327    5086.7719 
Loop time of 1.06868 on 18 procs for 2000 steps with 4000 atoms

Performance: 323390.031 tau/day, 1871.470 timesteps/s
99.7% CPU use with 18 MPI tasks x no OpenMP threads

MPI task timing breakdown:
Section |  min time  |  avg time  |  max time  |%varavg| %total
---------------------------------------------------------------
Pair    | 0.64094    | 0.67279    | 0.69783    |   2.1 | 62.96
Neigh   | 0.11473    | 0.11867    | 0.12213    |   0.5 | 11.10
Comm    | 0.19746    | 0.2207     | 0.24771    |   3.1 | 20.65
Output  | 0.00042159 | 0.00043922 | 0.0005599  |   0.0 |  0.04
Modify  | 0.044439   | 0.049812   | 0.059788   |   2.2 |  4.66
Other   |            | 0.00627    |            |       |  0.59

Nlocal:        222.222 ave         230 max         217 min
Histogram: 5 1 1 3 2 0 2 1 2 1
Nghost:        2044.22 ave        2061 max        2017 min
Histogram: 1 0 1 2 1 2 4 3 2 2
Neighs:        19997.0 ave       21070 max       18998 min
Histogram: 1 2 3 2 1 2 3 2 1 1

Total # of neighbors = 359946
Ave neighs/atom = 89.986500
Neighbor list builds = 157
Dangerous builds = 12

#############################
# F R E E Z E  S Y S T E M  #
#############################

# Define solid atoms. This closely follows ten Wolde  Ruiz-Montero and Frenkel  Faraday Discuss  1996  104  93-110
# Compute components of the per-atom q6 vector
compute q6 all orientorder/atom degrees 1 6 components 6 nnn NULL cutoff 1.3 # compute the Q6 parameter.
                                                                             # Use all neighbours within 1.3 unit cell.

# get number of connections
compute coord_number all coord/atom orientorder q6 0.5

# An atom is solid if it has 8 or more connections (of a possible 14)
variable is_solid atom c_coord_number>=8
group solid dynamic all var is_solid    # Must be dynamic to update
dynamic group solid defined

# do clustering
compute cluster solid cluster/atom 1.3 # Create a cluster where all atoms within are solid and max 1.3 units from another member

# define chunks one chunk per cluster
compute clus_chunks solid chunk/atom c_cluster nchunk every compress yes  # Says which atoms are in which chunk

# count the size of each chunk
compute size_chunks solid property/chunk clus_chunks count


# Find the maximum entry in the vector of chunk sizes
variable max_n equal max(c_size_chunks)


# Thermo style which includes this variable
thermo_style custom step temp pe vol v_max_n

thermo ${N}  # Print the thermo information every 100 steps
thermo 100  

# Reset the npt fix at a lower temperature (below freezing)
fix 1  all npt temp  ${temp} ${temp}  0.1  iso  5.68  5.68  0.5  mtk yes tchain  5  pchain  5
fix 1  all npt temp  2.26 ${temp}  0.1  iso  5.68  5.68  0.5  mtk yes tchain  5  pchain  5
fix 1  all npt temp  2.26 2.26  0.1  iso  5.68  5.68  0.5  mtk yes tchain  5  pchain  5

dump dmp2 all dcd ${N} traj_${rand}.dcd
dump dmp2 all dcd 100 traj_${rand}.dcd
dump dmp2 all dcd 100 traj_462431.dcd


# fix rnuntil all halt ${N} v_max_n >= 3980 error soft message no   # Stop when solidified


run 100000 # 5000000  # Run for this many steps
Neighbor list info ...
  update every 1 steps, delay 10 steps, check yes
  max neighbors/atom: 2000, page size: 100000
  master list distance cutoff = 3.8
  ghost atom cutoff = 3.8
  binsize = 1.9, bins = 10 10 10
  4 neighbor lists, perpetual/occasional/extra = 1 3 0
  (1) pair lj/cut, perpetual
      attributes: half, newton on
      pair build: half/bin/atomonly/newton
      stencil: half/bin/3d
      bin: standard
  (2) compute orientorder/atom, occasional
      attributes: full, newton on
      pair build: full/bin/atomonly
      stencil: full/bin/3d
      bin: standard
  (3) compute coord/atom, occasional
      attributes: full, newton on
      pair build: full/bin/atomonly
      stencil: full/bin/3d
      bin: standard
  (4) compute cluster/atom, occasional
      attributes: full, newton on
      pair build: full/bin/atomonly
      stencil: full/bin/3d
      bin: standard
Per MPI rank memory allocation (min/avg/max) = 9.437 | 9.442 | 9.447 Mbytes
Step Temp PotEng Volume v_max_n 
    4000    2.1558732   -4.5567273    5086.7719            1 
    4100    2.2701966   -4.5624413     5078.443            1 
    4200    2.2491489   -4.5135588    5120.7428            1 
    4300     2.260427   -4.4584192     5149.976       -1e+20 
    4400    2.2478449   -4.4937838    5100.5965            1 
    4500     2.252401   -4.5512496    5128.3367            1 
    4600    2.2744302   -4.5228221    5081.6189            1 
    4700    2.2641934   -4.5545884    5109.2922            2 
    4800    2.2696193   -4.5058492    5153.1358       -1e+20 
    4900    2.2998488   -4.4597155    5123.7532       -1e+20 
    5000     2.245726   -4.5111761     5094.888            1 
    5100    2.2301563   -4.5017704    5128.4894            1 
    5200    2.2847809   -4.4958949     5113.151       -1e+20 
    5300      2.21499   -4.4901854    5138.6941       -1e+20 
    5400     2.270298   -4.4686183    5106.1608            1 
    5500    2.2533984    -4.466091    5151.8506       -1e+20 
    5600    2.2668292   -4.5225989    5131.2646            1 
    5700    2.2894359   -4.4855953    5107.4747            2 
    5800    2.2139211   -4.5019745    5150.5967            1 
    5900    2.3270646   -4.4896809    5112.6963            1 
    6000    2.2227443   -4.4967284    5185.6591       -1e+20 
    6100    2.2846117   -4.4672715    5136.4656            1 
    6200    2.2670766   -4.4821481    5135.4133            1 
    6300    2.2445254   -4.5319313    5130.3899            1 
    6400    2.2876721   -4.5179159    5110.3405            1 
    6500    2.2435091    -4.490418    5152.4318       -1e+20 
    6600    2.3046343   -4.4811594    5120.3179       -1e+20 
    6700    2.2424248   -4.4980803    5115.9272            1 
    6800    2.2654581   -4.4804036    5152.0472            1 
    6900    2.3463326   -4.5023033    5140.6455            1 
    7000     2.259537   -4.5223816    5140.8048            1 
    7100    2.2901703   -4.4779507    5130.8581            1 
    7200    2.2378194   -4.4679868    5162.1814       -1e+20 
    7300    2.3162551   -4.5340595    5117.1673            1 
    7400    2.2497508   -4.5252105    5104.1502            1 
    7500    2.2796423   -4.4881119    5148.9567            1 
    7600     2.269864   -4.4690065    5119.8397            1 
    7700    2.2701313   -4.4981629    5138.2495       -1e+20 
    7800    2.2332477   -4.5336121    5127.8882            1 
    7900    2.3037419   -4.5030702    5101.6936            1 
    8000    2.2030134   -4.4805573    5138.4267            1 
    8100    2.2761826   -4.4628938    5121.4225            1 
    8200    2.2143193   -4.5096703    5125.5417            1 
    8300    2.3014082   -4.5316055    5096.9434       -1e+20 
    8400    2.2447744   -4.5007397    5143.0247       -1e+20 
    8500    2.3158921    -4.474787    5136.6533            1 
    8600    2.2384789   -4.4893134    5132.0887            1 
    8700    2.2757307   -4.5025201    5127.0855            1 
    8800     2.213256   -4.5278506    5109.7971       -1e+20 
    8900    2.2675058   -4.5137141    5125.0152       -1e+20 
    9000    2.2822685   -4.5284237    5118.5432            1 
    9100    2.2327221     -4.52481    5121.4489            1 
    9200     2.246428    -4.457395     5156.949       -1e+20 
    9300    2.2852074   -4.4444909    5154.4245            1 
    9400    2.2398423   -4.4823959    5135.0584       -1e+20 
    9500    2.2646359   -4.4895417    5111.3651            1 
    9600    2.2175276   -4.5279832    5117.4063       -1e+20 
    9700     2.265463   -4.5020301    5112.4891            1 
    9800    2.2335034   -4.5054322    5098.5551            1 
    9900    2.2671236   -4.4958495     5114.402            1 
   10000    2.2461891   -4.4388911    5165.8226            1 
   10100    2.2810364   -4.4580892    5134.4132       -1e+20 
   10200    2.2740286   -4.5128661    5138.3784            1 
   10300    2.2116038   -4.5390744    5136.2158            1 
   10400    2.2960671   -4.4985512     5100.371       -1e+20 
   10500    2.2471152   -4.5284825    5136.3354       -1e+20 
   10600    2.2992659   -4.4924696     5148.813       -1e+20 
   10700    2.2463992   -4.4480867    5140.7492            1 
   10800    2.2749718   -4.5355706    5118.3866            1 
   10900    2.2357045     -4.56299    5098.1594            1 
   11000     2.292292   -4.5250513    5104.5814            1 
   11100    2.2524475   -4.5063715     5117.877       -1e+20 
   11200    2.1860506   -4.5157031    5096.6717            1 
   11300     2.251953   -4.5050172     5107.483            1 
   11400    2.2614622   -4.5221496    5139.0409            1 
   11500    2.3099072   -4.5164974    5120.1934            3 
   11600    2.2252027   -4.5137789    5141.8347       -1e+20 
   11700    2.3424786   -4.5033651    5095.7952            1 
   11800    2.2363056   -4.5082195    5147.2138       -1e+20 
   11900    2.2488097   -4.5213208    5129.0105       -1e+20 
   12000    2.2930203   -4.5252584    5075.8293            1 
   12100    2.2569219   -4.4854745    5160.0755       -1e+20 
   12200    2.3314658      -4.5176    5153.3228            1 
   12300    2.2965479    -4.547021    5106.1674            2 
   12400    2.2485927   -4.5477648    5137.2645       -1e+20 
   12500    2.2932019   -4.5080664    5124.6294       -1e+20 
   12600    2.2385986    -4.510032    5117.3346       -1e+20 
   12700    2.2226001   -4.4937552    5112.3114            1 
   12800    2.2980657   -4.4883487    5119.4787            1 
   12900    2.2155958   -4.4909892    5137.9269       -1e+20 
   13000    2.3058594   -4.4923456    5123.1718            1 
   13100    2.2143189   -4.4754931    5109.3338            2 
   13200    2.2500409   -4.5451654    5132.0315       -1e+20 
   13300    2.2954139   -4.4668582    5125.1495            1 
   13400    2.2609329   -4.5228362      5123.15            1 
   13500    2.2527364   -4.5813721    5084.9267            1 
   13600    2.2257467   -4.4932894    5097.9054            1 
   13700     2.232591   -4.4812158    5135.6095            1 
   13800    2.2879501   -4.5013633    5111.3943       -1e+20 
   13900     2.232163   -4.4878372    5120.4602            1 
   14000    2.2710506    -4.451123    5178.6642            1 
   14100      2.29974   -4.4574501    5151.6075       -1e+20 
   14200    2.2674633   -4.5249044     5154.082            1 
   14300    2.2513037   -4.4995469    5102.3543            1 
   14400    2.2593062   -4.5501582    5078.1751       -1e+20 
   14500    2.2748103    -4.501402    5112.0224            1 
   14600    2.2562992   -4.5049458    5165.4383       -1e+20 
   14700    2.2635866   -4.4665185    5107.0324            1 
   14800    2.2580897   -4.5127407    5141.2253       -1e+20 
   14900     2.240597   -4.5169509    5107.6335            2 
   15000    2.2745081   -4.4701984    5097.6007            1 
   15100    2.2091959   -4.4788509      5172.21            1 
   15200    2.3361091   -4.5136007    5114.1827       -1e+20 
   15300    2.2522628    -4.500998    5124.0235            1 
   15400     2.263802   -4.5757053    5121.3607            1 
   15500    2.2488112   -4.5456714    5078.2587            1 
   15600    2.2597599   -4.5083764     5115.089       -1e+20 
   15700    2.2715097   -4.5099972    5141.3311            1 
   15800    2.2632872   -4.4821494     5137.467            1 
   15900    2.2487258   -4.4899763    5140.8459       -1e+20 
   16000    2.2219917   -4.4946418    5093.2439       -1e+20 
   16100    2.2711836   -4.4740173    5145.5801       -1e+20 
   16200    2.2536601   -4.4461174    5153.8608            1 
   16300    2.2552433   -4.5069765    5126.5951       -1e+20 
   16400    2.2884268   -4.5753846    5101.8263            1 
   16500    2.1959856   -4.5051727    5102.1775            1 
   16600    2.2776855   -4.5018515    5108.0763       -1e+20 
   16700    2.2600036   -4.5202513    5126.2759            1 
   16800    2.2413349   -4.5324486    5108.8079            2 
   16900    2.2978741   -4.5335342    5094.1588       -1e+20 
   17000    2.2106921   -4.5051293    5121.3597            1 
   17100    2.2664803   -4.4910533    5102.2438            1 
   17200     2.254814   -4.4361737     5191.666            1 
   17300    2.3051106   -4.5081261    5126.5751            1 
   17400    2.2464109   -4.5085781    5130.8163       -1e+20 
   17500    2.2798575   -4.4925583    5126.8512       -1e+20 
   17600    2.2859595   -4.5119459    5153.7227       -1e+20 
   17700    2.2578117   -4.5016481    5076.1866       -1e+20 
   17800    2.2687367   -4.5522019    5149.1733            2 
   17900    2.2739539   -4.5473565    5120.0633            1 
   18000    2.2556958   -4.4496824    5131.5711            1 
   18100    2.2623309    -4.518691     5151.161       -1e+20 
   18200    2.2649596   -4.4595039    5114.9678            1 
   18300    2.2151435    -4.440984    5141.5731            1 
   18400    2.2372227   -4.4897185    5097.1172            1 
   18500    2.2492403   -4.5156273    5115.7761       -1e+20 
   18600    2.2467702   -4.4963001     5154.987            1 
   18700    2.3382002   -4.4707413      5129.08            1 
   18800    2.2040762   -4.4790303     5174.444            1 
   18900    2.2751914   -4.4932236    5101.7398       -1e+20 
   19000    2.2629885   -4.5168143    5126.1219            1 
   19100     2.237319   -4.4722065    5126.9003       -1e+20 
   19200    2.2464227   -4.4657326    5115.7704            1 
   19300     2.300175   -4.4495068     5153.091            1 
   19400    2.2388177   -4.5175464    5159.6408            1 
   19500    2.2436455   -4.5112632     5087.507            1 
   19600    2.2257191   -4.5209777    5102.3952            1 
   19700    2.2618703   -4.5230937    5096.6521            1 
   19800    2.2621814   -4.5469799    5102.9869            1 
   19900    2.2403174   -4.5528031    5117.7328            1 
   20000     2.303092   -4.5135482     5119.909            1 
   20100    2.2694114   -4.5422157    5127.5431            1 
   20200    2.2186554   -4.5217231    5115.7839            1 
   20300    2.2929384   -4.5039628    5117.3019       -1e+20 
   20400     2.272998   -4.4987666    5130.2832            1 
   20500    2.2225714   -4.4978893    5145.9525            1 
   20600    2.2719919   -4.4756618    5103.4304            1 
   20700    2.2659711   -4.4793364    5148.1061       -1e+20 
   20800    2.2260308   -4.4501331    5155.7387            1 
   20900    2.2719028   -4.4785544    5122.1755            1 
   21000    2.2495324   -4.5000546    5160.5751       -1e+20 
   21100      2.33876   -4.5154227    5145.2325            1 
   21200     2.239158     -4.47516    5127.0771            1 
   21300    2.2521739     -4.47775    5149.2711            1 
   21400    2.3383811   -4.5110086    5133.0895       -1e+20 
   21500    2.2192056   -4.4699539    5126.3099            2 
   21600    2.2925605   -4.4852042     5127.047       -1e+20 
   21700    2.1990983   -4.5002219    5148.6325            1 
   21800    2.3120047   -4.5377417    5089.4967            1 
   21900    2.2399117   -4.5194318     5129.937       -1e+20 
   22000    2.2742292   -4.5215508    5136.4957       -1e+20 
   22100    2.2883892   -4.4672769    5155.8683            1 
   22200    2.2748057   -4.5036667    5132.1785            1 
   22300    2.2655447   -4.5294009    5121.3221            1 
   22400    2.2806033   -4.5307003    5107.5274            2 
   22500    2.2340246   -4.4896309    5120.9689            1 
   22600    2.2693363   -4.5380677    5108.6986            1 
   22700     2.228634   -4.4639171    5131.9043       -1e+20 
   22800    2.2580871   -4.4368946    5082.5822       -1e+20 
   22900    2.2381437   -4.5388683    5145.5471            1 
   23000    2.2745185   -4.5285747    5090.4329            1 
   23100    2.2826305   -4.5518785    5128.8343            1 
   23200    2.3019182   -4.5038609    5146.1461            1 
   23300     2.249265   -4.5471184     5150.033            1 
   23400    2.2862985   -4.4864974    5112.8294       -1e+20 
   23500    2.3008644   -4.4683765    5153.7993       -1e+20 
   23600    2.2200038    -4.495817    5144.3327            2 
   23700    2.2476886   -4.5017239    5094.5626            1 
   23800     2.240474   -4.5266118    5103.9822            1 
   23900    2.2446768   -4.4925918    5124.3103            1 
   24000    2.3132134   -4.4889519    5120.5733            1 
   24100     2.186911    -4.472755    5147.0936       -1e+20 
   24200    2.3052026   -4.5407015    5092.2532            1 
   24300    2.2400875    -4.529847    5115.5556            1 
   24400    2.2582124   -4.4898571    5145.3484       -1e+20 
   24500    2.2004265   -4.4899183    5105.3418       -1e+20 
   24600    2.2444441   -4.5165758    5114.7484            1 
   24700    2.2845381   -4.5027158    5139.8766       -1e+20 
   24800    2.1944523   -4.4569635    5129.0224            1 
   24900    2.2815993   -4.4892499    5112.3248       -1e+20 
   25000    2.2688479   -4.5246794    5153.0622            1 
   25100    2.2611282   -4.4803036     5105.818       -1e+20 
   25200     2.278947   -4.5187502    5115.6376            1 
   25300    2.2218882   -4.5083413    5157.6325            1 
   25400    2.3248776   -4.5253312     5113.498            1 
   25500    2.2322527    -4.502258    5120.2363       -1e+20 
   25600     2.251538   -4.5075847     5119.397       -1e+20 
   25700    2.2732656   -4.4827285    5127.1452            1 
   25800    2.2791583    -4.434334    5175.7781            1 
   25900    2.2679587   -4.4965545    5141.8449            1 
   26000     2.269187   -4.5172519    5124.8936       -1e+20 
   26100    2.2848448    -4.497312    5121.5428            1 
   26200    2.2029727   -4.4780228    5114.1267            1 
   26300    2.2541562   -4.4650275    5125.7707       -1e+20 
   26400    2.2388953   -4.4445942    5144.9444            1 
   26500    2.2675195    -4.437328    5163.2307            1 
   26600    2.2862002   -4.4251996    5175.8955       -1e+20 
   26700    2.2676191   -4.4778956     5133.456       -1e+20 
   26800    2.2456766   -4.5139363     5138.526            1 
   26900    2.2657474   -4.5479833    5102.1947            1 
   27000    2.2309465   -4.4928898    5094.6179            1 
   27100    2.2547171   -4.4889635    5136.5366       -1e+20 
   27200    2.2852253   -4.4222841    5151.0421       -1e+20 
   27300     2.223355    -4.474306    5171.6802       -1e+20 
   27400    2.2715868   -4.5058411    5110.9436            1 
   27500    2.2609924   -4.5083159    5107.3094       -1e+20 
   27600    2.2548387   -4.5093593    5119.4367            1 
   27700     2.250505   -4.4700973    5116.5019            1 
   27800    2.2434409   -4.4620548    5144.4314       -1e+20 
   27900    2.2302369   -4.5181193    5084.8537       -1e+20 
   28000    2.2382323    -4.510078    5097.5854            1 
   28100     2.291734   -4.4956192    5149.6229            1 
   28200      2.26999   -4.4902458    5138.8725            1 
   28300    2.2343023   -4.5149783    5126.9255            2 
   28400    2.2847951   -4.4728392    5123.3036            1 
   28500    2.2203143   -4.4674854     5130.892            1 
   28600    2.2567078   -4.5172294    5133.3645       -1e+20 
   28700    2.2764669   -4.5377783    5105.2229       -1e+20 
   28800    2.2458187   -4.5478437    5075.1244       -1e+20 
   28900    2.2304441   -4.5026009    5112.7201            1 
   29000    2.2707344    -4.472188    5140.6969            1 
   29100    2.2474718   -4.5012861    5124.0551            1 
   29200      2.22211    -4.528574    5115.6916            1 
   29300    2.2820651   -4.5230724    5129.0632            1 
   29400    2.2485608   -4.5478738     5109.839            1 
   29500     2.234623   -4.5952926    5040.6088       -1e+20 
   29600    2.2343822   -4.5921821    5097.9628            1 
   29700    2.2408729   -4.4940932    5093.6132            1 
   29800    2.2962614   -4.5049266    5133.6063       -1e+20 
   29900    2.2153377   -4.4996055    5145.5581            1 
   30000    2.2608326   -4.4547814    5120.3942            1 
   30100    2.2221436   -4.4745936    5151.3878       -1e+20 
   30200    2.3073766   -4.4785751    5134.3544            1 
   30300    2.2679763   -4.5280717    5115.9076            1 
   30400    2.2324062   -4.5246276    5098.7833       -1e+20 
   30500    2.2506334   -4.4525956    5118.3763            1 
   30600    2.2500887   -4.4551717    5147.3134       -1e+20 
   30700    2.2613671   -4.5059593    5142.7617            1 
   30800    2.2502386   -4.4884084    5113.4895       -1e+20 
   30900    2.2725142   -4.4548835    5162.0551       -1e+20 
   31000    2.2357818   -4.4645442    5132.6575            1 
   31100    2.2636936   -4.5381602    5099.4415       -1e+20 
   31200    2.2646204   -4.5068239    5116.8416       -1e+20 
   31300    2.2531606   -4.4415883    5146.3884            1 
   31400    2.2245058   -4.5122265    5128.7488            1 
   31500    2.2809861   -4.5185456    5125.5988            1 
   31600    2.2591377   -4.5651574     5113.149            1 
   31700    2.2349021   -4.5512562    5082.0514            1 
   31800    2.2493496    -4.484484    5112.0784            1 
   31900    2.2621517   -4.5334085    5142.7606            2 
   32000    2.2256125   -4.5039046    5090.3465            1 
   32100    2.2625225   -4.4676238    5134.2701       -1e+20 
   32200    2.2660211   -4.4651463    5157.1121            1 
   32300    2.2210758   -4.5099166    5138.6533            1 
   32400    2.2912122   -4.5167706    5119.9453            1 
   32500    2.2231747   -4.4757711    5135.6508       -1e+20 
   32600    2.3031696   -4.5124138    5122.1105       -1e+20 
   32700    2.2377372   -4.5258439    5115.8149       -1e+20 
   32800    2.2831006   -4.5175998    5112.3319            1 
   32900     2.344699   -4.4842875    5153.2189       -1e+20 
   33000    2.2723405   -4.4603958    5147.2101       -1e+20 
   33100    2.2603692   -4.4849297    5109.5695            1 
   33200    2.1989393   -4.5138933    5098.2135       -1e+20 
   33300     2.246322   -4.4879146    5114.8792       -1e+20 
   33400    2.2891012   -4.5040907    5133.7324            1 
   33500    2.2538671   -4.5622103     5103.379            1 
   33600    2.2750712   -4.5191173    5104.8477            1 
   33700    2.2793141   -4.5324586    5146.2735            1 
   33800     2.281676   -4.4450876    5145.2708            1 
   33900    2.2736925   -4.5157595    5100.8746       -1e+20 
   34000    2.2225003   -4.5365804    5136.8252       -1e+20 
   34100    2.2860085   -4.4523694    5120.3445            1 
   34200    2.2519936   -4.4963508    5141.4796       -1e+20 
   34300    2.2864539   -4.4534616    5140.5076            1 
   34400    2.2616511   -4.5024765    5105.5321            2 
   34500    2.2314895   -4.5299544    5114.6013            2 
   34600    2.2766642   -4.4865607    5100.8392            1 
   34700    2.2529279   -4.5598057    5132.6627            1 
   34800    2.2231084   -4.5268647    5085.8228            1 
   34900     2.249771   -4.4923087    5111.3619            1 
   35000    2.2395174   -4.4835577    5136.2776       -1e+20 
   35100    2.2930414   -4.4605267    5150.8107            1 
   35200    2.2735232   -4.5001009    5125.1044       -1e+20 
   35300    2.2547733   -4.5089706     5132.354            1 
   35400    2.2421288   -4.5449994    5091.8322            1 
   35500      2.27591   -4.5299548    5105.4973            1 
   35600    2.2387433   -4.4989446    5150.5043       -1e+20 
   35700    2.3422597   -4.5021599    5137.9112       -1e+20 
   35800    2.2792519   -4.5108553    5125.9636            1 
   35900    2.2558867   -4.5693797    5136.2149       -1e+20 
   36000    2.3010209   -4.5110027    5101.1053            1 
   36100    2.2290586   -4.5343524    5124.2814            1 
   36200    2.2733395   -4.5275391    5089.1981       -1e+20 
   36300    2.3247188   -4.5159478    5129.5473       -1e+20 
   36400    2.2070331   -4.4651396    5148.8924            1 
   36500    2.2775702   -4.4489771     5142.939            1 
   36600    2.2975736   -4.4782841    5171.9853       -1e+20 
   36700    2.2789599   -4.5413078    5099.8808            1 
   36800    2.2454243   -4.5469771    5098.4461            1 
   36900    2.2789284   -4.4833845    5130.5238            1 
   37000    2.3027725   -4.4931579    5151.5096       -1e+20 
   37100    2.2468382   -4.5135396    5121.0549       -1e+20 
   37200    2.2320924    -4.506646    5101.9845       -1e+20 
   37300    2.2868462   -4.4865874    5103.7268            1 
   37400    2.2220719   -4.4845784    5137.4634       -1e+20 
   37500    2.2214781   -4.5191877    5091.8669            1 
   37600    2.2672221   -4.4919654     5098.085            1 
   37700    2.2671833   -4.5253965    5126.8652            1 
   37800    2.2126361    -4.528037    5114.6265            1 
   37900    2.2995438   -4.5102046    5100.7301       -1e+20 
   38000    2.2267947   -4.5109256    5127.9058            1 
   38100    2.2760776   -4.5112747    5123.0862            1 
   38200    2.2418471   -4.5278087    5119.0599            2 
   38300    2.2460387   -4.5090128    5099.0299            1 
   38400     2.216159   -4.4986258    5123.2001            1 
   38500    2.3012914   -4.4761084    5093.9954            1 
   38600    2.2346525   -4.4762969    5174.2933       -1e+20 
   38700    2.2581423   -4.5152901    5113.0872            1 
   38800    2.2947308   -4.5326387    5115.8655       -1e+20 
   38900    2.2320877    -4.500171    5144.9512            1 
   39000     2.310477   -4.5155571    5104.1352            1 
   39100    2.2464716   -4.5451105    5146.1657       -1e+20 
   39200    2.2788495   -4.4981752    5112.9594            1 
   39300    2.2407579   -4.5339447    5119.0702       -1e+20 
   39400    2.2445394   -4.5406833    5061.7303            1 
   39500    2.3136488   -4.5795455    5106.7025            1 
   39600    2.2641394   -4.5781137    5117.0198            1 
   39700    2.3100214   -4.5242164    5088.2051            1 
   39800    2.2433139    -4.550684    5121.3961       -1e+20 
   39900    2.2426026   -4.5014454    5102.3665            1 
   40000    2.2949763    -4.494913     5139.279            1 
   40100    2.2653642   -4.5340431    5135.7579       -1e+20 
   40200    2.2575732    -4.541138    5080.3466            1 
   40300    2.2365821   -4.4969086    5124.9904            1 
   40400    2.2785239   -4.5365932    5143.2059            1 
   40500     2.241133   -4.5460214    5095.5567            1 
   40600    2.2428271   -4.5487355    5072.5497       -1e+20 
   40700    2.2970894   -4.5812245      5112.91            1 
   40800    2.2410712   -4.5281133    5113.4807            2 
   40900    2.3064423   -4.4938943    5105.0916            1 
   41000     2.223894   -4.4825942    5155.7257       -1e+20 
   41100    2.2369949   -4.5296799    5073.5996            1 
   41200    2.2962654   -4.5408248    5124.2428            1 
   41300    2.2403154   -4.5007289    5101.3965            2 
   41400    2.2552213   -4.5190192    5145.4981            1 
   41500    2.2708131   -4.4819728     5116.211            1 
   41600    2.2512047   -4.5325407    5078.6281            1 
   41700    2.2254681   -4.5310602    5084.7081            1 
   41800    2.2670971   -4.4772909    5114.5024            1 
   41900    2.2833568    -4.492174    5152.2145       -1e+20 
   42000     2.260308   -4.5636525    5131.1233       -1e+20 
   42100     2.268499   -4.5213123     5105.682       -1e+20 
   42200    2.2565557   -4.4317027    5148.8232       -1e+20 
   42300    2.2521612   -4.4881917    5154.8082            1 
   42400     2.286448   -4.5318816    5078.6984            1 
   42500    2.2491449    -4.548067    5124.9849            1 
   42600    2.2799784   -4.5426323    5104.0398       -1e+20 
   42700    2.2501011   -4.5574042    5081.2477            1 
   42800    2.2742132   -4.5513913    5094.0712            1 
   42900    2.2964444   -4.5221384    5149.5139            1 
   43000    2.2547959   -4.5020458    5119.8614            1 
   43100    2.2345472   -4.4857302    5121.6669            1 
   43200    2.2642612   -4.4895668    5110.5115       -1e+20 
   43300    2.2236871   -4.5354546    5102.7086            1 
   43400    2.2570916   -4.4971894    5138.4558       -1e+20 
   43500    2.3156261   -4.5081491    5136.2868            1 
   43600    2.2338675   -4.5164334    5121.9879       -1e+20 
   43700    2.2900791   -4.5135746    5129.7939       -1e+20 
   43800    2.2794578   -4.5291892    5130.0264       -1e+20 
   43900    2.2759088   -4.5574574    5110.0746            1 
   44000    2.2618328   -4.5086391    5114.1939       -1e+20 
   44100    2.2853741   -4.5569349    5120.9403            1 
   44200    2.2687173   -4.5418767    5104.5028       -1e+20 
   44300    2.2292164   -4.5093762    5127.7091            1 
   44400    2.2878208   -4.4664577    5147.6956            1 
   44500    2.2430467   -4.4523573    5153.5643            1 
   44600    2.2719797   -4.4972808    5137.4872            1 
   44700     2.260621   -4.5483783    5093.2225       -1e+20 
   44800    2.2406148   -4.5180231    5128.7438            1 
   44900    2.2479972   -4.4547244    5119.0234       -1e+20 
   45000    2.2799253   -4.4980463    5136.8171            1 
   45100     2.226271     -4.50273    5154.2115       -1e+20 
   45200    2.3065673   -4.5026636    5100.0031            1 
   45300    2.2310658   -4.5115632    5126.6881       -1e+20 
   45400    2.3004187   -4.5134048    5128.3173            1 
   45500    2.2783174   -4.4396247    5164.7706            1 
   45600    2.2828519   -4.5354245    5102.6712       -1e+20 
   45700     2.237156   -4.5325293    5135.1604            1 
   45800    2.2761311   -4.4858178    5134.5244            1 
   45900    2.2494284   -4.4907066    5145.2969       -1e+20 
   46000    2.2906807   -4.4515716    5151.2725            1 
   46100     2.258833   -4.4965799    5128.6144            1 
   46200    2.2445993   -4.5917112    5105.7399            1 
   46300    2.2675301   -4.5127882    5098.1735       -1e+20 
   46400    2.2654736   -4.4992696    5115.8038       -1e+20 
   46500    2.2311731   -4.5490946    5121.8342            1 
   46600    2.2669517   -4.5240642    5082.7097            1 
   46700     2.266306   -4.4961326    5158.0798            1 
   46800    2.2396717   -4.4548487    5137.1463            1 
   46900    2.2957277    -4.471266    5122.6753            1 
   47000    2.2056648   -4.4675204    5166.2215       -1e+20 
   47100    2.3419916   -4.4651452    5110.0313       -1e+20 
   47200    2.2389066   -4.5212836    5143.3514            1 
   47300    2.2407839   -4.5438148    5101.2314            1 
   47400    2.2719872   -4.5369819    5101.8794            1 
   47500    2.2585368   -4.5474516    5137.0191            1 
   47600    2.3013439   -4.5050959    5136.0282            1 
   47700    2.2282468   -4.4823601    5146.7194            1 
   47800    2.2668003    -4.488565    5116.4808            1 
   47900    2.2588915   -4.4893876    5159.8184       -1e+20 
   48000    2.2465867   -4.5199089    5094.3714            1 
   48100    2.2598319   -4.5039135    5127.3748            1 
   48200    2.2737878   -4.5278501    5136.7443       -1e+20 
   48300    2.2487832   -4.5149907    5099.0875       -1e+20 
   48400    2.2515038   -4.5355637    5105.3995       -1e+20 
   48500    2.2735547    -4.529345    5135.9284       -1e+20 
   48600    2.3011715   -4.5169015    5132.5591            1 
   48700    2.2475009   -4.5536782    5125.2827       -1e+20 
   48800     2.282069   -4.4922617    5113.1808       -1e+20 
   48900     2.215239   -4.4621661    5147.1058            1 
   49000    2.2402805   -4.4277868     5133.823            2 
   49100    2.2952819   -4.4761014    5151.1519            1 
   49200    2.2352762   -4.4753129    5162.1654       -1e+20 
   49300     2.337035   -4.5512665    5111.2698            1 
   49400    2.2282721   -4.5382801    5117.6617            1 
   49500    2.2773642   -4.5071795    5114.7948            1 
   49600    2.2615769    -4.486855    5139.4567       -1e+20 
   49700    2.2585666    -4.537809    5135.8867            1 
   49800    2.2776078   -4.5034821    5074.9864       -1e+20 
   49900    2.2127459   -4.5077913    5156.6186       -1e+20 
   50000    2.2846529   -4.4941219     5134.904            1 
   50100    2.2510162   -4.4539518    5147.1683       -1e+20 
   50200    2.2673068   -4.4875722    5175.0947       -1e+20 
   50300    2.2490999   -4.5285986    5098.3834       -1e+20 
   50400    2.2434514   -4.5443978    5096.3724       -1e+20 
   50500    2.2775915    -4.523658     5141.429       -1e+20 
   50600    2.2613968   -4.4755924    5130.2177       -1e+20 
   50700    2.2507798   -4.5051436    5111.2167            1 
   50800    2.2738391   -4.4972591    5132.5092            1 
   50900    2.2769268   -4.5024294    5108.4677            1 
   51000    2.2180734   -4.5340173    5107.5967            1 
   51100    2.2668652   -4.5026935    5073.4417            1 
   51200    2.2087821   -4.5356964    5121.0315            1 
   51300    2.2872517   -4.5204535    5116.7431            1 
   51400    2.2767931   -4.5002971    5119.8823            2 
   51500      2.24365   -4.5400546    5114.0707            1 
   51600    2.2614198   -4.4851463    5105.9694       -1e+20 
   51700    2.2658294   -4.5518991    5143.9079            1 
   51800    2.2858809   -4.4826579     5109.169            1 
   51900    2.1877505   -4.5064881    5111.5869       -1e+20 
   52000    2.2500604   -4.5316706    5119.3142            2 
   52100    2.3025748   -4.4626036    5116.3878       -1e+20 
   52200    2.2272499   -4.5131449    5137.6638            1 
   52300    2.2468182   -4.4878262    5121.8693            1 
   52400    2.3118694   -4.4679225    5129.5988       -1e+20 
   52500    2.2172824   -4.5097661    5152.0447       -1e+20 
   52600    2.2837398   -4.5048293    5114.9457       -1e+20 
   52700    2.2298964    -4.497249    5115.7725            1 
   52800    2.2933717   -4.5142528    5133.9599       -1e+20 
   52900     2.260285   -4.5403551    5118.9802       -1e+20 
   53000    2.2436933   -4.5508308    5076.8341            1 
   53100    2.2739604   -4.4940246    5110.6178       -1e+20 
   53200    2.2491735   -4.4786445    5133.9642            1 
   53300    2.2626591   -4.5009445    5112.7353            1 
   53400    2.2721907   -4.5733485    5102.7334            1 
   53500    2.2279824   -4.5700742    5079.6697            1 
   53600    2.2640816   -4.5201212    5085.3177            1 
   53700    2.2593887   -4.5082408     5130.395            1 
   53800    2.2098956   -4.4850309     5113.111       -1e+20 
   53900    2.2465881   -4.4806042    5102.5278       -1e+20 
   54000    2.2705037   -4.5159861    5135.8459       -1e+20 
   54100    2.2227493   -4.5544495    5120.8719       -1e+20 
   54200    2.2873451   -4.5008805    5091.9779       -1e+20 
   54300    2.1966078   -4.5225157    5125.0707            1 
   54400    2.2592384   -4.4860463    5108.1427            1 
   54500    2.2997691   -4.5166875    5123.7791            1 
   54600     2.228556   -4.5518571    5124.8815            1 
   54700    2.2906296   -4.5152596    5100.5523            1 
   54800    2.2302282   -4.5417289     5121.147            1 
   54900    2.2787146   -4.4913084    5120.8308            1 
   55000    2.2942638   -4.4546495    5142.3307            1 
   55100    2.2294184   -4.4756877    5165.0622            1 
   55200    2.2839955   -4.5178442    5105.8207       -1e+20 
   55300    2.2780697   -4.5169527    5125.5355            2 
   55400    2.2567945    -4.511552    5148.7546            1 
   55500    2.2880857   -4.4923838     5133.912            1 
   55600    2.2462628    -4.481215    5135.1204            1 
   55700    2.2659696   -4.4829467    5116.4178       -1e+20 
   55800    2.2136938   -4.5119223    5091.5668            1 
   55900    2.2892604   -4.5360793    5118.0284            1 
   56000    2.2678839   -4.5071958    5149.7397            1 
   56100    2.2359393   -4.5359857    5095.1353            1 
   56200    2.2581541   -4.5381709    5100.9119            1 
   56300    2.2689214   -4.5110382    5128.5627            2 
   56400     2.276475   -4.5496561    5109.0386       -1e+20 
   56500    2.2711641   -4.5158959    5115.4123            1 
   56600     2.246557   -4.4905841    5168.4874            1 
   56700     2.339742    -4.440805    5129.4638            1 
   56800    2.2262586   -4.4406257    5169.2091            1 
   56900    2.2740536   -4.5088643    5103.1084            1 
   57000    2.2591562   -4.5042508    5132.3028            1 
   57100    2.2537602   -4.4778718    5130.7256            1 
   57200    2.2448203   -4.4890539    5116.9954            1 
   57300    2.3006183   -4.4726699    5152.8594            1 
   57400    2.2378118   -4.4615219    5158.4067            1 
   57500    2.2758294   -4.4661016    5120.3421            1 
   57600    2.2347605   -4.5236789    5122.7139       -1e+20 
   57700    2.3371583   -4.5247962    5118.7365       -1e+20 
   57800    2.2406967   -4.4261666    5195.6131            1 
   57900    2.2909064   -4.4818333    5108.8091            1 
   58000    2.2516977   -4.5453749    5133.6908            1 
   58100    2.2824734   -4.4988313    5117.2138            1 
   58200     2.246544   -4.4958778    5140.4167            1 
   58300    2.2878203   -4.4971468    5133.6538       -1e+20 
   58400    2.2315339    -4.485009    5123.8807            1 
   58500    2.2566117   -4.4881131    5129.7772            1 
   58600    2.2622527    -4.519665    5084.0292            1 
   58700    2.2611329   -4.5052606    5142.8167            1 
   58800    2.2895894   -4.5101536    5114.9218       -1e+20 
   58900    2.2685492   -4.4980023    5126.6626       -1e+20 
   59000    2.2631359   -4.5251809     5102.299       -1e+20 
   59100    2.2679221   -4.4882582    5113.9432       -1e+20 
   59200    2.2306221   -4.4435872    5172.5484       -1e+20 
   59300    2.3078981   -4.5088472    5130.8742       -1e+20 
   59400    2.2332237   -4.5095633    5109.6449            1 
   59500    2.2658063   -4.4694523    5106.5119       -1e+20 
   59600    2.2290703   -4.4546665    5162.2569            1 
   59700    2.2792792    -4.479189    5104.4668            1 
   59800     2.246954   -4.5386957    5101.0548            1 
   59900    2.2586948   -4.5090008    5123.2844            1 
   60000    2.2499826   -4.4650216    5113.9509            1 
   60100    2.2769509   -4.5597758    5112.6219            1 
   60200    2.2474639   -4.5289409    5116.4799            1 
   60300    2.2865847   -4.4888707    5102.3744       -1e+20 
   60400    2.2174337   -4.5387076    5153.0387       -1e+20 
   60500    2.3289937   -4.5112722     5098.895            1 
   60600    2.2246756   -4.4807487    5117.4292            1 
   60700    2.2177477   -4.5240286      5109.58       -1e+20 
   60800    2.2937431   -4.5182574    5072.7741       -1e+20 
   60900    2.2383595   -4.5148265    5135.8197            1 
   61000    2.2332952   -4.4811074    5101.8243            1 
   61100    2.2969311    -4.528248    5097.4001       -1e+20 
   61200    2.2506542    -4.539709    5143.0635       -1e+20 
   61300    2.2195398   -4.5009444    5077.1071            2 
   61400    2.2696816   -4.4995182    5133.6877            1 
   61500     2.242094   -4.5052559    5120.4859       -1e+20 
   61600    2.2920028   -4.4893307    5149.1554            1 
   61700    2.2628177   -4.4811291    5123.3962            2 
   61800     2.250425   -4.5205934    5119.8607            1 
   61900    2.2706173   -4.4969373    5128.7856            2 
   62000    2.2392013   -4.5401257    5125.6816            1 
   62100    2.2622119   -4.4951183    5077.0361            1 
   62200    2.2280147     -4.45421    5178.9854       -1e+20 
   62300    2.3295731   -4.5512224    5114.4847            1 
   62400    2.2554012   -4.5036034    5123.6646       -1e+20 
   62500    2.2858283   -4.4818774    5145.8425            1 
   62600     2.273732    -4.430836    5169.1495            1 
   62700    2.2521503   -4.4767732    5126.1293            1 
   62800    2.2640015   -4.5565995    5115.6107            2 
   62900    2.2848946   -4.5570971    5069.7572            1 
   63000    2.2262942   -4.5321613    5146.1855            1 
   63100    2.2910948   -4.5163898    5097.6529       -1e+20 
   63200    2.2352402   -4.4961545    5115.8499       -1e+20 
   63300    2.2394085   -4.5025838    5117.6956       -1e+20 
   63400    2.2758828   -4.4790462    5121.3044            1 
   63500    2.2393582   -4.4921015    5149.1814            1 
   63600    2.2774779   -4.4660111    5100.9403            1 
   63700    2.2107485   -4.4905463    5173.3325            3 
   63800     2.296019   -4.4828312    5118.8315       -1e+20 
   63900    2.2474226   -4.4743984    5161.1612            1 
   64000    2.2644873    -4.482871    5117.8074       -1e+20 
   64100    2.2518222   -4.4652051    5125.1232            1 
   64200    2.2624595   -4.5239418    5128.7402            1 
   64300    2.2869798     -4.51518    5135.3688            1 
   64400    2.2561654   -4.5112822    5121.5177            1 
   64500    2.2499339   -4.4627649    5115.3134       -1e+20 
   64600    2.2495037   -4.5193971    5152.9177       -1e+20 
   64700    2.2241852   -4.5114587    5075.1396            2 
   64800    2.2905549   -4.5199693    5128.7946            1 
   64900    2.2419423   -4.5015753    5136.7016            1 
   65000    2.2873657   -4.4798355    5094.6023       -1e+20 
   65100    2.2258047   -4.5441172    5128.5798       -1e+20 
   65200    2.2681281    -4.505547    5114.8351            1 
   65300     2.263271    -4.433683     5127.864            1 
   65400    2.2621141   -4.4919704    5150.3437            1 
   65500      2.27971   -4.4982608    5145.7664            2 
   65600    2.2303884   -4.4761053    5134.6166            1 
   65700    2.2770047   -4.5078339    5096.6404            1 
   65800    2.2515055   -4.4785535    5141.7376       -1e+20 
   65900    2.2398909   -4.5191701    5122.1874            1 
   66000    2.3244193   -4.4822353    5094.1366            1 
   66100    2.2135694   -4.4679347    5186.9497            1 
   66200    2.3253917   -4.5039636    5150.5643       -1e+20 
   66300    2.2580884   -4.4692741    5099.3512       -1e+20 
   66400    2.2541297    -4.522482    5135.2897            1 
   66500    2.2701318   -4.4586664    5149.8213            1 
   66600    2.2881138     -4.45276    5125.2578            1 
   66700    2.2349344   -4.5457771    5125.9907       -1e+20 
   66800    2.2659625   -4.5259013     5101.087            1 
   66900    2.2187415   -4.5359666    5101.9327            2 
   67000    2.2649234   -4.5216095     5123.375            1 
   67100    2.3101414   -4.5049454    5131.5569            1 
   67200    2.2353956   -4.5178043    5152.4951            1 
   67300    2.2862552   -4.5233259    5103.3612       -1e+20 
   67400    2.2376861   -4.4880136    5124.9972            1 
   67500    2.2819339   -4.4673617    5162.9362            1 
   67600    2.2988466    -4.461775    5136.5155            1 
   67700    2.2411094    -4.537533    5130.6655       -1e+20 
   67800    2.2970227   -4.5067087    5136.9746            1 
   67900    2.2436794    -4.440912    5144.8794            1 
   68000    2.2456422   -4.5052225    5104.3697       -1e+20 
   68100    2.2496459   -4.5274206    5094.8316            1 
   68200    2.2953176   -4.5318453    5136.7028       -1e+20 
   68300    2.2673796   -4.4977767    5162.2204            1 
   68400    2.2563364   -4.4431981     5108.438            1 
   68500    2.2434923   -4.4736952    5125.9246       -1e+20 
   68600    2.2815757   -4.4964698    5148.1951            1 
   68700     2.236906   -4.4703567    5130.7445            1 
   68800    2.2434814   -4.4995667    5104.9397       -1e+20 
   68900    2.2707281   -4.5608626    5086.3456            1 
   69000    2.2827907   -4.5209552    5134.1726       -1e+20 
   69100    2.2543357   -4.4588599     5151.766            1 
   69200     2.278618   -4.4747205    5110.4023       -1e+20 
   69300    2.2669598   -4.5813761    5100.4926            1 
   69400    2.2982173   -4.5388604    5113.5637            2 
   69500    2.2445872   -4.5200112    5110.3134            1 
   69600    2.2405567   -4.5580048    5090.1407            1 
   69700    2.2156037   -4.4646404    5143.7074            1 
   69800    2.2668304   -4.4169367    5144.5299            1 
   69900    2.2483865   -4.4956611    5136.2346       -1e+20 
   70000     2.259893   -4.5330957    5119.8178       -1e+20 
   70100    2.3187997   -4.5156032    5128.9233            1 
   70200    2.2668573   -4.5415379    5106.6995            1 
   70300    2.2591793   -4.5328388    5128.8371            1 
   70400    2.2860491   -4.4745354    5113.9367       -1e+20 
   70500    2.2711358   -4.5312242    5109.6114       -1e+20 
   70600     2.219085   -4.5585496     5108.053       -1e+20 
   70700    2.2734698   -4.5051895    5126.2861            1 
   70800    2.2730643   -4.4837853    5141.1303            1 
   70900    2.2910722   -4.4997265    5164.7539            1 
   71000    2.2786773   -4.5070384    5101.1373       -1e+20 
   71100    2.1999666   -4.5681457    5134.3493            1 
   71200    2.2839288   -4.5391284    5076.8335       -1e+20 
   71300    2.2753092   -4.5180368    5123.9108       -1e+20 
   71400    2.2364551   -4.4638181    5158.4045            1 
   71500    2.2768866   -4.4948187    5095.7236            1 
   71600    2.2295958   -4.5367631    5126.5268            1 
   71700    2.2898086   -4.5445533    5083.9609            1 
   71800    2.2451564   -4.5105254    5139.8021       -1e+20 
   71900    2.2708035   -4.4977006    5120.8477            1 
   72000    2.2620312   -4.5263588    5100.8742            1 
   72100    2.2599701    -4.513461    5128.4198            2 
   72200    2.2848369   -4.4798454    5152.2766       -1e+20 
   72300    2.2818905   -4.4660173    5146.1229            1 
   72400    2.2313309   -4.4640606    5126.2671            1 
   72500    2.3087385   -4.4727859     5150.801            1 
   72600    2.2349359     -4.44842    5133.4297            1 
   72700    2.2672441    -4.481252    5126.2681            1 
   72800    2.2361724   -4.4911139    5144.1683            2 
   72900     2.254054   -4.4587121    5117.1925            2 
   73000    2.2876202   -4.4906609    5161.0691       -1e+20 
   73100    2.2566346   -4.5322172    5123.1642            1 
   73200    2.2710924    -4.485817    5118.9504            2 
   73300    2.2593042   -4.4598126    5183.1312       -1e+20 
   73400    2.2503353   -4.4928071    5100.6178            1 
   73500    2.2217422    -4.522034    5114.5365            1 
   73600    2.2809932   -4.4917349    5115.1487            1 
   73700    2.2378857   -4.5119915    5145.6506       -1e+20 
   73800    2.2688048   -4.5008202    5110.4988            1 
   73900    2.2786658   -4.4646313    5113.0363       -1e+20 
   74000    2.2427645   -4.5270742    5179.4195       -1e+20 
   74100    2.3218001   -4.5122038    5105.7896            1 
   74200    2.2095987   -4.4822405    5115.4703            1 
   74300    2.2915645   -4.5060489    5116.5077            2 
   74400    2.2093656   -4.4905071    5133.8969            1 
   74500    2.2996338   -4.5248636    5122.5183            1 
   74600    2.2328807   -4.4911994    5132.0224            1 
   74700    2.2340956   -4.5159843    5076.1509       -1e+20 
   74800    2.2906187   -4.5088404    5132.2163       -1e+20 
   74900    2.2454672   -4.5013605    5136.4886       -1e+20 
   75000    2.2799098   -4.4180913    5141.1602            1 
   75100    2.2466894   -4.4466017    5151.4288            1 
   75200    2.2789065   -4.5318614    5113.4898            1 
   75300    2.2653099   -4.5666626    5099.6313       -1e+20 
   75400    2.3001608   -4.5254987    5127.6619            1 
   75500    2.2553763   -4.5603635    5098.2405            1 
   75600    2.2510312   -4.5599467      5077.79            1 
   75700    2.2683753   -4.4862933    5105.7429            1 
   75800    2.2706984   -4.5083069     5173.727            1 
   75900    2.2755748   -4.5487565    5106.9939            1 
   76000     2.230434   -4.5003432    5126.6505       -1e+20 
   76100    2.2696942   -4.4913867    5132.7363            1 
   76200    2.2537448   -4.4886091    5142.0018       -1e+20 
   76300    2.3061915   -4.4677107    5143.4211       -1e+20 
   76400    2.2417039   -4.4978899    5127.7556            1 
   76500    2.2500856   -4.5257617    5126.3972            1 
   76600    2.3149454   -4.4752665    5124.1183            1 
   76700    2.2231554    -4.461643    5137.7227       -1e+20 
   76800    2.2640594   -4.4792431    5146.0783            1 
   76900    2.2626454   -4.4629595    5128.6045            1 
   77000    2.2237827   -4.4882094    5120.7197       -1e+20 
   77100    2.2554966   -4.5053991    5121.0133            1 
   77200    2.2995295   -4.5211668     5096.739       -1e+20 
   77300     2.224471    -4.525995    5147.7013       -1e+20 
   77400    2.2700444   -4.4757005    5088.5817       -1e+20 
   77500    2.2166146    -4.569689     5091.291            1 
   77600    2.2359203   -4.5362492    5094.3656            1 
   77700    2.2420747   -4.4963197     5131.504            1 
   77800    2.2649466   -4.4903702    5122.1624       -1e+20 
   77900    2.1831258   -4.4993081    5095.9268       -1e+20 
   78000    2.2864495   -4.5681396    5106.9942            2 
   78100    2.2601404   -4.5147536    5122.8949            3 
   78200    2.2916153   -4.5032812    5144.5834            1 
   78300    2.2051938   -4.4643324    5134.2562            1 
   78400    2.2567103   -4.5020807    5126.8794       -1e+20 
   78500    2.3178162   -4.4810465     5133.976       -1e+20 
   78600    2.2276163   -4.4753124    5126.2684            1 
   78700     2.303005   -4.5122516    5122.3531       -1e+20 
   78800    2.2324338   -4.5733318    5137.9558            1 
   78900    2.2742552    -4.568657    5076.1215            1 
   79000    2.2472202   -4.5024619    5123.8347       -1e+20 
   79100    2.2655982   -4.5142785     5147.724            1 
   79200    2.2529952   -4.5274177    5108.7471       -1e+20 
   79300    2.2654827   -4.5417496    5104.8442            1 
   79400    2.2093694   -4.4261419    5140.0641       -1e+20 
   79500    2.3113807   -4.5038229    5120.1808            1 
   79600    2.2178813   -4.5125141    5110.8149            1 
   79700    2.2892689   -4.5024542    5135.5459            1 
   79800    2.2415435   -4.4939726    5138.9095            2 
   79900    2.1826741   -4.4993413    5096.4324       -1e+20 
   80000    2.2583152   -4.4755449    5067.6788       -1e+20 
   80100    2.2052162   -4.5256073    5146.3147            1 
   80200     2.264946   -4.4464423    5098.2092            1 
   80300    2.2281135   -4.5210013    5127.2533            1 
   80400    2.2581058   -4.5155819    5104.3762            1 
   80500    2.2945656   -4.5138491    5136.0195            1 
   80600    2.2369114   -4.5176277    5121.7488       -1e+20 
   80700     2.271583   -4.5053937    5112.4792       -1e+20 
   80800     2.233255   -4.5060837    5138.1155            1 
   80900    2.2958189   -4.4904531    5105.0647            1 
   81000    2.2082187   -4.4719125    5137.4175       -1e+20 
   81100    2.2548166   -4.4826377    5112.2301       -1e+20 
   81200    2.2601812   -4.4923869    5111.3917       -1e+20 
   81300    2.2481012   -4.5193829    5142.2286            1 
   81400    2.2963375   -4.4576068    5113.6355       -1e+20 
   81500    2.2435487   -4.4853183    5145.6698       -1e+20 
   81600    2.2697434   -4.5270702    5121.8149            1 
   81700    2.2967812   -4.5108962    5115.0657       -1e+20 
   81800    2.2107267   -4.5169584    5126.2863            1 
   81900    2.2659741    -4.487658    5088.4734       -1e+20 
   82000    2.1661306   -4.5074831    5098.5789            1 
   82100    2.2429866   -4.5449213    5106.4911       -1e+20 
   82200    2.2911463    -4.514175    5098.1373            1 
   82300    2.1851021   -4.5286549    5146.9786       -1e+20 
   82400    2.2703399   -4.4796142    5096.6151            1 
   82500    2.2166794   -4.4753669    5126.5026       -1e+20 
   82600    2.2456892   -4.4826546    5127.7024            1 
   82700    2.3164712    -4.518062    5123.0917            1 
   82800    2.2228382   -4.5063891    5131.8703            4 
   82900     2.308793   -4.5021025    5112.9644       -1e+20 
   83000    2.2304861   -4.4949612    5150.7121       -1e+20 
   83100    2.3224668   -4.4866873    5125.8964            2 
   83200    2.2574538   -4.5169828     5106.891            1 
   83300    2.2378006   -4.5467958    5106.3225       -1e+20 
   83400    2.2710405   -4.5563791    5079.6423            1 
   83500    2.2334788   -4.5195282     5145.941       -1e+20 
   83600    2.3121163   -4.5174425    5132.6438            1 
   83700    2.2376207   -4.4875385    5130.8669            1 
   83800    2.2402547   -4.4758405    5113.1293            1 
   83900    2.2456279   -4.4886266     5124.875       -1e+20 
   84000    2.2658641   -4.4671547    5151.4461       -1e+20 
   84100    2.2896856   -4.5289667    5082.8948            1 
   84200    2.1945828   -4.5012424    5135.7298       -1e+20 
   84300     2.306789   -4.5170112     5102.648       -1e+20 
   84400    2.2458718    -4.528631    5149.5328       -1e+20 
   84500    2.2581793   -4.4622072    5131.7534       -1e+20 
   84600    2.2447157   -4.5043123    5109.3117            1 
   84700    2.2221697   -4.5146883    5127.0552            1 
   84800    2.2985795   -4.5185306     5118.218       -1e+20 
   84900    2.2871617   -4.5514568    5106.0034       -1e+20 
   85000    2.2453353    -4.565167    5139.2351            1 
   85100    2.2968733   -4.5339352    5101.7317       -1e+20 
   85200    2.2573767   -4.5140562    5136.1848            2 
   85300    2.2612858   -4.5413852    5105.2034            1 
   85400    2.2653182   -4.5111967    5100.6251            1 
   85500    2.2710813   -4.5549515    5158.4029            1 
   85600    2.3072331   -4.4898147    5122.4116            1 
   85700    2.2221683   -4.4838797    5128.1315            1 
   85800    2.2792597   -4.5164001    5122.0713            1 
   85900    2.2481485   -4.5286371    5110.2295            1 
   86000    2.2876732   -4.5115673    5123.7377            1 
   86100    2.2486656   -4.4999376    5141.9899            1 
   86200    2.1968723    -4.508756      5089.21            1 
   86300    2.2224536     -4.45609    5115.9401       -1e+20 
   86400    2.2651313   -4.4643035    5136.0838            1 
   86500    2.1880588   -4.4652613    5121.3284            1 
   86600    2.2831834   -4.5294268    5090.9592       -1e+20 
   86700    2.2615886   -4.5110927     5167.666       -1e+20 
   86800    2.2709562   -4.4747978    5122.0627       -1e+20 
   86900    2.2702835   -4.5178753    5131.9836            1 
   87000    2.2403374   -4.4750896      5127.52            1 
   87100    2.3230754   -4.5053581    5119.5601            1 
   87200    2.2141367   -4.4885031    5127.1445       -1e+20 
   87300    2.2884978   -4.4963899    5119.3879            1 
   87400    2.2321957   -4.4971993    5112.4755       -1e+20 
   87500    2.2567222   -4.4968365    5120.9563            1 
   87600     2.214865    -4.507944    5095.0705            1 
   87700    2.2357021   -4.5073661    5099.9645       -1e+20 
   87800    2.2372647   -4.4790268    5111.8237       -1e+20 
   87900    2.2548191   -4.4660828    5162.4469       -1e+20 
   88000    2.2413083   -4.4414117    5144.5473       -1e+20 
   88100    2.2862599   -4.4785814    5115.4936            1 
   88200     2.226803   -4.5412011    5107.4836       -1e+20 
   88300    2.2330688   -4.4571471    5114.3066            1 
   88400    2.2633363   -4.4484373    5148.3703       -1e+20 
   88500    2.2593804   -4.5087733    5136.7486            1 
   88600    2.2599017   -4.5154584    5102.5361            3 
   88700    2.2918896   -4.4926769     5133.865            1 
   88800    2.2739544   -4.5060479    5125.5928            1 
   88900    2.2327791    -4.507117     5120.324            1 
   89000    2.2723331   -4.4588606    5145.7431            1 
   89100     2.230657    -4.477307    5138.2536       -1e+20 
   89200    2.2925469   -4.4874744    5111.2216       -1e+20 
   89300     2.247428    -4.444111    5179.8932            1 
   89400    2.2867226   -4.5060318    5097.4654            1 
   89500    2.2564367    -4.594717    5112.8662            1 
   89600    2.2810528   -4.5125764    5107.5609            1 
   89700    2.2784821   -4.5501358      5093.42            1 
   89800    2.2390661   -4.5454634     5119.984            1 
   89900    2.2759027    -4.508692     5126.198            1 
   90000    2.2979949   -4.5040098     5137.016            1 
   90100    2.2361876   -4.5368323    5131.4695            1 
   90200    2.2920157   -4.5092235    5123.6339            2 
   90300    2.2618471   -4.5497938     5131.469       -1e+20 
   90400    2.2705713   -4.5747067    5083.9871            1 
   90500    2.2655765   -4.4853402    5133.4135       -1e+20 
   90600    2.2771466   -4.4960686    5138.5229            1 
   90700    2.2219968   -4.5229917    5117.7295            1 
   90800    2.2943662   -4.4914221    5098.9028       -1e+20 
   90900    2.2467801   -4.4874139    5138.7288       -1e+20 
   91000    2.2193979   -4.4814393    5118.2529       -1e+20 
   91100    2.2639346   -4.4752472    5100.2546            1 
   91200    2.2443334   -4.5127834    5143.7738       -1e+20 
   91300    2.2416887    -4.547789     5084.252            1 
   91400     2.283111   -4.5225822    5114.9073       -1e+20 
   91500    2.2586727   -4.4843397    5147.7191       -1e+20 
   91600    2.2945636   -4.4780413    5134.3597            1 
   91700    2.2281639   -4.4466906     5125.696       -1e+20 
   91800    2.2861189   -4.5190691    5157.3787       -1e+20 
   91900     2.333539   -4.5576947    5103.8148            1 
   92000    2.1792124   -4.4962921     5109.919            1 
   92100    2.3033585   -4.5487135    5105.7808            1 
   92200    2.2247166   -4.5305038    5107.5837            1 
   92300    2.2568165   -4.5880567    5055.7479       -1e+20 
   92400    2.2437695   -4.4861673    5108.8047            1 
   92500    2.2872582   -4.5111906    5143.4473       -1e+20 
   92600     2.265577   -4.5371528    5132.2725            2 
   92700    2.2690084   -4.5500889    5073.8915            1 
   92800    2.2675043   -4.5119691    5118.3773            1 
   92900    2.2545357   -4.4965874    5132.9822       -1e+20 
   93000    2.2601601   -4.4995413    5110.6912       -1e+20 
   93100     2.304957   -4.5142982     5163.873            1 
   93200    2.2981068   -4.5277893    5097.5775            1 
   93300    2.2273156   -4.4876379    5122.4524       -1e+20 
   93400    2.2713068   -4.4903231     5139.527       -1e+20 
   93500    2.2348129   -4.5006797    5093.0994            1 
   93600    2.2363619   -4.5090704    5108.2148       -1e+20 
   93700      2.25483   -4.4696478    5160.1735            1 
   93800    2.3239082   -4.4996091    5151.0731            1 
   93900    2.2583493   -4.5144234     5140.789            1 
   94000    2.2451311   -4.5099343    5123.1127            1 
   94100    2.2902699   -4.4548396    5149.9991            1 
   94200     2.244341   -4.4956431    5138.3999            2 
   94300    2.2694404   -4.5451277     5113.347            2 
   94400    2.2512047   -4.5208702    5126.6501            1 
   94500    2.2527861   -4.4767647    5145.3815            1 
   94600    2.3459075   -4.5068414    5155.6516            1 
   94700    2.2475937   -4.4753406    5169.7629            2 
   94800     2.305141   -4.4660506    5134.1796            1 
   94900     2.220914   -4.4876267    5126.5892            1 
   95000    2.2267999    -4.487273     5112.004            1 
   95100     2.298784   -4.4898025    5110.3895            1 
   95200    2.2134018   -4.5155093    5149.3202       -1e+20 
   95300    2.2744622   -4.4699034    5105.4027            1 
   95400    2.2610679   -4.5112183    5129.3738       -1e+20 
   95500    2.2317958   -4.5704285    5116.7123            1 
   95600    2.2717608   -4.4982436    5048.7087            1 
   95700    2.2548645   -4.5294724     5141.015       -1e+20 
   95800    2.3134244   -4.4664234       5153.5            2 
   95900     2.299426   -4.4864679    5141.5014            1 
   96000    2.2584409   -4.5191584    5139.5274            2 
   96100    2.2461501   -4.5102576    5089.8039            1 
   96200    2.2536338   -4.5147026    5111.8274            1 
   96300    2.2386236   -4.4724374    5118.7792            1 
   96400    2.2993965   -4.5516888     5114.189            1 
   96500    2.2174124   -4.5131729    5110.1294            1 
   96600     2.293918    -4.531747    5085.9223            1 
   96700    2.2478774   -4.5063164    5178.9653            1 
   96800    2.2926311   -4.4675478    5125.2564       -1e+20 
   96900    2.2565931   -4.4944732    5125.2879            1 
   97000    2.2303125   -4.5694131    5112.8028            1 
   97100    2.2970064   -4.5436536    5081.2341            1 
   97200    2.2095352   -4.5227876    5114.4785            1 
   97300     2.291952   -4.5241777    5149.3261       -1e+20 
   97400    2.3018587   -4.5125861    5125.2025       -1e+20 
   97500    2.2513997   -4.5424098    5143.5156       -1e+20 
   97600    2.2919435   -4.5361927    5121.7383            1 
   97700     2.283698   -4.5517653    5094.5656            1 
   97800    2.1963734   -4.5206254    5143.5336            1 
   97900    2.3210874   -4.5218524    5119.1187       -1e+20 
   98000     2.257374   -4.5318873    5112.6853            1 
   98100    2.2362621   -4.4973259    5112.1633            1 
   98200    2.2891804   -4.4941377    5147.6683            1 
   98300    2.2812126   -4.5197344    5130.7953       -1e+20 
   98400    2.2492429   -4.5148101     5110.571            1 
   98500    2.2555694   -4.5224089    5108.9408            1 
   98600    2.2754448   -4.5074255    5133.5449            1 
   98700    2.2447502   -4.4783794    5139.7356            1 
   98800    2.2626414   -4.4995141    5084.2375            1 
   98900    2.2925922    -4.511398    5171.6783            1 
   99000    2.2888832   -4.5073573    5117.8309            1 
   99100    2.2646922   -4.5394162    5112.9458            1 
   99200     2.305661   -4.4775082    5149.6582       -1e+20 
   99300    2.2605596   -4.4527151    5135.1683       -1e+20 
   99400    2.2408072   -4.5027792     5149.277            1 
   99500     2.292234   -4.5013546    5139.3877       -1e+20 
   99600    2.2613897   -4.4952266    5135.4477            1 
   99700    2.2164026   -4.4720502    5117.9379            1 
   99800    2.2790095     -4.52065    5113.6827            2 
   99900      2.23633   -4.4945121    5115.9417            1 
  100000    2.2764777   -4.5252861     5090.898       -1e+20 
  100100    2.2508199   -4.4794349    5146.4685            1 
  100200    2.3203488   -4.5081717    5127.4668       -1e+20 
  100300    2.2255439   -4.4998789    5120.8944       -1e+20 
  100400    2.2948883   -4.5267166    5129.2244            1 
  100500    2.2881883   -4.4703905    5145.8712            1 
  100600    2.2505698   -4.5088946    5139.4332       -1e+20 
  100700    2.2836914   -4.4644037    5118.7235       -1e+20 
  100800    2.2591242   -4.5230027    5166.1008            1 
  100900    2.2604332   -4.5276807    5082.9065            1 
  101000    2.2351764   -4.5157936    5116.1514            2 
  101100    2.2525285   -4.4878074    5130.6621            1 
  101200    2.2641889   -4.4515144    5148.5929       -1e+20 
  101300    2.2714319   -4.4875356    5152.3892            1 
  101400    2.2540077   -4.5125042    5085.5991       -1e+20 
  101500    2.2256756   -4.5146401    5095.2902       -1e+20 
  101600    2.2895488   -4.5140261    5138.2782            1 
  101700    2.2647969   -4.4387172    5150.6994            1 
  101800    2.2681779   -4.4438397    5168.5257       -1e+20 
  101900    2.2836982   -4.5089143    5127.4787       -1e+20 
  102000    2.2370562   -4.5402696     5127.925       -1e+20 
  102100    2.3033253   -4.5033932    5128.7653            1 
  102200    2.2332478   -4.4724554    5123.3672            1 
  102300    2.2828021   -4.4960757    5151.7164       -1e+20 
  102400    2.2201798    -4.493674    5126.3607       -1e+20 
  102500    2.2570818   -4.5264829    5130.1915            1 
  102600    2.2744413   -4.4518959    5126.2327            1 
  102700    2.2406103   -4.5116822    5120.7282            1 
  102800    2.2534867   -4.5278598     5117.873       -1e+20 
  102900    2.2691358   -4.4338203     5139.037       -1e+20 
  103000     2.250306   -4.4955369    5155.2864            1 
  103100     2.265672   -4.4810212     5139.328            1 
  103200    2.2761014   -4.4379779    5174.1309            1 
  103300    2.2938504   -4.5536694    5123.2456            1 
  103400       2.2822   -4.5870075    5108.8212            1 
  103500    2.2658625   -4.4669245    5087.5781            1 
  103600    2.2369203   -4.4971264    5156.4502       -1e+20 
  103700    2.2838372   -4.4941757    5120.0734            1 
  103800    2.2770267   -4.4750575    5151.1333       -1e+20 
  103900    2.2259337     -4.50996    5128.6706            1 
  104000    2.2957107   -4.5315896     5118.201            1 
Loop time of 256.024 on 18 procs for 100000 steps with 4000 atoms

Performance: 67493.640 tau/day, 390.588 timesteps/s
99.6% CPU use with 18 MPI tasks x no OpenMP threads

MPI task timing breakdown:
Section |  min time  |  avg time  |  max time  |%varavg| %total
---------------------------------------------------------------
Pair    | 30.723     | 31.077     | 31.902     |   5.0 | 12.14
Neigh   | 5.6777     | 5.7279     | 5.7784     |   1.1 |  2.24
Comm    | 11.324     | 14.691     | 17.174     |  42.5 |  5.74
Output  | 5.3061     | 5.3072     | 5.3217     |   0.2 |  2.07
Modify  | 194.57     | 197.48     | 200.83     |  13.8 | 77.13
Other   |            | 1.741      |            |       |  0.68

Nlocal:        222.222 ave         233 max         207 min
Histogram: 1 0 1 1 4 2 3 2 2 2
Nghost:        2027.06 ave        2056 max        2007 min
Histogram: 3 1 2 3 2 3 2 1 0 1
Neighs:        19823.8 ave       21042 max       18226 min
Histogram: 1 0 2 1 1 5 3 2 1 2
FullNghs:      39650.2 ave       42131 max       36294 min
Histogram: 1 0 0 2 3 4 3 2 1 2

Total # of neighbors = 713704
Ave neighs/atom = 178.42600
Neighbor list builds = 8839
Dangerous builds = 1243

#clear
#
#next RN
#
#jump SELF
Total wall time: 0:04:18
