
units lj                  # Use reduced LJ style units
atom_style atomic         # Uncharged point particles
atom_modify map hash      # Needed for indexing of clusters etc
                          # Used to be able to find where atoms are in relation to each other.

lattice fcc 1.0 spacing 1 1 1
Lattice spacing in x,y,z = 1.5874011 1.5874011 1.5874011
region box block 0 10 0 10 0 10 units lattice
create_box 2 box
Created orthogonal box = (0.0000000 0.0000000 0.0000000) to (15.874011 15.874011 15.874011)
  3 by 4 by 4 MPI processor grid
create_atoms 1 box
Created 4000 atoms
  using lattice units in orthogonal box = (0.0000000 0.0000000 0.0000000) to (15.874011 15.874011 15.874011)
  create_atoms CPU = 0.002 seconds
set type 1 type/fraction 2 0.15 78393
Setting atom values ...
  634 settings made for type/fraction
mass 1 1.0
mass 2 1.0
pair_style lj/cut  3.5
pair_modify tail  yes
pair_coeff 1  1  1.0  1.0   # Intearaction between 1 and 1 set with epsilon = 1 and sigma = 1
pair_coeff 1  2  1.5  0.8
pair_coeff 2  2  0.5  0.88

write_data data.0
System init for write_data ...
Neighbor list info ...
  update every 1 steps, delay 10 steps, check yes
  max neighbors/atom: 2000, page size: 100000
  master list distance cutoff = 3.8
  ghost atom cutoff = 3.8
  binsize = 1.9, bins = 9 9 9
  1 neighbor lists, perpetual/occasional/extra = 1 0 0
  (1) pair lj/cut, perpetual
      attributes: half, newton on
      pair build: half/bin/atomonly/newton
      stencil: half/bin/3d
      bin: standard
WARNING: Not all mixed pair coeffs generated from mixing. Use write_data with 'pair ij' option to store all pair coeffs. (../write_data.cpp:312)


#############################
#   M E L T   S Y S T E M   #
#############################

velocity all create 2.4 2750902 mom yes dist gaussian # Assign velocities
                                                    # Temperature 2.4, random number seed, zero linear momentum
                                                                                # Gaussian distribution

timestep 0.002   # simulation timestep
thermo 1000       # output thermodynamic data every 1000 steps bf 100

# Define a fix  in this case with index 1 applied to all
# particles in the simulation. This fix is for simulations
# in the anisotropic NPT ensemble. Note that we use the MTK
# correction.
fix 1 all npt temp 2.4 2.4 0.1 iso 5.68 5.68 0.5 mtk yes tchain 5 pchain 5 # Use NPT ensemble
                                                                         # Set temperature and pressure and damping
                                                                         # Numbers of thermostats in chain and in barostat
run 10000          # run for 10000 steps
Per MPI rank memory allocation (min/avg/max) = 3.642 | 3.644 | 3.648 Mbytes
Step Temp E_pair E_mol TotEng Press Volume 
       0          2.4   -7.3553801            0   -3.7562801   -3.3553213         4000 
    1000    2.3300528   -4.7293962            0   -1.2351908     5.661227    4646.8663 
    2000    2.3993036   -4.7374572            0   -1.1394016    5.6686276    4636.2997 
    3000    2.4680751   -4.7675542            0   -1.0663671    5.8650547    4609.4791 
    4000     2.390478   -4.6854967            0   -1.1006761    5.7438861    4665.7102 
    5000    2.3133164   -4.7783917            0   -1.3092846    5.4769532    4639.8013 
    6000    2.4391566   -4.6947783            0   -1.0369581    5.8020752    4663.3796 
    7000    2.3961953   -4.7738762            0   -1.1804818    5.7058872    4619.9138 
    8000    2.4298685   -4.7212177            0   -1.0773261    5.7568857    4639.6843 
    9000    2.3924024   -4.7232052            0   -1.1354988    5.7055892    4650.7528 
   10000    2.4607529   -4.7156701            0   -1.0254635    5.6133682    4667.1374 
Loop time of 2.21212 on 48 procs for 10000 steps with 4000 atoms

Performance: 781151.376 tau/day, 4520.552 timesteps/s
99.6% CPU use with 48 MPI tasks x no OpenMP threads

MPI task timing breakdown:
Section |  min time  |  avg time  |  max time  |%varavg| %total
---------------------------------------------------------------
Pair    | 0.92647    | 0.99886    | 1.0522     |   3.0 | 45.15
Neigh   | 0.19113    | 0.20034    | 0.21216    |   1.0 |  9.06
Comm    | 0.71273    | 0.76461    | 0.83908    |   3.5 | 34.56
Output  | 0.00023982 | 0.0002446  | 0.00030937 |   0.0 |  0.01
Modify  | 0.20352    | 0.23357    | 0.26358    |   3.2 | 10.56
Other   |            | 0.01449    |            |       |  0.65

Nlocal:        83.3333 ave          94 max          75 min
Histogram: 2 4 4 8 12 11 3 1 2 1
Nghost:        1494.08 ave        1525 max        1465 min
Histogram: 5 3 6 4 6 6 4 5 7 2
Neighs:        8167.04 ave        9555 max        7082 min
Histogram: 3 4 6 7 9 10 5 0 3 1

Total # of neighbors = 392018
Ave neighs/atom = 98.004500
Neighbor list builds = 904
Dangerous builds = 179

# Equilibrate just above the melting temperature to avoid step fn in T

fix 1 all npt temp 1.25 1.25 0.1 iso 5.68 5.68 0.5 mtk yes tchain 5 pchain 5
run 2000
Per MPI rank memory allocation (min/avg/max) = 3.642 | 3.644 | 3.648 Mbytes
Step Temp E_pair E_mol TotEng Press Volume 
   10000    2.4607529   -4.7156701            0   -1.0254635    5.6133682    4667.1374 
   11000    1.2728079   -6.4177175            0   -4.5089829    5.5818559    3805.8895 
   12000    1.2580308    -6.403004            0   -4.5164296    5.5687002    3809.4782 
Loop time of 0.491088 on 48 procs for 2000 steps with 4000 atoms

Performance: 703743.265 tau/day, 4072.588 timesteps/s
99.6% CPU use with 48 MPI tasks x no OpenMP threads

MPI task timing breakdown:
Section |  min time  |  avg time  |  max time  |%varavg| %total
---------------------------------------------------------------
Pair    | 0.21274    | 0.23565    | 0.27101    |   2.3 | 47.99
Neigh   | 0.030955   | 0.033517   | 0.036333   |   0.6 |  6.82
Comm    | 0.14226    | 0.16732    | 0.19566    |   2.6 | 34.07
Output  | 5.1688e-05 | 5.3028e-05 | 6.7966e-05 |   0.0 |  0.01
Modify  | 0.038916   | 0.050001   | 0.058582   |   2.6 | 10.18
Other   |            | 0.004544   |            |       |  0.93

Nlocal:        83.3333 ave          94 max          76 min
Histogram: 4 7 3 11 7 6 6 2 1 1
Nghost:        1699.48 ave        1728 max        1680 min
Histogram: 3 5 3 11 11 9 3 1 1 1
Neighs:        10011.3 ave       11683 max        8812 min
Histogram: 3 3 6 10 10 8 4 2 1 1

Total # of neighbors = 480544
Ave neighs/atom = 120.13600
Neighbor list builds = 141
Dangerous builds = 9

#############################
# L I N E A R  Q U E N C H  #
#############################

# Define solid atoms. This closely follows ten Wolde  Ruiz-Montero and Frenkel  Faraday Discuss  1996  104  93-110
# Compute components of the per-atom q6 vector
compute q6 all orientorder/atom degrees 1 6 components 6 nnn NULL cutoff 1.3 # compute the Q6 parameter.
                                                                             # Use all neighbours within 1.3 unit cell.

# get number of connections
compute coord_number all coord/atom orientorder q6 0.5

# An atom is solid if it has 8 or more connections (of a possible 14)
variable is_solid atom c_coord_number>=8
group solid dynamic all var is_solid    # Must be dynamic to update
dynamic group solid defined

# do clustering
compute cluster solid cluster/atom 1.3 # Create a cluster where all atoms within are solid and max 1.3 units from another member

# define chunks one chunk per cluster
compute clus_chunks solid chunk/atom c_cluster nchunk every compress yes  # Says which atoms are in which chunk

# count the size of each chunk
compute size_chunks solid property/chunk clus_chunks count


# Find the maximum entry in the vector of chunk sizes
variable max_n equal max(c_size_chunks)


# Thermo style which includes this variable
# thermo_style custom step temp pe vol v_max_n

thermo ${N}  # Print the thermo information every 100 steps
thermo 1000  

# Reset the npt fix at a lower temperature (below freezing)
fix 1  all npt temp  ${temp} ${temp}  0.1  iso  5.68  5.68  0.5  mtk yes tchain  5  pchain  5
fix 1  all npt temp  0.45 ${temp}  0.1  iso  5.68  5.68  0.5  mtk yes tchain  5  pchain  5
fix 1  all npt temp  0.45 0.45  0.1  iso  5.68  5.68  0.5  mtk yes tchain  5  pchain  5

dump dmp2 all dcd ${N} traj.dcd
dump dmp2 all dcd 1000 traj.dcd


compute msd all msd com yes
variable twopoint equal c_msd[4]/6/(step*dt+1.0e-6)
fix 9 all vector 10 c_msd[4]
variable fit equal slope(f_9)/6/(10*dt)
thermo_style custom step temp pe c_msd[4] v_twopoint v_fit v_max_n

fix 1 all npt temp 1.25 ${temp} 0.1 iso 5.68 5.68 0.5 mtk yes tchain 5 pchain 5
fix 1 all npt temp 1.25 0.45 0.1 iso 5.68 5.68 0.5 mtk yes tchain 5 pchain 5
run 2000000 # 5000000  # Run for this many steps
Neighbor list info ...
  update every 1 steps, delay 10 steps, check yes
  max neighbors/atom: 2000, page size: 100000
  master list distance cutoff = 3.8
  ghost atom cutoff = 3.8
  binsize = 1.9, bins = 9 9 9
  4 neighbor lists, perpetual/occasional/extra = 1 3 0
  (1) pair lj/cut, perpetual
      attributes: half, newton on
      pair build: half/bin/atomonly/newton
      stencil: half/bin/3d
      bin: standard
  (2) compute orientorder/atom, occasional
      attributes: full, newton on
      pair build: full/bin/atomonly
      stencil: full/bin/3d
      bin: standard
  (3) compute coord/atom, occasional
      attributes: full, newton on
      pair build: full/bin/atomonly
      stencil: full/bin/3d
      bin: standard
  (4) compute cluster/atom, occasional
      attributes: full, newton on
      pair build: full/bin/atomonly
      stencil: full/bin/3d
      bin: standard
Per MPI rank memory allocation (min/avg/max) = 9.762 | 9.768 | 9.773 Mbytes
Step Temp PotEng c_msd[4] v_twopoint v_fit v_max_n 
   12000    1.2580308    -6.403004 1.7242527e-30 1.1973977e-32 8.3333333e+20            5 
   13000    1.2553234   -6.4118213   0.54979651 0.0035243365  0.045756143            1 
   14000    1.2471332   -6.4007462    1.0765243 0.0064078825  0.043983448            2 
   15000    1.2825445   -6.3945576     1.583061  0.008794783  0.043363308            2 
   16000    1.2372398   -6.4713538    2.1248123  0.011066731  0.044122481            2 
   17000       1.2489   -6.3834126    2.6676441  0.013076686  0.044176255            1 
   18000    1.2165944   -6.3716353    3.2342539  0.014973397  0.044333921            2 
   19000    1.2680519   -6.3589133    3.7566954  0.016476734  0.044470575            3 
   20000    1.2387474   -6.3947425    4.3674509  0.018197712  0.044833589            1 
   21000    1.2710124   -6.3989846    4.9570352  0.019670774  0.045269716            1 
   22000    1.2198435   -6.3577722    5.4253783  0.020550675  0.045396155            3 
   23000    1.2586231   -6.3662816     6.022766  0.021821616  0.045488933            1 
   24000    1.2122153   -6.4026587    6.4907346  0.022537272   0.04549661            3 
   25000    1.2506432   -6.3814062    6.9885758  0.023295252  0.045279296            2 
   26000    1.2217062    -6.429203    7.4503815  0.023879427  0.045098919            2 
   27000      1.28267   -6.4341806    7.9471619  0.024528277  0.044808367            1 
   28000    1.2269354   -6.3917772    8.5061469  0.025315913   0.04460646            2 
   29000    1.2483358   -6.4059103    8.9593777  0.025745338    0.0444581            6 
   30000    1.2587175   -6.4110464    9.4231042  0.026175289  0.044203539            1 
   31000    1.2432363   -6.4331728    9.8570806  0.026497528  0.043869396            2 
   32000    1.2205715    -6.429347      10.4221  0.027140885  0.043657799            2 
   33000     1.238525   -6.3901916    10.920745  0.027577639  0.043507788            1 
   34000    1.2285482   -6.3852524     11.29043  0.027672622  0.043324649            3 
   35000    1.2379264   -6.4191361    11.794118  0.028081233  0.043111865            2 
   36000    1.2633005   -6.4233738    12.303611  0.028480581  0.042906533            3 
   37000    1.2481992   -6.4186886    12.883612  0.029017144  0.042780913            2 
   38000    1.2581417   -6.3629851    13.514831  0.029637787   0.04274728            3 
   39000     1.222067   -6.4103928    14.126979  0.030185852  0.042768149            2 
   40000    1.2662519   -6.4187047    14.442008  0.030087517  0.042782344            2 
   41000    1.2259506   -6.4181903    14.895397  0.030275197   0.04273522            2 
   42000    1.2472774   -6.3983364    15.508534  0.030770901  0.042688189            1 
   43000    1.2248113   -6.3920268    15.995953  0.030999909  0.042676302            1 
   44000    1.2449726   -6.4023402     16.50218  0.031254128  0.042638308            2 
   45000    1.2326735   -6.3937054    17.071684  0.031614229  0.042617989            1 
   46000    1.2435267   -6.3746089    17.615969  0.031912987  0.042606445            3 
   47000    1.2233395   -6.4271391    18.117003  0.032122345  0.042590939            1 
   48000    1.1995499   -6.4295732    18.618361  0.032323542  0.042571279            2 
   49000    1.2455612   -6.4426337    19.179544  0.032618271  0.042586756            5 
   50000    1.2258539   -6.3944636    19.714756  0.032857927   0.04262063            2 
   51000    1.2624594   -6.4422155    20.043696  0.032751136  0.042615569            5 
   52000    1.2326581   -6.4058692     20.38314  0.032665288  0.042575765            2 
   53000    1.2229427   -6.4191106      21.0666  0.033123585   0.04254238            4 
   54000    1.2403778   -6.4284627    21.511866  0.033197325  0.042502359            4 
   55000    1.2699542   -6.4631891    21.991943  0.033321125  0.042463382            1 
   56000    1.2073291   -6.4469714     22.58205  0.033604241   0.04244379            1 
   57000    1.2129966    -6.436558    23.358073  0.034149229  0.042463717            2 
   58000    1.2247402   -6.4350322    23.812762  0.034213739  0.042499844            2 
   59000    1.2430399   -6.4420385    24.502337   0.03460782  0.042563171            2 
   60000    1.2585669   -6.4315663    25.022756  0.034753827  0.042641521            3 
   61000    1.2042526   -6.4352267    25.597882  0.034969784  0.042706196            2 
   62000    1.2343835   -6.4568816    26.103661  0.035085566  0.042762488            1 
   63000    1.2290445    -6.422414     26.67407  0.035283161  0.042820901            3 
   64000    1.2288861   -6.4416913    27.328057  0.035583408  0.042889169            1 
   65000    1.2443069    -6.451813    28.044454  0.035954428   0.04299046            2 
   66000    1.2306425   -6.4148492    28.445265  0.035915738  0.043078838            1 
   67000    1.2230951   -6.4814433    28.856748  0.035891477  0.043137293            3 
   68000    1.2442104   -6.4238248     29.39871  0.036027831  0.043192146            2 
   69000     1.214483   -6.4404319    29.864168  0.036067836  0.043242657            2 
   70000    1.2433323   -6.4471939    30.233279  0.035991999  0.043269022            1 
   71000    1.2454558   -6.4327669    30.750101  0.036091667  0.043280163            1 
   72000    1.1994018   -6.3967095    31.366055  0.036303304  0.043294023            4 
   73000    1.2087675   -6.4088457    31.686465  0.036171763  0.043300941            3 
   74000    1.2096157    -6.413784    32.472209  0.036567803  0.043307611            2 
   75000    1.2323845   -6.4591277    32.979896  0.036644329  0.043329358            4 
   76000     1.220308   -6.4342012    33.785292  0.037045276  0.043365606            2 
   77000    1.2002009   -6.4510828     34.42944  0.037261299  0.043418346            3 
   78000    1.2135853   -6.4498385    34.852728   0.03723582  0.043480218            2 
   79000    1.1864016   -6.4383599     35.28545  0.037220939  0.043528029            1 
   80000    1.2387321   -6.4375757    35.957024  0.037455233  0.043564018            3 
   81000     1.233227   -6.4083865    36.540273  0.037592873  0.043610204            1 
   82000    1.2245386   -6.4262471    37.310652  0.037917329  0.043669951            2 
   83000    1.2418208   -6.4229597    37.699042  0.037850444  0.043727873            3 
   84000    1.2305847   -6.4468173    38.149004  0.037846234  0.043776511            8 
   85000    1.2184751    -6.401487    38.376834  0.037624347  0.043805004            2 
   86000    1.2047066   -6.4296147    38.873329  0.037667954    0.0438193            2 
   87000    1.2189251   -6.4651197    39.362094  0.037703155   0.04382443            1 
   88000    1.1989349   -6.4603151    39.743649  0.037636031  0.043820147            3 
   89000    1.2250733   -6.4788715    40.394417  0.037822487  0.043816192            3 
   90000    1.2310476   -6.4306148    40.879416  0.037851311  0.043810101            2 
   91000    1.2094641   -6.4587462    41.166995  0.037698713  0.043793505            2 
   92000     1.225031   -6.4022888    41.919524  0.037970583   0.04378356            1 
   93000    1.2280894   -6.4936439    42.048188  0.037677587  0.043763088            1 
   94000    1.2150746   -6.4836909    42.698656  0.037853418  0.043740536            2 
   95000    1.2523602   -6.4857812    42.926581  0.037654895  0.043711939            2 
   96000     1.229427   -6.4347128    43.689597  0.037924997  0.043685315            2 
   97000    1.1968185     -6.47403     44.28946  0.038049364   0.04367605            4 
   98000    1.2263825   -6.4576268    44.984138  0.038251818  0.043670574            1 
   99000    1.2261932   -6.4657214    45.727058  0.038490789  0.043672491            3 
  100000    1.2443582   -6.4662791    46.229305  0.038524421  0.043685493            3 
  101000    1.2213749   -6.5053053    46.673861  0.038509786  0.043697996            2 
  102000    1.2128762   -6.4748349     47.22111  0.038579338  0.043699002            2 
  103000    1.2123151   -6.4415992     47.83598  0.038702249  0.043700187            1 
  104000    1.2157122   -6.5064937    48.166683  0.038595098  0.043707986            4 
  105000     1.235192   -6.4744924    48.834448  0.038757498  0.043710873            2 
  106000    1.2077946   -6.4878971    49.197751  0.038677477  0.043716789            2 
  107000    1.2082959   -6.4726574    49.700834  0.038707814  0.043712961            2 
  108000    1.2044327   -6.4703517    50.250266  0.038773353  0.043710355            2 
  109000    1.2250814   -6.4826472    50.516212  0.038620957  0.043708001            2 
  110000     1.218133   -6.4862727    50.931649  0.038584583  0.043695459            1 
  111000    1.1971188    -6.464121    51.369373  0.038565595  0.043680767            3 
  112000    1.2135272   -6.4109731    52.071595  0.038743746  0.043662343            3 
  113000     1.203772   -6.4766447    52.365047  0.038617291  0.043644489            2 
  114000    1.2263981   -6.4917758    52.804082  0.038599475  0.043626535            6 
  115000    1.1893291   -6.4608509    53.511845  0.038776699   0.04360388            3 
  116000    1.2189319   -6.4322823    53.851845   0.03868667  0.043581204            3 
  117000    1.2193493   -6.4621958    54.356666  0.038715574  0.043557912            2 
  118000    1.2064699   -6.4567431    54.475218  0.038471199  0.043526813            1 
  119000     1.212875   -6.4913517    55.004552  0.038518594  0.043491079            3 
  120000    1.2007753   -6.4880259    55.378177  0.038457068  0.043452446            2 
  121000    1.2107587   -6.4896991    55.981433  0.038554706  0.043416466            3 
  122000     1.179675   -6.4558166      56.5989  0.038660451  0.043385321            2 
  123000    1.1821686   -6.4828372    57.110902  0.038693023  0.043351221            2 
  124000    1.2078326   -6.4332774    57.667834  0.038755265  0.043323087            2 
  125000     1.222969   -6.4777149    58.175099  0.038783399   0.04329759            1 
  126000      1.20363   -6.4619614    58.778649  0.038874768  0.043273459            2 
  127000    1.2202928   -6.5001252    59.333984   0.03893306  0.043251856            1 
  128000    1.2230322   -6.4698238       60.094  0.039123698  0.043232828            3 
  129000    1.2093881   -6.4704007    60.464035  0.039059454  0.043222348            3 
  130000    1.2203388   -6.4909055    61.297978  0.039293575  0.043218972            3 
  131000    1.1977039   -6.5181671    61.867985  0.039356224  0.043217453            6 
  132000    1.2056076   -6.4537197    61.972584  0.039124106  0.043208418            2 
  133000    1.1943817   -6.5037625    62.646483  0.039252182  0.043200152            2 
  134000    1.2052891   -6.5181904    63.265921  0.039344478   0.04319618            3 
  135000    1.1959653   -6.5163798    63.146992  0.038979624  0.043184428            1 
  136000     1.195147    -6.453671     64.12365  0.039291452  0.043171885            5 
  137000    1.1917025   -6.4556811     64.35974   0.03914826  0.043156031            2 
  138000    1.2204419   -6.4875367    64.838942   0.03915395  0.043136542            2 
  139000    1.1883117   -6.4828078     65.21553  0.039098039  0.043111379            1 
  140000     1.160493   -6.4670525    65.356305  0.038902562  0.043082152            2 
  141000    1.2275167   -6.5151339    65.875078  0.038933261   0.04305148            3 
  142000    1.1862824   -6.4639885     66.57878  0.039072054  0.043022709            2 
  143000    1.1949861   -6.5008729    66.609649  0.038816811  0.042997291            2 
  144000    1.2121604   -6.4863231    67.478442  0.039050024   0.04296939            2 
  145000    1.1874173   -6.4710041    68.018279  0.039090965  0.042941377            2 
  146000    1.2264597   -6.5203865    68.241641  0.038950708  0.042914133            2 
  147000    1.1718113   -6.4541699    68.752938  0.038975588  0.042886573            7 
  148000    1.1922834   -6.4670158    69.474697  0.039118636  0.042858515            5 
  149000     1.209076   -6.4862937    69.221245  0.038714343  0.042822798            3 
  150000    1.1751932   -6.4727181       69.666  0.038703333  0.042784763            1 
  151000    1.1866088   -6.4871296    70.207349  0.038745778  0.042743943            4 
  152000    1.2225017    -6.476141    70.406028  0.038599796   0.04270172            2 
  153000    1.2056421   -6.4722542    71.246268  0.038805157  0.042661629            2 
  154000    1.1989653   -6.4663963    71.510356   0.03869608  0.042622516            2 
  155000    1.1811851   -6.4713304    72.340658  0.038892827  0.042585282            3 
  156000    1.2224631   -6.5256932    72.310894  0.038627614  0.042546624            2 
  157000    1.2149273   -6.4679762    72.762162  0.038621105  0.042505033            3 
  158000    1.1642626   -6.5189716     73.19287  0.038603834  0.042462166            2 
  159000    1.1925254   -6.4982586    73.641543  0.038596196  0.042420369            3 
  160000     1.172936   -6.5324548    74.221858  0.038657218  0.042378612            1 
  161000    1.1903789   -6.5465352    74.610305   0.03861817   0.04233873            3 
  162000     1.191908   -6.5717703    74.928341  0.038543385  0.042299058            3 
  163000    1.2038598   -6.4877986    75.553783  0.038626678  0.042261793            1 
  164000    1.1684458   -6.4360912    76.151664  0.038694951  0.042228527            1 
  165000     1.219848   -6.5276597    76.851868  0.038814075  0.042200321            5 
  166000    1.1789518   -6.5025929    77.517381  0.038914348  0.042173471            2 
  167000    1.2017202   -6.5477978    77.820559  0.038832614     0.042146            1 
  168000    1.1907847   -6.5404903    78.143522  0.038761668  0.042118192            3 
  169000     1.179426   -6.5597296    78.374151  0.038646031  0.042090612            1 
  170000    1.1702402   -6.5181775    79.316827  0.038880797  0.042058692            1 
  171000    1.1722932   -6.5112965    79.886282  0.038930937  0.042034728            6 
  172000    1.1982197   -6.4752815    80.311661  0.038910688  0.042012382            2 
  173000    1.1982878   -6.5042482    80.823539   0.03893234  0.041990933            1 
  174000     1.171144   -6.5117053    81.054247  0.038819084  0.041965633            2 
  175000    1.1825276    -6.494458    81.733828   0.03892087  0.041942757            2 
  176000     1.193858   -6.5277091       82.031  0.038840436  0.041919719            5 
  177000    1.1866116   -6.5178229    82.269571  0.038733319   0.04189263            2 
  178000    1.1811558   -6.5390332    82.396479  0.038575131  0.041860731            2 
  179000    1.1659528   -6.4802964    83.156262  0.038713343  0.041828934            1 
  180000    1.1643406   -6.4714858    83.619277  0.038712628  0.041800339            2 
  181000    1.1875679   -6.5567217    84.126147  0.038732112  0.041775249            7 
  182000     1.183986   -6.4867401    84.600959  0.038736703  0.041748358            2 
  183000     1.166621   -6.5050522    85.069839  0.038738542   0.04171899            2 
  184000     1.173355   -6.5072058    85.286596  0.038626176  0.041686947            3 
  185000     1.164774   -6.5332825    85.595637  0.038556593   0.04165506            2 
  186000    1.1837102   -6.5232221    86.113435  0.038581288  0.041626238            2 
  187000    1.1968111   -6.5273592     86.71362  0.038642433  0.041596844            2 
  188000    1.1797516   -6.5075711    87.093708  0.038605367  0.041566039            4 
  189000    1.1677504   -6.5205969    87.703993  0.038670191  0.041536632            3 
  190000    1.1781823   -6.5375483    88.163258  0.038668096  0.041508494            4 
  191000    1.2141329   -6.5553773    88.647545  0.038676939  0.041481483            2 
  192000    1.1684174   -6.5161899    89.335073  0.038773903  0.041456785            2 
  193000    1.1747531   -6.5155113    89.669117  0.038717235  0.041434784            1 
  194000    1.1851162   -6.5139801     90.00786   0.03866317  0.041412965            2 
  195000    1.1665165   -6.5124065     90.42242   0.03864206  0.041388988            3 
  196000    1.1872205   -6.5314487    90.656116  0.038544267   0.04135993            5 
  197000    1.1849483   -6.5041345    91.530255  0.038718382  0.041333134            3 
  198000    1.1718411   -6.5223282    91.759894  0.038619484  0.041306555            1 
  199000    1.1799325   -6.5219925    91.870556  0.038471757  0.041275792            1 
  200000    1.1505857   -6.5375677    92.232221  0.038430092  0.041246702            3 
  201000    1.1746437   -6.5225129    92.901673  0.038516448   0.04121641            1 
  202000    1.1683918   -6.5285112    93.324974  0.038500402  0.041188285            2 
  203000    1.1507576   -6.5230266    93.829225  0.038517744  0.041160719            2 
  204000    1.1747069   -6.5152193    94.481474  0.038595373  0.041133459            1 
  205000    1.1491995   -6.5357713    94.820431  0.038544891  0.041109696            4 
  206000    1.1710503   -6.5408865    95.199175  0.038510993  0.041086114            2 
  207000     1.168735   -6.5349648    95.727345  0.038537578   0.04106433            2 
  208000    1.1504735   -6.5121363     96.19873  0.038541158  0.041041816            3 
  209000    1.1895066   -6.5283033    96.688639  0.038552089  0.041021207            2 
  210000    1.1714982   -6.5480518    97.380129  0.038642908  0.041000507            2 
  211000    1.1768993   -6.5477554    97.527781  0.038518081  0.040977669            2 
  212000    1.1855611   -6.5158517    97.948348  0.038501709  0.040955582            2 
  213000    1.1676899   -6.5395007     98.61035  0.038579949  0.040933107            1 
  214000    1.1571478   -6.5155692     99.06809  0.038577917  0.040910511            2 
  215000    1.1594457   -6.5669543    98.967944  0.038359668  0.040886041            3 
  216000    1.1482112   -6.5005592    99.424288  0.038358136  0.040859176            3 
  217000    1.1839286    -6.547045     99.65167   0.03826869  0.040831332            1 
  218000    1.1510543   -6.5209475    99.895255   0.03818626   0.04080329            3 
  219000    1.1513908   -6.5562615    100.54934  0.038260784  0.040773027            2 
  220000    1.1650977   -6.5059999    100.90866  0.038222978  0.040742439            3 
  221000    1.1319251    -6.547719    101.49016   0.03826929  0.040712356            3 
  222000     1.157459   -6.5685353    101.28699  0.038020641  0.040681187            3 
  223000    1.1798884   -6.5352748    102.23739  0.038205303  0.040650538            1 
  224000    1.1867556   -6.5109923    102.47056  0.038121488  0.040619106            5 
  225000    1.1713598   -6.5534555    102.39169  0.037922846   0.04058479            2 
  226000    1.1615215   -6.5477368    102.74489  0.037885284   0.04055071            2 
  227000    1.1637737   -6.5542882    103.48812  0.037991234  0.040516897            2 
  228000    1.1597411   -6.5378585    103.69407   0.03789988  0.040484443            2 
  229000    1.1744361   -6.5633681     103.8717  0.037799018  0.040451073            2 
  230000    1.1601783   -6.5296226    104.73076  0.037945929  0.040418304            2 
  231000    1.1648756   -6.5279704    105.35786  0.038007887  0.040388835            2 
  232000    1.1437964   -6.5261659    105.79062  0.037999504  0.040359918            4 
  233000    1.1740495   -6.5327968    105.93011  0.037886305  0.040329175            5 
  234000     1.171937   -6.5318553    106.19705  0.037819461  0.040298298            3 
  235000    1.1799386   -6.5343727    107.02659  0.037952693  0.040268008            2 
  236000    1.1641505   -6.5573258    107.22999  0.037863695   0.04023818            3 
  237000    1.1251531   -6.5457171    107.87305  0.037930046  0.040207191            1 
  238000    1.1562547    -6.556279    108.37414  0.037946126  0.040178012            2 
  239000    1.1429046   -6.5717228    108.81756  0.037941967  0.040149142            1 
  240000    1.1536789   -6.5405825     109.0132  0.037851804  0.040122092            5 
  241000    1.1834028   -6.5647739    109.12005  0.037731691  0.040093961            1 
  242000    1.1438714   -6.5462798    110.16521  0.037935679  0.040065869            2 
  243000     1.148448   -6.5527223    110.75493  0.037981801  0.040039423            3 
  244000    1.1455778   -6.5765765    111.03855  0.037923002  0.040013863            3 
  245000    1.1460304   -6.5410192     111.8442  0.038042244  0.039988228            2 
  246000     1.178672   -6.5734303    111.46745  0.037759977  0.039962291            2 
  247000    1.1648821   -6.5436992    111.98341  0.037781179  0.039934557            2 
  248000    1.1514565   -6.5607781    112.75289  0.037887395  0.039906039            1 
  249000     1.136296   -6.5427715    112.90236  0.037785259  0.039878871            4 
  250000    1.1632591   -6.5634677    112.85958  0.037619861  0.039848816            4 
  251000    1.1572097   -6.6021517    113.38059  0.037642959  0.039818222            2 
  252000    1.1535269   -6.5384661    113.45936   0.03751963  0.039788713            4 
  253000    1.1919142   -6.5484707    114.38963  0.037677742  0.039758803            4 
  254000    1.1523015   -6.5292162    114.75343  0.037648762  0.039729178            1 
  255000    1.1654703   -6.5750116    115.31619  0.037685028  0.039700236            5 
  256000    1.1907313   -6.5635638    115.25793  0.037518858  0.039670434            3 
  257000    1.1631837   -6.5639982    115.22534  0.037362302  0.039638814            4 
  258000    1.1595227   -6.5680957    116.13019  0.037509752  0.039607017            3 
  259000    1.1610597   -6.5952513    116.16552  0.037376292  0.039576454            3 
  260000    1.1465025    -6.566006    117.01484  0.037504757  0.039546117            2 
  261000    1.1647436   -6.5386075    117.45752    0.0375024  0.039516809            2 
  262000    1.1437751   -6.5865753    117.46188  0.037360649   0.03948681            4 
  263000    1.1040981   -6.5609905    117.74932  0.037309669  0.039456843            4 
  264000    1.1334597   -6.6332774    117.79538  0.037182884   0.03942621            2 
  265000    1.1525168   -6.5878975    118.52809  0.037272984  0.039395765            2 
  266000    1.1567151   -6.5862781    119.31015  0.037377867  0.039365176            2 
  267000    1.1673677   -6.5552495    119.69993  0.037359529  0.039335927            1 
  268000    1.1546864     -6.61466    119.56803  0.037179115  0.039304333            2 
  269000    1.1373033   -6.5389135    120.26851  0.037257902  0.039271939            5 
  270000    1.1405487   -6.5765516    120.39252  0.037158185  0.039241137            2 
  271000     1.183161    -6.571169    121.03893  0.037219842   0.03921051            4 
  272000    1.1508836   -6.5586622    121.27448  0.037155173  0.039180192            2 
  273000    1.1523253   -6.5664161     122.0984  0.037270573  0.039150259            3 
  274000    1.1498074   -6.5638651    122.58236  0.037281739  0.039123163            2 
  275000    1.1386436   -6.5435739    123.37807  0.037387294  0.039096934            3 
  276000    1.1395185   -6.5874687    123.36461   0.03724777  0.039070123            1 
  277000    1.1270515   -6.6036061    123.43946  0.037135818  0.039042955            4 
  278000    1.1361034   -6.5519682    124.56524  0.037339701  0.039016595            1 
  279000    1.1369716   -6.5725698    124.89217  0.037303514   0.03899026            2 
  280000      1.15402   -6.5866137    125.58705  0.037377097  0.038965487            6 
  281000    1.1641983   -6.6009339    125.52832  0.037226666  0.038942336            2 
  282000    1.1202298   -6.5740295    126.50412  0.037383013  0.038920354            1 
  283000    1.1433323   -6.5844779    126.99149  0.037394431  0.038898481            3 
  284000    1.1570145   -6.6017736    126.78323  0.037201651  0.038875391            2 
  285000    1.1301253   -6.6378152    126.88054  0.037099574  0.038849824            2 
  286000     1.147368   -6.5900933     127.8596  0.037255129  0.038825203            1 
  287000    1.1732411   -6.5989082    128.18389  0.037219481  0.038800399            4 
  288000    1.1341418   -6.5780159    128.43488  0.037162871  0.038775564            2 
  289000    1.1118835   -6.5735765    128.91506   0.03717274  0.038751663            2 
  290000    1.1203474    -6.562223    128.99547  0.037067663   0.03872743            3 
  291000    1.1667439   -6.5616803    129.49237  0.037082581   0.03870327            2 
  292000    1.1163465   -6.6351516    129.44314  0.036941534  0.038678181            3 
  293000    1.0743728   -6.5834532     129.9793  0.036967946  0.038651814            4 
  294000    1.1538229   -6.6188875    130.14334  0.036888701  0.038626043            2 
  295000    1.1452554   -6.6021336    131.07762  0.037027577  0.038602073            2 
  296000    1.1287127   -6.6263873    130.91981  0.036858055  0.038574982            2 
  297000     1.142207   -6.5742364    132.15844  0.037081493  0.038549098            2 
  298000    1.1504784   -6.6053182    131.90556  0.036886342  0.038523428            3 
  299000    1.1239666   -6.6351263    132.45369  0.036915745  0.038497588            2 
  300000    1.1192628   -6.6278954     132.7461  0.036873916  0.038471919            2 
  301000    1.1454336   -6.6188522    133.46694   0.03695098   0.03844786            3 
  302000    1.1298763   -6.6323151    133.53291  0.036846829  0.038422889            4 
  303000     1.118852   -6.5985406    134.03966  0.036864593   0.03839838            5 
  304000    1.1244051   -6.6270871    134.41688  0.036846732  0.038373398            5 
  305000    1.1489917   -6.6303037    135.09074   0.03691004  0.038350878            2 
  306000    1.1552189   -6.6162884    135.46331  0.036890881  0.038328225            1 
  307000    1.1607104   -6.6182019    135.48578  0.036776812  0.038303654            3 
  308000    1.1397873   -6.6408138     135.7495   0.03672876  0.038277172            5 
  309000    1.1351596   -6.6232342    136.06845  0.036695914  0.038251907            2 
  310000    1.1227936   -6.5867442     136.8084  0.036776451  0.038225866            2 
  311000    1.1425739   -6.6139706    137.11489  0.036740325  0.038200634            1 
  312000    1.1283917   -6.5816359    137.19461  0.036643859  0.038177165            3 
  313000    1.1370714   -6.5797069    137.83443  0.036697132  0.038153517            2 
  314000    1.1316877   -6.5920509    138.07237   0.03664341  0.038129028            4 
  315000    1.1336348    -6.596441    138.46988  0.036632244  0.038104093            6 
  316000    1.1229031   -6.6047805    138.90033  0.036629834  0.038080982            3 
  317000    1.1385711   -6.5993772    139.72012  0.036729789   0.03805755            2 
  318000    1.1166216   -6.6201963    139.60417  0.036583902  0.038033852            1 
  319000    1.1115755   -6.6304569    140.35012  0.036664086  0.038009779            4 
  320000    1.1442558    -6.610457      140.761   0.03665651  0.037986962            2 
  321000    1.1192356   -6.6135866    141.04569  0.036616224  0.037963723            2 
  322000    1.1178541   -6.6325499    141.40977  0.036596732  0.037940543            3 
  323000    1.1183143   -6.5993432    141.68848  0.036555334  0.037917035            2 
  324000    1.1254262   -6.6164539    142.34574  0.036611559  0.037894051            2 
  325000    1.1259344   -6.6339363    142.37414  0.036506189  0.037870936            2 
  326000    1.1260584   -6.5929775    142.95875  0.036543648  0.037848079            3 
  327000     1.108143     -6.62014    143.36935   0.03653653  0.037825307            5 
  328000    1.1342818    -6.614685    143.75985  0.036524353  0.037802748            2 
  329000    1.1350963   -6.5904025    144.22812  0.036531946    0.0377812            2 
  330000    1.1433419   -6.5942605    144.78733  0.036562456  0.037760584            2 
  331000    1.1194847    -6.634854    145.14963  0.036543209  0.037740031            4 
  332000    1.0983379   -6.6160247    145.44171  0.036506453  0.037720486            2 
  333000    1.1314727   -6.6510593    146.10727  0.036563381  0.037700438            3 
  334000    1.1275219   -6.6558087    146.50755  0.036553779  0.037680249            2 
  335000    1.1159572   -6.5806104    147.06388  0.036583054  0.037659973            2 
  336000    1.1251208   -6.6416999    146.58248  0.036354782  0.037638431            3 
  337000    1.0921594   -6.6212152    147.24917  0.036411762   0.03761566            4 
  338000    1.1001502   -6.6082275    147.20507  0.036293164  0.037593248            2 
  339000    1.1065488   -6.6000183    147.56396  0.036274325  0.037570445            1 
  340000    1.1239357   -6.6335715    147.82256  0.036231021   0.03754716            1 
  341000    1.1172885   -6.6822023    147.96954   0.03616069  0.037523327            2 
  342000    1.1058002   -6.6124566    148.49776  0.036183666  0.037499767            3 
  343000    1.1095919   -6.6137577     149.3291  0.036280151  0.037476972            1 
  344000    1.1142913    -6.637331    149.47822  0.036210809  0.037453515            2 
  345000    1.1021408   -6.6422312    149.76242  0.036174499  0.037430789            3 
  346000    1.1345213   -6.6560392    150.39266  0.036221739  0.037407988            2 
  347000    1.1235269   -6.6486078    150.24974  0.036083032  0.037385288            2 
  348000    1.1271779   -6.6404758    151.00521   0.03616025  0.037361613            2 
  349000     1.126478    -6.610124     151.5178  0.036179035  0.037338792            2 
  350000    1.1102079    -6.667864    151.87704    0.0361612  0.037316346            2 
  351000    1.1101195   -6.6595278    152.40834  0.036184317  0.037294343            1 
  352000    1.0878779   -6.6366907    152.67902  0.036145602  0.037273376            3 
  353000     1.103239   -6.6436473     153.3454  0.036200519  0.037252384            2 
  354000    1.1025634   -6.6589303    153.36482  0.036102831  0.037231564            2 
  355000    1.1042033   -6.6455724    153.16928   0.03595523  0.037209825            3 
  356000    1.1004072   -6.7094843      154.048  0.036059926  0.037188321            2 
  357000    1.1112356   -6.6377356    154.64806  0.036098986  0.037167125            1 
  358000    1.1299396   -6.6115013    155.87054  0.036282713  0.037146886            3 
  359000    1.1046358   -6.6689138    155.42806  0.036078938  0.037127773            2 
  360000     1.109669   -6.6483739    155.97863  0.036106164  0.037108505            4 
  361000    1.1154144   -6.6594686    156.10063   0.03603431  0.037089268            4 
  362000    1.1203703   -6.6364357    156.45715  0.036016839  0.037068901            7 
  363000     1.112159   -6.6566405     157.0795  0.036060491   0.03704976            3 
  364000    1.1301915   -6.6548113    157.26995  0.036005025  0.037030859            1 
  365000    1.0909446   -6.6235864    157.52763  0.035965212  0.037011434            2 
  366000    1.0979742   -6.6584582    158.53652  0.036096658  0.036992629            1 
  367000    1.0983073   -6.6204696    159.17615  0.036143539  0.036973974            2 
  368000    1.1174841   -6.6647352    159.26178  0.036064714  0.036956523            2 
  369000    1.1044065   -6.6244648    160.01276  0.036136576  0.036939367            2 
  370000    1.1103765   -6.6635091    159.87158  0.036007113  0.036921337            2 
  371000    1.1010912   -6.6604429    159.88496  0.035913063  0.036903563            3 
  372000    1.1093101   -6.6571268    160.57002  0.035969986   0.03688595            2 
  373000    1.0939599   -6.6892761    160.41208  0.035838267  0.036867017            1 
  374000    1.0978245   -6.6980366    161.17414  0.035912241  0.036847884            3 
  375000    1.1045222   -6.6505966    161.68521  0.035930046  0.036828565            2 
  376000    1.1050615    -6.675656    161.90146  0.035882415  0.036808695            2 
  377000    1.0963941   -6.6214059     161.8103  0.035767087  0.036787906            4 
  378000    1.0928805   -6.6494143      161.837  0.035678352   0.03676811            3 
  379000    1.0813441   -6.6626741    162.61938   0.03575624  0.036747158            2 
  380000    1.0986369   -6.6850209    162.65324  0.035669571  0.036726036            5 
  381000    1.0843894   -6.6584728    163.96768  0.035863448  0.036705988            2 
  382000    1.1114908   -6.6230807    163.81681  0.035736651   0.03668697            4 
  383000    1.1055555   -6.6480632    164.39564  0.035769285  0.036667966            3 
  384000    1.1059634   -6.6512541    164.62933  0.035726851  0.036649109            3 
  385000    1.1171045   -6.6996952    164.93011  0.035699158  0.036629705            2 
  386000    1.1043245   -6.6922886    165.36171  0.035699851  0.036610466            3 
  387000    1.1184084    -6.684535    165.62319  0.035663909  0.036591678            4 
  388000    1.0795451    -6.657874    166.53321  0.035767442  0.036571477            1 
  389000    1.0891901   -6.6530086     165.8935  0.035538453  0.036551367            2 
  390000    1.0877211   -6.6465718    166.67131  0.035613527   0.03653088            1 
  391000    1.0876625   -6.6298276     167.1283  0.035619841  0.036509996            2 
  392000    1.0960433   -6.6727174    166.97051  0.035495432  0.036488316            2 
  393000    1.0924214   -6.6604261    166.87164  0.035384148  0.036465602            2 
  394000    1.1172152   -6.7158807    167.01734  0.035325156   0.03644277            3 
  395000    1.0752973   -6.6688695    168.03519  0.035450462  0.036421174            3 
  396000    1.0987519   -6.6928732    168.42966  0.035443952  0.036399988            5 
  397000    1.1031645   -6.6735015    168.94065  0.035461933  0.036379438            3 
  398000    1.1184722   -6.6918514    169.00121  0.035385513  0.036358622            3 
  399000    1.1010957   -6.6958806    170.07967  0.035522071  0.036337982            1 
  400000    1.0921706   -6.6943457    169.67072  0.035348066  0.036317735            3 
  401000    1.0811368   -6.6909211    170.15706  0.035360985  0.036296795            2 
  402000      1.08597   -6.6762338    170.22589  0.035287291  0.036276287            4 
  403000    1.0637988   -6.6879965    170.19209  0.035192741  0.036254778            3 
  404000    1.0889444   -6.7049035    170.64132  0.035198291  0.036232836            2 
  405000    1.0728473   -6.6332396    171.45015  0.035277809  0.036211308            1 
  406000    1.1101519   -6.6708705    171.15451  0.035130236  0.036189277            2 
  407000    1.0740506   -6.7006925    171.08338  0.035029358  0.036166178            2 
  408000    1.0914516    -6.668404    171.92423  0.035115243  0.036143183            5 
  409000    1.0818733   -6.6664695       172.07  0.035059088  0.036120268            2 
  410000    1.0965929   -6.6789901    172.58558  0.035078369  0.036098221            5 
  411000    1.0768501   -6.6962237    173.08705  0.035094697  0.036076098            4 
  412000    1.0809472   -6.6729968    173.39855  0.035072522  0.036054343            3 
  413000    1.0814376    -6.694232    173.68654   0.03504571  0.036032256            2 
  414000    1.1087423    -6.709747    173.64789  0.034953278  0.036010156            2 
  415000    1.1031959   -6.6688765    175.07668   0.03515596  0.035988767            2 
  416000    1.0977107   -6.6535954      175.174  0.035090945  0.035967977            2 
  417000    1.0969049   -6.7126342    175.43219   0.03505839  0.035947225            1 
  418000    1.0773935   -6.7083121    175.89928   0.03506764  0.035927172            4 
  419000    1.0614822   -6.6945262    176.15089  0.035033988  0.035906998            2 
  420000    1.0621708   -6.6822771    176.37696  0.034995429  0.035886757            2 
  421000    1.0755353   -6.6838042    176.59303  0.034955074  0.035866592            2 
  422000    1.0568019   -6.6952495    176.74527  0.034902305  0.035846327            2 
  423000    1.0899698   -6.6817273    178.09201  0.035085109   0.03582749            2 
  424000    1.0596922   -6.7098511    177.45765  0.034877683  0.035807701            5 
  425000    1.0900747   -6.6937511    178.45704  0.034991577  0.035787703            3 
  426000    1.0821494    -6.721141    178.97341  0.035010448  0.035769044            2 
  427000    1.0721442   -6.6755762    180.07779  0.035143987   0.03575038            3 
  428000    1.0710909   -6.6845617    179.67991  0.034984406   0.03573171            4 
  429000    1.0692804   -6.7318206    179.86704  0.034939207  0.035712975            3 
  430000    1.0900775    -6.680866    180.65068  0.035009822  0.035694642            3 
  431000    1.0919872   -6.6642996    180.62999  0.034924593  0.035676305            2 
  432000    1.0909211    -6.737015    180.76259  0.034869326  0.035657245            7 
  433000    1.0727472   -6.6898949    181.04421  0.034842997  0.035637445            4 
  434000    1.0753018   -6.7189715    181.88138  0.034923459    0.0356181            4 
  435000    1.0898105   -6.7338821    181.30216  0.034732215   0.03559833            3 
  436000    1.0626205   -6.7127823     181.5171  0.034693636  0.035578697            2 
  437000    1.0740546    -6.708867    182.32589  0.034768476  0.035559151            2 
  438000    1.0865398   -6.6904201      182.431  0.034709095  0.035539244            1 
  439000    1.0640373   -6.7050682    182.98961  0.034736069  0.035519622            4 
  440000    1.0835959   -6.7101092    183.22577   0.03470185   0.03549993            3 
  441000    1.0871691   -6.7393786      183.389  0.034654006  0.035479942            2 
  442000    1.1008578   -6.7260856    184.25037  0.034738004  0.035459684            3 
  443000      1.08379    -6.714494    183.87872  0.034589677  0.035439694            3 
  444000    1.0905931   -6.7356051    184.38277  0.034606375  0.035419849            7 
  445000    1.0677967   -6.6986131    184.93183  0.034631428  0.035400053            3 
  446000     1.072879   -6.6900843    185.32494  0.034627231  0.035380374            3 
  447000    1.0686593   -6.6886396    187.09128   0.03487906  0.035361261            2 
  448000    1.0759193    -6.732137    185.99575  0.034597423  0.035342583            1 
  449000    1.0918225   -6.7167494    186.44844  0.034604388  0.035323343            4 
  450000    1.0535734   -6.7087785    186.76282  0.034585707  0.035304305            6 
  451000    1.0811913   -6.7363091    187.30253  0.034608745  0.035286478            3 
  452000    1.0521719   -6.7053596    187.19352  0.034512079  0.035267928            2 
  453000    1.0885217   -6.7350811    187.53113     0.034498   0.03524909            3 
  454000    1.0627189   -6.7132888    188.21294  0.034547161  0.035230012            3 
  455000    1.0698598   -6.7138825    188.63974  0.034549402  0.035211358            3 
  456000    1.0879354   -6.7256336    189.03004  0.034544964  0.035192446            3 
  457000    1.0536333   -6.7416174     188.8025   0.03442788  0.035173491            2 
  458000    1.0431391   -6.7402254    189.03005  0.034394113   0.03515432            7 
  459000    1.0893772   -6.6933411    190.24722  0.034540163  0.035135041            3 
  460000    1.0545029   -6.7312324     190.2599  0.034467372  0.035116945            3 
  461000    1.0470501   -6.7160019    190.89778  0.034507914  0.035098388            3 
  462000    1.0599597   -6.7177819    190.93904  0.034440663  0.035079894            6 
  463000    1.0779106   -6.7359816    191.05151  0.034386521  0.035061488            3 
  464000    1.0615876   -6.7658383    191.67833  0.034424987  0.035042952            2 
  465000    1.0857335    -6.748205    191.58666  0.034334526  0.035024325            2 
  466000    1.0595125   -6.7287058    192.00738  0.034336084   0.03500591            5 
  467000     1.069641    -6.754473    191.90792  0.034244811  0.034986972            4 
  468000    1.0471778   -6.7503221    192.53316   0.03428297  0.034967924            3 
  469000    1.0778026   -6.7431254    193.34393  0.034353932  0.034949343            2 
  470000    1.0860427   -6.7862364    192.95537  0.034211944  0.034930707            2 
  471000    1.0750089   -6.7445403    193.20694  0.034183818  0.034910903            2 
  472000    1.0496795   -6.7290735    193.85378  0.034225597  0.034891339            2 
  473000    1.0581944   -6.7382254    194.27666  0.034227741  0.034872136            4 
  474000    1.0866302     -6.75957     193.7218  0.034057982   0.03485193            3 
  475000     1.056461   -6.7193845    194.62599  0.034144911  0.034831762            2 
  476000    1.0597957   -6.7731735    193.79783  0.033928192   0.03481161            4 
  477000    1.0689058   -6.7713739    194.55577  0.033989477  0.034791402            6 
  478000     1.055521   -6.7470495    195.53781  0.034089576  0.034771619            4 
  479000    1.0775161   -6.7422162    195.28396  0.033974245  0.034751252            2 
  480000    1.0616336   -6.7417476    195.29225  0.033904904  0.034730805            3 
  481000     1.065813   -6.7498946    195.93233   0.03394531  0.034710042            4 
  482000    1.0589808   -6.7454216    196.48132  0.033969799  0.034689049            5 
  483000     1.058885    -6.781622    196.04752  0.033824623   0.03466848            7 
  484000    1.0376645   -6.7584311    196.53898  0.033839356   0.03464743            2 
  485000    1.0630923   -6.7206259    196.77253  0.033809713  0.034626895            2 
  486000    1.0645348   -6.7252399    197.01933  0.033782463  0.034605828            2 
  487000     1.046688   -6.7253622    197.71173  0.033831576  0.034584277            2 
  488000    1.0507665   -6.7519912    197.27648  0.033687923  0.034562295            3 
  489000    1.0367008   -6.7115724    198.70895  0.033863148  0.034540779            2 
  490000    1.0726684   -6.7273826    197.62669  0.033609982  0.034518636            8 
  491000    1.0846663   -6.7592999    198.63273  0.033712277  0.034495892            3 
  492000    1.0734785   -6.7454152    198.53336  0.033626924  0.034473252            5 
  493000     1.044476   -6.7353692    198.21841  0.033505478  0.034450531            3 
  494000    1.0503739   -6.7547947    198.34548   0.03345909   0.03442709            3 
  495000    1.0633804   -6.7319333    198.78013  0.033464668  0.034403488            4 
  496000    1.0566035   -6.7653509    199.17969  0.033464329  0.034380137            3 
  497000    1.0854041   -6.7466258    199.33404  0.033422877  0.034356879            3 
  498000    1.0620389   -6.7573345    200.36785  0.033528756   0.03433446            4 
  499000    1.0354627   -6.7556265    200.65567   0.03350963  0.034312238            2 
  500000    1.0627597   -6.7874711    201.43294  0.033572157  0.034290123            4 
  501000    1.0576649   -6.7700345    200.57741  0.033362842  0.034268643            4 
  502000    1.0465713   -6.7434078    201.78136  0.033496242  0.034246702            2 
  503000    1.0546511   -6.7164956    202.31244  0.033517634  0.034225392            2 
  504000    1.0336241   -6.7704536    202.13557  0.033421886  0.034204086            2 
  505000    1.0605342   -6.7869573    202.74246  0.033455852  0.034182775            3 
  506000    1.0549734   -6.7862205    202.71632  0.033385428  0.034161536            4 
  507000     1.062231   -6.8154939     203.5713  0.033460109  0.034140818            2 
  508000    1.0565958   -6.7462113    203.88609  0.033445881  0.034120394            2 
  509000    1.0412121   -6.7584108    203.71016  0.033351368  0.034099542            6 
  510000    1.0460748   -6.7701618    203.42984   0.03324017  0.034077958            6 
  511000     1.042732   -6.7652457    203.96421  0.033262265  0.034056776            2 
  512000    1.0785331   -6.7717565    204.56196   0.03329459  0.034035213            2 
  513000    1.0604669   -6.7558256    204.70883  0.033253546  0.034013813            4 
  514000    1.0440413   -6.7870476    204.10832  0.033091492  0.033991937            4 
  515000    1.0493566     -6.75133    205.15998  0.033197408  0.033969393            3 
  516000    1.0559026    -6.761187    205.63658  0.033210042   0.03394686            3 
  517000    1.0385049   -6.7871224    205.42893  0.033112335  0.033924419            2 
  518000    1.0324277   -6.7484743    205.20894   0.03301302  0.033901904            2 
  519000     1.027468   -6.7632793    206.17163  0.033103986  0.033879624            3 
  520000    1.0506745   -6.7951346    206.33509   0.03306652    0.0338573            7 
  521000    1.0454103    -6.763358    206.53512  0.033035048  0.033835096            7 
  522000     1.057372   -6.8053522    206.77382  0.033009869    0.0338129            1 
  523000    1.0518808   -6.7735502     206.5643  0.032913368  0.033790641            2 
  524000    1.0283881   -6.7680481    208.00569  0.033079786  0.033768528            1 
  525000    1.0483146   -6.7808388     207.1012  0.032873206  0.033746163            4 
  526000    1.0326136   -6.7752415     207.4609  0.032867697  0.033723443            3 
  527000    1.0444293    -6.832037    207.78151  0.032856026  0.033700494            4 
  528000    1.0264141   -6.7922886    208.86999  0.032965592  0.033678259            6 
  529000    1.0357257   -6.7763368     208.9771  0.032920149  0.033656336            2 
  530000    1.0420688   -6.7621442     209.1368  0.032883144  0.033634375            5 
  531000    1.0487783   -6.7757652    209.84384  0.032932177  0.033612821            2 
  532000    1.0531623   -6.7647556     210.5494  0.032980795  0.033591625            4 
  533000    1.0220564   -6.7896241    209.91661  0.032819982  0.033570553            3 
  534000     1.045013   -6.7960934    210.39262  0.032832806  0.033549035            2 
  535000    1.0512831   -6.8042987    210.29429   0.03275612  0.033527423            3 
  536000    1.0502864   -6.7947737    211.22545  0.032839777  0.033505883            1 
  537000    1.0500352   -6.7533214    211.20915  0.032776095  0.033484901            4 
  538000    1.0230742   -6.8194659    211.34163  0.032735693  0.033463229            2 
  539000    1.0254001   -6.8292252    211.76573  0.032740527  0.033440959            5 
  540000    1.0209952   -6.7898373    212.09381  0.032730526  0.033419359            3 
  541000    1.0465018   -6.8311553    211.92318  0.032643744  0.033397821            2 
  542000    1.0282673    -6.777819    213.06555  0.032759155  0.033376324            3 
  543000    1.0180259   -6.7728351    213.11129  0.032705846  0.033355472            1 
  544000    1.0607793   -6.7709181    213.92635  0.032770581  0.033334959            2 
  545000    1.0220622   -6.7650753    213.52928  0.032649737  0.033314211            1 
  546000     1.045185   -6.7731606    213.21249  0.032541588   0.03329324            2 
  547000    1.0470713   -6.7822597    214.04284  0.032608598  0.033271842            3 
  548000    1.0436627   -6.8060604    214.22539  0.032576854  0.033250898            3 
  549000    1.0319629   -6.7889151    214.45173  0.032551872  0.033229783            3 
  550000    1.0266465   -6.7754135    214.89256  0.032559478  0.033208926            2 
  551000    1.0373069   -6.8038807    215.00401  0.032517243  0.033187563            3 
  552000    1.0380073   -6.7806318    215.88099  0.032590729  0.033166296            6 
  553000    1.0190398   -6.8116588    215.84113  0.032525788  0.033144915            3 
  554000    1.0182084   -6.8292625    216.05824  0.032499736  0.033123722            2 
  555000    1.0125707   -6.8438378    215.72809  0.032391606  0.033102208            4 
  556000    1.0591946   -6.8100837    215.74425  0.032335769  0.033080432            3 
  557000    1.0240277   -6.7719941    216.31347  0.032362876  0.033058569            3 
  558000    1.0384112   -6.8069549    216.78904  0.032375902  0.033036342            3 
  559000     1.032351   -6.8507975    216.26864  0.032240406  0.033014421            6 
  560000    1.0397841   -6.7762426    217.13589  0.032311889  0.032992739            3 
  561000    1.0468626   -6.8327099    217.08226  0.032246325  0.032970841            4 
  562000    1.0283141   -6.8309871    217.14472  0.032198209   0.03294862            4 
  563000    1.0369231   -6.7939458    217.67613  0.032219676  0.032926783            2 
  564000    1.0212776   -6.8521899    217.83743  0.032186381  0.032904778            6 
  565000    1.0233586   -6.8060945    218.38225  0.032209772  0.032882373            5 
  566000    1.0270456   -6.8350871    218.70557  0.032200467  0.032860629            2 
  567000    1.0425513   -6.7909854    219.00437  0.032187591  0.032838465            2 
  568000    1.0093095   -6.8568223    218.26457  0.032022384  0.032816269            4 
  569000    1.0228273   -6.8234642    219.06231  0.032082939  0.032793938            3 
  570000    1.0318045   -6.8258006    218.84413  0.031994756  0.032771894            4 
  571000    1.0257861   -6.7892426    219.81473  0.032080375  0.032750137            3 
  572000    1.0406418   -6.8059763    220.24607  0.032087131  0.032728606            2 
  573000    1.0162113   -6.8398642    220.23496  0.032029518  0.032706881            2 
  574000     1.039733    -6.767147    220.91981  0.032073144   0.03268532            2 
  575000    1.0366423    -6.804265    221.19359  0.032057042   0.03266382            3 
  576000    1.0359834   -6.8519337    220.80805  0.031945609  0.032641923            3 
  577000    1.0337325   -6.8400418    221.23482   0.03195188  0.032620448            3 
  578000    1.0242669   -6.8311434    221.42405  0.031923882  0.032598776            2 
  579000    1.0172424   -6.8048735    221.89508   0.03193654  0.032576812            2 
  580000    1.0344368   -6.8285166    221.77234  0.031863841   0.03255543            4 
  581000     1.014644   -6.8741341    223.00937  0.031986428  0.032534084            1 
  582000    1.0185216   -6.8432572    222.85384  0.031909198  0.032512856            7 
  583000    1.0134556   -6.8264305    222.76201  0.031841339   0.03249173            2 
  584000    1.0378801   -6.7627207    223.90674  0.031950162  0.032471347            3 
  585000   0.99382596   -6.8094895    224.56132  0.031988792  0.032451027            3 
  586000    1.0359809   -6.8407258    225.17208  0.032021058   0.03243104            4 
  587000     1.054404   -6.8224769    225.17047   0.03196628  0.032411196            3 
  588000    1.0000675   -6.8631325    225.00779   0.03188886  0.032391398            6 
  589000    1.0249204   -6.8370386    225.26599  0.031871249  0.032371424            2 
  590000    1.0366781   -6.8295992    225.76883  0.031888252  0.032351046            5 
  591000    1.0102343   -6.8055239    225.60274  0.031810877  0.032330549           10 
  592000    1.0280849   -6.8244559    225.27191  0.031710572  0.032309941            4 
  593000    1.0115049   -6.8058848    225.87487  0.031741832  0.032289029            2 
  594000    1.0314741   -6.8262917    225.40398  0.031622332  0.032268149            2 
  595000    1.0134338   -6.8628053    225.78262  0.031622216  0.032246861            4 
  596000    1.0095572   -6.8665916    226.01002  0.031600953   0.03222536            3 
  597000   0.99840119   -6.8583026    226.31259  0.031590256  0.032203913            3 
  598000     1.001495   -6.8488568    226.45172  0.031556817  0.032182549            4 
  599000    1.0065643   -6.8399468    227.68574  0.031675813  0.032161631            3 
  600000    1.0132307   -6.8643721    226.29674  0.031430103  0.032140072            2 
  601000   0.99969348   -6.8480482    227.31475  0.031518962   0.03211874            2 
  602000    1.0202217   -6.8156202    227.84534  0.031540053  0.032097798            4 
  603000    1.0136017   -6.8293178    228.01142  0.031510699  0.032076992            3 
  604000    1.0344753   -6.8264479    228.35189  0.031505503  0.032056014            7 
  605000    1.0385189   -6.8264839    228.71578  0.031503551  0.032035252            5 
  606000    1.0183895   -6.8316342     228.9686  0.031486332  0.032014449            3 
  607000    1.0137271    -6.824746    229.56129  0.031515828  0.031993447            2 
  608000    1.0062823   -6.8392487    229.92325  0.031513603  0.031973115            4 
  609000   0.99761018   -6.7965098    229.95525  0.031466235  0.031952507            2 
  610000    1.0005114   -6.8507026    230.73409   0.03152105  0.031932315            3 
  611000    1.0131495   -6.8444044     230.5095   0.03143883   0.03191199            3 
  612000    1.0055984   -6.8535349    230.24849  0.031351919  0.031891946            3 
  613000   0.99830048   -6.8292558    231.72767  0.031501858  0.031871712            3 
  614000   0.97100666   -6.8384016    231.52164  0.031422589  0.031851814            3 
  615000    1.0125916    -6.839603    230.73004  0.031264233  0.031831768            2 
  616000    1.0157641   -6.8610001    231.94517  0.031377863  0.031811678            6 
  617000    1.0059462    -6.857975    232.01366  0.031336259  0.031791802            6 
  618000   0.99543835   -6.8739172    232.06133  0.031291981  0.031771403            3 
  619000    1.0161187   -6.8386303    232.27331  0.031269966  0.031750963            7 
  620000     1.003379   -6.8210356    233.21271  0.031345794  0.031730567            5 
  621000     1.014183   -6.8475968    232.76262  0.031234919   0.03171034            3 
  622000    1.0196512   -6.8722076    233.22018  0.031246005  0.031690216            4 
  623000    1.0080731    -6.865475    233.50381  0.031233789  0.031670141            3 
  624000   0.98506231   -6.8747702    234.54531  0.031322825  0.031650378            4 
  625000    1.0081381   -6.8798405    233.71605   0.03116214  0.031631051            3 
  626000    1.0053644   -6.8357539     234.6863   0.03124152  0.031611721            3 
  627000    0.9888003   -6.8715116    235.59064  0.031311887  0.031592232            2 
  628000    0.9808108   -6.8638067    235.93065  0.031307146  0.031573122            2 
  629000    1.0180037   -6.8742183    235.58215  0.031211202  0.031554241            4 
  630000    1.0151953   -6.8481873    235.92553   0.03120708  0.031535234            5 
  631000   0.98365744   -6.8912757    235.85943  0.031148894  0.031516405            4 
  632000   0.98546842   -6.8547687    236.36659  0.031166481  0.031497756            2 
  633000    1.0057489   -6.8464848    237.27615  0.031236987  0.031479358            3 
  634000    1.0211293   -6.8825142    237.65195  0.031237113  0.031460997            3 
  635000   0.99265699   -6.8356633    237.63479  0.031185667  0.031442362            4 
  636000    1.0056681   -6.8961525    237.44506  0.031111774  0.031423889            3 
  637000   0.99980456   -6.8591804    237.87972  0.031119796  0.031405238            4 
  638000   0.98984828    -6.868767    238.15879  0.031107469  0.031386928            3 
  639000    1.0105057   -6.8625623    238.66137  0.031124332  0.031368727            3 
  640000    1.0040206   -6.8973482    238.60343  0.031068155  0.031350129            2 
  641000    1.0128458   -6.8460919    239.38776  0.031121654   0.03133178            3 
  642000    1.0226877   -6.8651354    238.04698  0.030899141  0.031313038            4 
  643000   0.99588267   -6.8683403    239.14814  0.030993797  0.031294119            5 
  644000    0.9983924   -6.8480855    239.03442  0.030930955   0.03127519            3 
  645000   0.99675641   -6.8807577    239.48018  0.030940592  0.031256583            2 
  646000    1.0017967   -6.8800607    239.52081  0.030897937  0.031237809            5 
  647000    1.0146299   -6.9070145    239.76949  0.030882211  0.031218788            4 
  648000    1.0002958   -6.8828361    239.86225  0.030846482  0.031199692            3 
  649000    1.0034899   -6.8836286     240.8778  0.030929352  0.031180969            4 
  650000    1.0039062   -6.8634458    240.51145  0.030834801  0.031162236            2 
  651000     1.003836   -6.8819608     241.0107  0.030851344  0.031143564            2 
  652000   0.99626149   -6.8706085    241.71941  0.030894608   0.03112481            4 
  653000   0.98729916   -6.8893038     240.6219  0.030707236  0.031106104            4 
  654000   0.99079027   -6.8636144    241.61478  0.030786796  0.031087138            2 
  655000   0.95548218   -6.8608726    242.03034  0.030792664  0.031068285            4 
  656000   0.97117007   -6.8672595     241.2942  0.030652211  0.031049194            4 
  657000   0.99143723   -6.8804844    242.47673  0.030755547  0.031030195            4 
  658000   0.98634212    -6.872833    242.20944  0.030674955  0.031010615            3 
  659000   0.96754603   -6.8831171    243.00484  0.030728989  0.030991325            4 
  660000    1.0034738   -6.8824639    243.14154  0.030699689  0.030972411            6 
  661000   0.99653183    -6.908728    242.94473  0.030628432  0.030953432            4 
  662000   0.96562141   -6.8918842    243.50586  0.030652801   0.03093448            3 
  663000   0.98580385   -6.8921694    243.43847  0.030598099  0.030915454            4 
  664000   0.98117215   -6.8831486    243.63344  0.030576486  0.030895948            3 
  665000    1.0113114   -6.8509214     243.6487  0.030532419   0.03087674            4 
  666000   0.99018857   -6.9003938    243.78142  0.030503181    0.0308574            3 
  667000     1.007305   -6.8948482    243.69866  0.030447109  0.030837667            1 
  668000    0.9690632    -6.921292    243.67287  0.030398312  0.030817996            5 
  669000    1.0111217   -6.8752356    244.51696  0.030458017  0.030798354            4 
  670000      1.00132   -6.9088821    244.64436  0.030428402  0.030778599            5 
  671000   0.96344101   -6.8976426    244.27916  0.030337699  0.030758999            3 
  672000   0.98793701     -6.92296    245.16802   0.03040278  0.030739194            3 
  673000   0.98145901   -6.8882535    244.66244  0.030295003  0.030718986            3 
  674000   0.97844935   -6.8963239    245.47085  0.030350007   0.03069922            4 
  675000   0.98363636   -6.9241524     245.3378  0.030288618  0.030679181            3 
  676000    1.0034751    -6.925676    245.09673  0.030214094  0.030658797            4 
  677000   0.97880255   -6.9271977    245.44759  0.030212653  0.030638299            3 
  678000   0.97481155   -6.9279696    245.71199  0.030200589  0.030618278            2 
  679000   0.99144564   -6.9067236    246.34325  0.030233585  0.030598276            5 
  680000   0.98088139   -6.8610121     246.4751  0.030205282  0.030578383            6 
  681000   0.99999387   -6.9167182    245.99631  0.030102339  0.030558363            3 
  682000    1.0025144   -6.8868521    247.13379  0.030197189  0.030538769            4 
  683000   0.98286585   -6.8929208    246.75632   0.03010692  0.030518867            2 
  684000   0.97822003   -6.8929115    247.55942  0.030160748  0.030498987            4 
  685000   0.98072329   -6.9234279    247.40428  0.030097844  0.030479184            7 
  686000    0.9770458   -6.9250043    247.54533  0.030071104   0.03045932            6 
  687000    1.0024177   -6.9070072    247.46903  0.030018077  0.030439096            3 
  688000   0.97059834   -6.9172471    247.93084  0.030030383  0.030418815            3 
  689000   0.99061893   -6.9316171      247.905  0.029983673  0.030398762            7 
  690000   0.94755807   -6.9076669    248.05549  0.029958392  0.030378877            6 
  691000   0.96293749   -6.9133781    248.77465  0.030001767  0.030359083            3 
  692000   0.96829033   -6.9214561    249.02356  0.029988386  0.030339555            7 
  693000   0.98145555    -6.939023    249.27659   0.02997554   0.03031975            4 
  694000   0.98846174   -6.9254204    249.93103   0.03001093  0.030300367            4 
  695000   0.95707751   -6.9365115    249.83257  0.029955944  0.030281005           12 
  696000   0.98781869   -6.9440783    250.38421  0.029978952  0.030261832            3 
  697000   0.97805528   -6.8970799    250.87368  0.029994462  0.030242609            7 
  698000   0.99020786   -6.9170923      250.762  0.029938157  0.030223502            2 
  699000   0.97139162   -6.9397185    250.65483   0.02988255  0.030204346            5 
  700000   0.97692399   -6.9313977     251.1864  0.029903143  0.030185091            2 
  701000   0.96831195   -6.9276799    251.14843  0.029855971  0.030165864            5 
  702000   0.96072613   -6.9557026    251.01573  0.029797688  0.030146691            2 
  703000    0.9861894   -6.9345614    251.26556  0.029784917  0.030127381            2 
  704000   0.96309519   -6.9346604    252.05714  0.029836309  0.030108015            4 
  705000   0.98578869   -6.8908111    253.21852  0.029931267  0.030088704            6 
  706000   0.98651299   -6.9220862    252.59772  0.029815594  0.030069917            3 
  707000   0.95345252   -6.8943923    252.81131  0.029798599  0.030051126            4 
  708000   0.96966463   -6.9443597    252.98337  0.029776762  0.030032168            5 
  709000    1.0000151   -6.9464388    253.10617  0.029749197  0.030013396            6 
  710000   0.95593088   -6.9357076    253.28406  0.029728177  0.029994388            4 
  711000   0.94818287    -6.919631    254.35671  0.029812085  0.029975767            6 
  712000   0.95867929   -6.9282104    254.33058  0.029767156  0.029957473            5 
  713000   0.97650636   -6.9495714    254.54202  0.029750119   0.02993914            4 
  714000   0.94898873   -6.9775595    253.96016  0.029640542  0.029920654            3 
  715000   0.96272374   -6.9308371     254.7532  0.029691515  0.029902114            2 
  716000   0.96014253   -6.9498118    255.35462  0.029720044  0.029883418            4 
  717000   0.98207819   -6.9418626    254.96911  0.029633787  0.029864901            5 
  718000    0.9852436   -6.9354362    255.53285  0.029657945   0.02984651            4 
  719000   0.96495848   -6.9351283    256.13601  0.029686603  0.029828145            4 
  720000   0.95516646   -6.9618869    255.62679  0.029586434  0.029809472            3 
  721000   0.96872545   -6.8993818    256.20326  0.029612027  0.029790906            5 
  722000   0.96592973   -6.9468101     255.9023  0.029536277  0.029772667            3 
  723000   0.95549917   -6.9395846    256.62047  0.029578201  0.029754292            3 
  724000     0.962325   -6.9097437    257.74071  0.029666288   0.02973615            2 
  725000   0.98478101   -6.9409863    257.55261  0.029603749  0.029718178            3 
  726000   0.97191909   -6.9684857    257.44477  0.029550594  0.029699971            2 
  727000   0.96743966   -6.9445481    257.39125  0.029503811  0.029681425            7 
  728000   0.96715327   -6.9480747    257.43347  0.029468116  0.029662922            2 
  729000   0.95524448   -6.9179083     257.7694  0.029466095  0.029644417            6 
  730000   0.95274988   -6.9257638    257.66283  0.029413565  0.029625674            5 
  731000   0.97339378   -6.9562509    258.16827  0.029430947  0.029606932            4 
  732000   0.94793928   -6.9465949     257.8101  0.029349966  0.029588249            2 
  733000   0.95685605   -6.9380071    258.48747  0.029386934  0.029569768            4 
  734000   0.96210469   -6.9442291    257.79368  0.029268129  0.029551076            4 
  735000   0.96480233   -6.9208275    258.70487  0.029331617  0.029532101            3 
  736000   0.96720165   -6.9356751    258.55639  0.029274954  0.029513368            4 
  737000   0.97663995   -6.9270592    258.48954  0.029227673  0.029494281            3 
  738000   0.93834709   -6.9342968    258.95275  0.029240374    0.0294752            2 
  739000   0.95914336   -6.9502625    258.72867  0.029175537  0.029455953            4 
  740000   0.94804405   -6.9302948    259.25752  0.029195667  0.029437079            3 
  741000   0.94623203   -6.9407577    258.61471  0.029083976   0.02941776            4 
  742000   0.97099956   -6.9824829    259.25128  0.029116271  0.029398514            4 
  743000   0.95598387   -6.9465739     259.4686  0.029101458  0.029379103            2 
  744000   0.95343183    -6.969147    259.35955  0.029050129  0.029359646            1 
  745000   0.96553271   -6.9506252    259.65385  0.029044055  0.029340203            4 
  746000   0.93117886   -6.9482723    259.89003  0.029031504  0.029320835            4 
  747000   0.97501998   -6.9370434    260.34284  0.029043155  0.029301406            2 
  748000   0.96674655   -6.9510879    260.37733  0.029008169  0.029281888            4 
  749000   0.96550774   -6.9869995    259.90114   0.02891646  0.029262102            4 
  750000   0.93691662     -6.96692    260.47344  0.028941493  0.029242289            4 
  751000   0.95984484   -6.9817531    260.24141  0.028877209  0.029222736            5 
  752000   0.95552286   -6.9530119    261.37119  0.028964006  0.029203098            3 
  753000    0.9649302   -6.9779847    261.18248  0.028904657  0.029183606            5 
  754000   0.93598955   -6.9370309    261.61223  0.028913819  0.029164078            6 
  755000    0.9580724   -6.9666554     261.7176  0.028887152  0.029144744            2 
  756000   0.95177584   -6.9688643    261.73812  0.028851204  0.029125418            5 
  757000   0.95409809   -6.9420642    262.30859   0.02887589  0.029106276            7 
  758000    0.9437021   -6.9581453    262.52486  0.028861573  0.029087065            3 
  759000   0.94419132   -6.9569862    261.94254  0.028759611   0.02906742            2 
  760000   0.94610122   -6.9238279     262.3793   0.02876966  0.029048115            6 
  761000   0.95906087   -6.9570236     262.8216  0.028780289  0.029028888            4 
  762000   0.95511476   -6.9711241    262.64243  0.028722926  0.029009377            3 
  763000   0.94322845    -6.951496     263.0999  0.028735245  0.028989983            7 
  764000   0.94482849   -7.0049154    262.69832  0.028653831  0.028970689            5 
  765000   0.94843383   -6.9569383    263.39579  0.028692352  0.028951349            6 
  766000   0.94227505   -6.9788085    264.00609  0.028721289  0.028932097            4 
  767000   0.96234828   -6.9485339    263.81567  0.028663154  0.028912877            8 
  768000   0.95571812   -6.9902232    263.64765  0.028607601  0.028893423            3 
  769000   0.94056551   -6.9585471    263.42802  0.028546599  0.028873818            3 
  770000   0.94930852   -6.9337153    263.88836  0.028559346  0.028854312            2 
  771000    0.9589907   -6.9593282    264.67355  0.028607172  0.028834898            2 
  772000   0.93446742   -7.0096364    263.77145  0.028472739  0.028815266            4 
  773000   0.95444245   -6.9676304    264.13895  0.028475523  0.028795546            2 
  774000    0.9341229   -7.0274424    264.86891  0.028517324  0.028775781            6 
  775000   0.91516377   -6.9921702    264.47023  0.028437659  0.028755774            6 
  776000    0.9384512   -6.9875671    264.95614  0.028453193  0.028735951            2 
  777000   0.95955009   -7.0024693    264.18161  0.028333506  0.028716139            4 
  778000   0.94616023   -7.0206462    265.12312  0.028397935  0.028696276            6 
  779000   0.95491431   -6.9877161    265.14954  0.028364307   0.02867643            3 
  780000   0.96477844   -6.9570774    265.47057  0.028362241  0.028656786            3 
  781000   0.92768551   -6.9576504    265.44374  0.028323062  0.028637155            5 
  782000   0.94198296   -7.0021508    265.17258  0.028257948  0.028617547            2 
  783000   0.94017376   -7.0076183    265.75402   0.02828374  0.028597723            4 
  784000   0.98084184   -7.0125475    265.56442  0.028227511  0.028577974            4 
  785000   0.94997194   -7.0198269    265.99161  0.028236901  0.028558292            4 
  786000   0.93461539    -6.998783    265.70478  0.028170567  0.028538286            8 
  787000   0.93663263   -6.9861801    266.09886  0.028176499  0.028518242            6 
  788000   0.95987224   -6.9892074    266.86923  0.028222211  0.028498316            5 
  789000   0.94263094   -7.0154853    266.50044  0.028147491  0.028478625            3 
  790000   0.91436747   -6.9920625    266.90027  0.028154037  0.028458785            3 
  791000   0.94487193   -7.0450054     266.2806  0.028053161  0.028438794            4 
  792000   0.94282783   -6.9785757    267.26082  0.028120877  0.028419243            6 
  793000   0.94160344   -6.9840436     267.9836   0.02816137  0.028399792            6 
  794000   0.93995868    -7.006686    268.28953  0.028158011  0.028380342            3 
  795000   0.95702395     -6.98392    267.73091  0.028064037  0.028360769            6 
  796000    0.9413904   -6.9967261    268.66851  0.028126937  0.028341401            5 
  797000   0.93565607   -7.0128932    268.96924  0.028123091  0.028322091            4 
  798000   0.94482025   -7.0068879     268.1103  0.027998151  0.028302635            6 
  799000   0.93736347   -7.0328426    268.20198  0.027972672  0.028282896            7 
  800000   0.95464826   -6.9723973    268.71176  0.027990808  0.028263316            4 
  801000   0.95440247   -6.9856386    268.50482  0.027934335  0.028243944            3 
  802000   0.93240645   -7.0334946    269.09856  0.027961197  0.028224691            3 
  803000    0.9408242    -7.020752     269.6765  0.027986353  0.028205443            2 
  804000    0.9319241   -6.9969058    270.46156  0.028032915  0.028186449            2 
  805000   0.94637105   -6.9819084    270.20471  0.027971502  0.028167538            5 
  806000   0.91031401   -7.0173308    270.57527  0.027975111  0.028148558            3 
  807000   0.91590597   -7.0118581     270.3893  0.027921242   0.02812962            3 
  808000   0.90485433   -6.9932165    271.15984  0.027966155  0.028110761            2 
[...]
 1800000   0.52782714   -7.8488857    323.84673  0.014992904  0.013734957           27 
 1801000   0.53541054   -7.8683172    323.57313   0.01497192  0.013724035           17 
 1802000   0.53762342   -7.8859024    323.50949  0.014960668   0.01371314           16 
 1803000   0.54048115   -7.8747609    323.55934  0.014954675  0.013702234           29 
 1804000   0.52661432   -7.8747053    323.56165  0.014946491  0.013691342           18 
 1805000   0.52863268   -7.8761304    323.46784   0.01493388  0.013680444           17 
 1806000   0.52212858   -7.8589494    323.06522  0.014907033  0.013669571           18 
 1807000   0.53403386   -7.8894571    323.31641  0.014910368  0.013658696           21 
 1808000   0.51482644   -7.8739828     323.5016  0.014910656  0.013647833           26 
 1809000   0.54379864   -7.8629894    322.81551  0.014870808   0.01363696           19 
 1810000   0.54081088   -7.8813722    323.44447   0.01489155  0.013626124           48 
 1811000   0.53793665   -7.8876405    322.72859  0.014850386  0.013615295           50 
 1812000   0.53044168   -7.8785058    323.24862  0.014866107  0.013604481           25 
 1813000   0.53065062   -7.8825317    323.18131  0.014854813  0.013593666           25 
 1814000   0.53126313   -7.8727154    323.79567  0.014874847  0.013582869           24 
 1815000   0.52850724   -7.8979746    323.04405  0.014832142  0.013572077           32 
 1816000   0.53168849    -7.890737    323.16437  0.014829496   0.01356128           54 
 1817000   0.53562601   -7.8873712    322.77631  0.014803536  0.013550496           27 
 1818000   0.52652598   -7.8859887    322.73921  0.014793693  0.013539723           24 
 1819000   0.52243049   -7.8805262    323.04823  0.014799718  0.013528975           11 
 1820000   0.53030189   -7.8813507    322.92815  0.014786087  0.013518213           27 
 1821000   0.53729031   -7.8860407    323.02202  0.014782264  0.013507478           20 
 1822000    0.5347811   -7.8846193    323.11425  0.014778368  0.013496719           28 
 1823000   0.51670683   -7.9005465      323.164  0.014772536  0.013485984           26 
 1824000   0.53176159   -7.8941403     323.5942  0.014784092  0.013475255           13 
 1825000   0.51664554   -7.8871145    323.04703  0.014751006  0.013464547           16 
 1826000   0.52478943   -7.8794135    323.43686  0.014760718  0.013453862           22 
 1827000   0.51994859   -7.8720729    323.19671  0.014741686  0.013443172           22 
 1828000   0.52817005   -7.9059971    323.14061  0.014731064  0.013432496           29 
 1829000   0.52359668   -7.8793872    323.10374   0.01472133   0.01342183           19 
 1830000   0.52799481   -7.8800632    323.34569  0.014724303  0.013411173           19 
 1831000   0.52020375   -7.9075222    323.48292  0.014722507  0.013400519           20 
 1832000   0.52506327   -7.9008655    322.95194  0.014690317  0.013389863           22 
 1833000   0.52944691     -7.90121    323.18322  0.014692818  0.013379214           21 
 1834000   0.51768743   -7.9014938    322.87573  0.014670835  0.013368576           15 
 1835000   0.51654322    -7.901456    323.26012  0.014680296  0.013357954           20 
 1836000   0.51339692   -7.8772033    323.22528  0.014670719   0.01334735           38 
 1837000   0.51508956   -7.8823698    322.64959  0.014636617  0.013336767           33 
 1838000   0.52114283   -7.8966385    323.38928  0.014662191  0.013326195           24 
 1839000   0.51509312    -7.915515    322.64509  0.014620495  0.013315621           34 
 1840000   0.52068163   -7.8894213    322.69956  0.014615016  0.013305056           37 
 1841000    0.5028176   -7.8794549    322.60687  0.014602882  0.013294499           31 
 1842000   0.52126127   -7.9140181    323.08568  0.014616616  0.013283952           34 
 1843000   0.50974915   -7.9013312    323.08123  0.014608484  0.013273406           35 
 1844000   0.52482671   -7.8987354    322.72487  0.014584457  0.013262868           15 
 1845000   0.51510499   -7.8963309    322.38519   0.01456121   0.01325234           20 
 1846000   0.51953931   -7.8982123    322.61439  0.014563669  0.013241809           20 
 1847000    0.5101315   -7.9051193    323.14176  0.014579578  0.013231288           23 
 1848000   0.50610189    -7.906944    323.22862  0.014575605   0.01322078           19 
 1849000   0.51709105    -7.917697     322.8105  0.014548878  0.013210281           23 
 1850000   0.50923197   -7.8869546    322.32564  0.014519173  0.013199793           16 
 1851000   0.51444188   -7.9034195    322.39838  0.014514604  0.013189313           15 
 1852000   0.51595862   -7.9148526     322.3834  0.014506093  0.013178843           31 
 1853000   0.52506475    -7.908825    322.33978  0.014496302  0.013168375           13 
 1854000   0.51361418   -7.8916523    322.81549  0.014509865  0.013157924           24 
 1855000   0.51352626   -7.8904428    322.56362  0.014490729  0.013147464           18 
 1856000   0.50806306   -7.9113786    322.64146  0.014486416  0.013137034           24 
 1857000   0.51540884   -7.9070175    322.90401  0.014490397  0.013126599           16 
 1858000   0.50829628   -7.9039912    322.75977  0.014476129  0.013116189           22 
 1859000   0.51830311   -7.9032534     322.6494  0.014463394  0.013105787           20 
 1860000   0.51866587    -7.917533    322.77607  0.014461294  0.013095399           20 
 1861000   0.51270312   -7.9131849    322.34561  0.014434247  0.013085004           20 
 1862000   0.51302078   -7.8994353    322.72895  0.014443652  0.013074621           27 
 1863000   0.50611631   -7.9064956    322.34543  0.014418744  0.013064256           23 
 1864000   0.49945894   -7.9166653    322.68803  0.014426325  0.013053899           24 
 1865000   0.51112861   -7.9242925    322.52682  0.014411386  0.013043533           26 
 1866000   0.50339744   -7.9135903    322.40524  0.014398233  0.013033191           16 
 1867000   0.50662043   -7.9038941     322.7533  0.014406057  0.013022869           21 
 1868000   0.50816604   -7.9180638    322.45662   0.01438511  0.013012549           30 
 1869000   0.50551183   -7.9005376    322.95354  0.014399569  0.013002248           25 
 1870000   0.51307486   -7.9245414    322.10426  0.014354022  0.012991945           41 
 1871000   0.50532939   -7.9265453    322.30854  0.014355449  0.012981638           61 
 1872000   0.50575474    -7.919315    322.58909  0.014360269   0.01297135           49 
 1873000   0.50562363   -7.9318849    322.27531  0.014338641   0.01296107           30 
 1874000   0.50325126   -7.9422406    322.01692    0.0143195  0.012950796           31 
 1875000   0.49906314   -7.9406221    322.43443  0.014330419  0.012940533           18 
 1876000   0.50574249   -7.9258034    322.67536  0.014333483  0.012930285           26 
 1877000   0.50242605   -7.9224398    322.01241  0.014296413  0.012920038           17 
 1878000   0.49603107   -7.9201211    322.42242  0.014306994  0.012909802           20 
 1879000   0.49525857    -7.915849    322.61463  0.014307904  0.012899575           21 
 1880000   0.50861585   -7.9251835    322.56566  0.014298123  0.012889366           22 
 1881000   0.50553545   -7.9270767    322.40475  0.014283393  0.012879161           22 
 1882000    0.5068359   -7.9236153    321.83507  0.014250579  0.012868963           16 
 1883000   0.49671482   -7.9127259     322.1029  0.014254864  0.012858781           16 
 1884000   0.50011824   -7.9275305    321.99054  0.014242327  0.012848615           23 
 1885000   0.50221935   -7.9130544     322.2394  0.014245774   0.01283845           27 
 1886000   0.51130444   -7.9340732    322.85819  0.014265562  0.012828292           11 
 1887000   0.49920103   -7.9427982    322.25947  0.014231561  0.012818151           27 
 1888000   0.49656962   -7.9326301    322.17117  0.014220126   0.01280801           28 
 1889000   0.49657222   -7.9349166     322.6389  0.014233232  0.012797883           45 
 1890000   0.49708883   -7.9200943    321.93533   0.01419468  0.012787763           18 
 1891000   0.50315747    -7.932004    322.45977  0.014210284   0.01277765           19 
 1892000     0.484437   -7.9316425    322.33934  0.014197469  0.012767551           19 
 1893000   0.49851148   -7.9307178    322.58056  0.014200588  0.012757458           22 
 1894000   0.50253926   -7.9337556    322.16909  0.014174987  0.012747375           22 
 1895000   0.49495057   -7.9137622    322.25201  0.014171153  0.012737293           22 
 1896000    0.4890673   -7.9413225    322.04493  0.014154577  0.012727224           16 
 1897000   0.49787883   -7.9306164    322.30741  0.014158645  0.012717165           23 
 1898000   0.49302569   -7.9265211    322.00822   0.01413805  0.012707109           18 
 1899000   0.50343342   -7.9380055     322.0747  0.014133522  0.012697056           27 
 1900000   0.49885105   -7.9341086    321.74106   0.01411145  0.012687013           18 
 1901000   0.49120757   -7.9338698    322.40857  0.014133288  0.012676993           22 
 1902000    0.4969776   -7.9271311    322.28144  0.014120287   0.01266697           20 
 1903000   0.49418562   -7.9396668    321.77261  0.014090585  0.012656967           21 
 1904000    0.4906207    -7.947215     322.1049  0.014097728   0.01264697           18 
 1905000   0.49742607   -7.9496508     321.8537  0.014079339  0.012636982           21 
 1906000   0.49082767   -7.9502336    322.05806  0.014080888  0.012626993           25 
 1907000   0.49517206   -7.9583076    321.90537  0.014066832  0.012617021           34 
 1908000   0.49487946   -7.9446767    321.85239  0.014057145  0.012607061           27 
 1909000   0.49090233   -7.9375603    322.13505   0.01406212  0.012597114           20 
 1910000   0.49389023   -7.9466863    322.11546  0.014053903  0.012587175           22 
 1911000   0.49652529   -7.9395533    322.27049  0.014053309  0.012577237           26 
 1912000   0.49551995   -7.9229065    321.23844  0.014000978  0.012567316           24 
 1913000   0.50041897   -7.9358963    322.05567  0.014029259  0.012557406           25 
 1914000   0.49101635   -7.9396186    321.47725  0.013996746  0.012547499           20 
 1915000   0.49520106   -7.9265177    322.09725  0.014016417  0.012537604           24 
 1916000   0.49316933   -7.9323723    321.57037  0.013986185  0.012527704           25 
 1917000   0.49206857   -7.9593764    322.10719  0.014002225  0.012517831           19 
 1918000   0.49249989   -7.9524054    322.11833  0.013995409  0.012507961           25 
 1919000   0.48153391    -7.948098    321.71528  0.013970613  0.012498092           24 
 1920000   0.47572459   -7.9666139    321.50286  0.013954117  0.012488234           35 
 1921000   0.49311604   -7.9614469    321.80108   0.01395979   0.01247839           31 
 1922000   0.48541392   -7.9427424    321.54886  0.013941591  0.012468554           20 
 1923000   0.48024355   -7.9560277    322.21437  0.013963181  0.012458731           30 
 1924000   0.47463519    -7.958006    321.88598    0.0139417  0.012448916           31 
 1925000    0.4813675      -7.9599    321.77834  0.013929798   0.01243911           21 
 1926000   0.48420206   -7.9489216    321.33155  0.013903234  0.012429313           37 
 1927000   0.48294708   -7.9489146    321.39908  0.013898939  0.012419522           38 
 1928000    0.4858914   -7.9600671    321.99387  0.013917439  0.012409751           21 
 1929000   0.49400082   -7.9690991    322.34694  0.013925477  0.012399978           36 
 1930000   0.48172739   -7.9653541     321.6897  0.013889883  0.012390215           29 
 1931000   0.48491777   -7.9507035    322.00192  0.013896164  0.012380465           19 
 1932000   0.48537899   -7.9641996    321.99975  0.013888878  0.012370718           40 
 1933000   0.47361695    -7.963952    322.01948  0.013882544  0.012360984           22 
 1934000   0.47873665   -7.9523699    321.88842  0.013869718  0.012351256           19 
 1935000   0.47695439   -7.9588469    321.78463   0.01385808  0.012341541           25 
 1936000    0.4762953   -7.9583513    321.83319  0.013853013  0.012331833           28 
 1937000   0.47178327   -7.9658308    321.55445  0.013833869  0.012322136           22 
 1938000   0.48743577   -7.9747308    322.01623  0.013846587  0.012312437           35 
 1939000   0.47606053   -7.9721851    322.10234  0.013843147   0.01230276           19 
 1940000   0.47954109   -7.9747542    321.88851  0.013826826  0.012293083           22 
 1941000   0.47565752    -7.947185    321.80586  0.013816154  0.012283412           24 
 1942000    0.4774123   -7.9516812    321.51002  0.013796345  0.012273765           31 
 1943000   0.48835195   -7.9427206    321.88798  0.013805455  0.012264119           22 
 1944000   0.46994047   -7.9747398    321.33209  0.013774524  0.012254485           25 
 1945000   0.48750431   -7.9751054    321.87162  0.013790558  0.012244868           19 
 1946000   0.48209944   -7.9725293    322.35791  0.013804296   0.01223525           22 
 1947000   0.48076546   -7.9631954     321.2895  0.013751477  0.012225635           19 
 1948000   0.47975209   -7.9453489    321.49492  0.013753205  0.012216033           25 
 1949000   0.47736324   -7.9609122     321.8634  0.013761903  0.012206445           22 
 1950000   0.47053043   -7.9570575       321.56   0.01374188  0.012196857           27 
 1951000   0.47315439   -7.9463273    322.16022  0.013760474  0.012187287           25 
 1952000   0.47337028   -7.9710807     321.6737  0.013732655   0.01217773           52 
 1953000   0.46531862   -7.9688412    322.25592  0.013750466   0.01216818           29 
 1954000   0.47255082   -7.9737801    321.85642  0.013726391  0.012158632           19 
 1955000   0.47673884   -7.9803037    321.67958  0.013711832  0.012149082           19 
 1956000    0.4735812   -7.9645927    321.16786  0.013683021  0.012139545           19 
 1957000   0.46222997   -7.9636772    321.88331  0.013706494  0.012130013           28 
 1958000   0.46174677   -7.9567633    321.57033  0.013686173  0.012120501           30 
 1959000   0.47197799   -7.9831155    321.28844  0.013667196  0.012110987           22 
 1960000   0.47675897   -7.9764703    321.35806  0.013663183  0.012101485           23 
 1961000   0.47398709   -7.9811609    321.48326  0.013661536  0.012091998           21 
 1962000   0.46684799   -7.9662533    321.34265    0.0136486  0.012082531           23 
 1963000   0.45628434   -7.9644163     321.4688  0.013647003  0.012073065           46 
 1964000   0.46531005   -7.9654325    320.99408  0.013619912  0.012063599           24 
 1965000   0.45440439    -7.979874    321.43835  0.013631821  0.012054149           24 
 1966000   0.47230142   -7.9832524    321.22918  0.013616022  0.012044709           20 
 1967000   0.47458584   -7.9800734    321.29801  0.013612016  0.012035264           28 
 1968000   0.46810234   -7.9824461    321.45797  0.013611872  0.012025839           25 
 1969000   0.46479638    -7.980443    322.09698  0.013632004  0.012016423           16 
 1970000   0.46636676   -7.9666139    321.18655  0.013586572  0.012007016           17 
 1971000   0.46567973   -7.9778546     321.0467  0.013573765  0.011997617           23 
 1972000   0.46096507   -7.9883235    321.29041  0.013577181  0.011988226           24 
 1973000   0.47203641   -7.9708422    321.73626  0.013589131  0.011978851           42 
 1974000   0.46966467   -7.9705921    321.69388  0.013580458  0.011969485           26 
 1975000   0.46915097   -7.9692984    321.20754  0.013553061  0.011960124           38 
 1976000   0.45717087   -7.9740811    321.23338  0.013547292  0.011950771           26 
 1977000   0.46057314   -7.9834646    321.28556  0.013542639  0.011941416           35 
 1978000   0.46232455   -7.9744857    321.48137  0.013544041  0.011932086           34 
 1979000   0.46003487    -7.982432    321.45445  0.013536064  0.011922763           29 
 1980000   0.45727743   -7.9850173    320.62007  0.013494111  0.011913448           28 
 1981000   0.45869823   -7.9898768    321.33552  0.013517395  0.011904131           26 
 1982000   0.47180242    -7.974206    320.93194  0.013493606  0.011894832           49 
 1983000   0.45602159   -8.0099242    321.56417  0.013513371  0.011885546           28 
 1984000   0.45951658   -7.9836489    321.25423  0.013493541  0.011876255           26 
 1985000   0.45516175    -7.976333    321.57217  0.013500091  0.011866976           25 
 1986000   0.46468309   -7.9963583    321.44476  0.013487947  0.011857704           30 
 1987000   0.45799856    -7.988943    321.29327  0.013474806  0.011848433           42 
 1988000   0.45607156   -7.9798066    321.18355  0.013463429  0.011839178           30 
 1989000    0.4566666   -7.9826001    321.28631  0.013460965   0.01182994           29 
 1990000   0.46227899   -7.9962954    321.33937  0.013456423  0.011820701           20 
 1991000   0.44873356   -7.9895328    321.40462  0.013452395  0.011811467           38 
 1992000   0.46107896   -7.9760006    321.25442  0.013439358  0.011802249           32 
 1993000   0.45146317   -7.9906976    320.83667  0.013415148  0.011793034           29 
 1994000   0.46585575   -7.9805096    320.90562  0.013411302   0.01178383           34 
 1995000   0.45436451   -7.9959046    320.72926  0.013397212  0.011774629           30 
 1996000   0.45197008   -8.0052781    320.98722   0.01340127  0.011765446           36 
 1997000   0.46384463   -7.9873533     320.4816   0.01337346  0.011756262           24 
 1998000   0.46100873   -7.9956241    321.01814  0.013389145  0.011747092           33 
 1999000   0.44519995   -7.9812615    321.24751  0.013392009  0.011737932           33 
 2000000   0.45284483   -7.9972611    320.97612  0.013374005  0.011728786           34 
 2001000   0.45115764   -7.9986471    320.83776  0.013361559  0.011719638           41 
 2002000   0.45354869   -7.9897734     321.0574  0.013364028  0.011710504           22 
 2003000   0.45072113    -8.001231     321.2471  0.013365248  0.011701385           50 
 2004000   0.44959711    -8.006884    321.07422   0.01335139  0.011692272           34 
 2005000   0.44479682   -7.9953711    320.72926  0.013330393  0.011683165           36 
 2006000   0.45697806   -7.9964433    321.29573   0.01334728  0.011674069           25 
 2007000   0.45438014   -7.9982277    321.07449  0.013331444  0.011664981           24 
 2008000   0.45664413    -8.003839    320.93607   0.01331906  0.011655894           33 
 2009000   0.45856962   -7.9923274    320.88842  0.013310454  0.011646817           45 
 2010000   0.44884681   -8.0021486     321.1313  0.013313901  0.011637746           27 
 2011000   0.45689661   -8.0059984    321.08795  0.013305484  0.011628686           30 
 2012000   0.45625781   -7.9939963    320.39012  0.013269968  0.011619636           30 
Loop time of 4466.86 on 48 procs for 2000000 steps with 4000 atoms

Performance: 77369.713 tau/day, 447.741 timesteps/s
99.4% CPU use with 48 MPI tasks x no OpenMP threads

MPI task timing breakdown:
Section |  min time  |  avg time  |  max time  |%varavg| %total
---------------------------------------------------------------
Pair    | 290.58     | 305.35     | 320.26     |  41.3 |  6.84
Neigh   | 28.398     | 29.181     | 29.956     |   6.1 |  0.65
Comm    | 261.05     | 278.53     | 295.17     |  47.4 |  6.24
Output  | 4.5849     | 4.5866     | 4.6235     |   0.3 |  0.10
Modify  | 3787.9     | 3802.8     | 3816.6     |  11.5 | 85.13
Other   |            | 46.42      |            |       |  1.04

Nlocal:        83.3333 ave          90 max          77 min
Histogram: 3 2 4 10 7 6 9 1 2 4
Nghost:        1869.06 ave        1894 max        1847 min
Histogram: 3 4 5 9 7 7 3 5 3 2
Neighs:        11696.6 ave       12874 max       10629 min
Histogram: 5 2 6 6 5 9 5 4 3 3
FullNghs:      23394.1 ave       25461 max       21209 min
Histogram: 1 3 4 7 8 10 6 3 2 4

Total # of neighbors = 1122917
Ave neighs/atom = 280.72925
Neighbor list builds = 107657
Dangerous builds = 0

#clear
#
#next RN
#
#jump SELF
Total wall time: 1:14:29
