
units lj                  # Use reduced LJ style units
atom_style atomic         # Uncharged point particles
atom_modify map hash      # Needed for indexing of clusters etc
                          # Used to be able to find where atoms are in relation to each other.

# Define a lattice with which to populate the simulation cell. With units
# set to 'lj' the second argument to the lattice command is the reduced
# density rho* and the spacings are multiples of that required to acheive
# that density. Also define a simulation cell called 'box' in lattice units
# and fill it with atoms. Here we're creating a box which is ten lattice
# constants in each direction.
lattice fcc 1.0 spacing 1 1 1                 # All equal sizes - gives the right reduced density.
Lattice spacing in x,y,z = 1.5874011 1.5874011 1.5874011

region box block 0 10 0 10 0 10 units lattice # Defines a region, "box", in lattice units
create_box 1 box                              # Creates a simulation box as specified above,
Created orthogonal box = (0.0000000 0.0000000 0.0000000) to (15.874011 15.874011 15.874011)
  3 by 4 by 4 MPI processor grid
                                              # with one type of atom
create_atoms 1 box                            # Creates particles on lattice points
Created 4000 atoms
  using lattice units in orthogonal box = (0.0000000 0.0000000 0.0000000) to (15.874011 15.874011 15.874011)
  create_atoms CPU = 0.004 seconds


# Set the mass of the first (and only) atom type.
mass 1 1.0

# Lennard-Jones interactions between particles, 3.5 sigma cut-off. Apply
# long range tail corrections to energy and pressure and set all coefficients
# to unity since we work in reduced units here. Note that this doesn't shift
# the potential such that it goes to zero at the cutoff. That would require
# pair_modify('shift', 'yes').
pair_style lj/cut  3.5      # non-GPU version
pair_modify tail  yes
pair_coeff 1  1  1.0  1.0   # Intearaction between 1 and 1 set with epsilon = 1 and sigma = 1

write_data data.*
System init for write_data ...
Neighbor list info ...
  update every 1 steps, delay 10 steps, check yes
  max neighbors/atom: 2000, page size: 100000
  master list distance cutoff = 3.8
  ghost atom cutoff = 3.8
  binsize = 1.9, bins = 9 9 9
  1 neighbor lists, perpetual/occasional/extra = 1 0 0
  (1) pair lj/cut, perpetual
      attributes: half, newton on
      pair build: half/bin/atomonly/newton
      stencil: half/bin/3d
      bin: standard

#############################
#   M E L T   S Y S T E M   #
#############################

velocity all create 2.4 5300450 mom yes dist gaussian # Assign velocities
                                                    # Temperature 2.4, random number seed, zero linear momentum
						                                                        # Gaussian distribution

timestep 0.002   # simulation timestep
thermo 1000       # output thermodynamic data every 1000 steps

# Define a fix  in this case with index 1 applied to all
# particles in the simulation. This fix is for simulations
# in the anisotropic NPT ensemble. Note that we use the MTK
# correction.
fix 1 all npt temp 2.4 2.4 0.1 iso 5.68 5.68 0.5 mtk yes tchain 5 pchain 5 # Use NPT ensemble
                                                                         # Set temperature and pressure and damping
                                                                         # Numbers of thermostats in chain and in barostat
run 1000         # run for 10000 steps
Per MPI rank memory allocation (min/avg/max) = 3.642 | 3.644 | 3.648 Mbytes
Step Temp E_pair E_mol TotEng Press Volume 
       0          2.4   -8.3859253            0   -4.7868253   -2.2405722         4000 
    1000    2.3640359   -4.4632256            0  -0.91805834    5.6198419    5168.0104 
Loop time of 0.218758 on 48 procs for 1000 steps with 4000 atoms

Performance: 789913.900 tau/day, 4571.261 timesteps/s
99.4% CPU use with 48 MPI tasks x no OpenMP threads

MPI task timing breakdown:
Section |  min time  |  avg time  |  max time  |%varavg| %total
---------------------------------------------------------------
Pair    | 0.093087   | 0.099923   | 0.11097    |   1.1 | 45.68
Neigh   | 0.017683   | 0.018772   | 0.021119   |   0.4 |  8.58
Comm    | 0.063321   | 0.075187   | 0.083597   |   1.8 | 34.37
Output  | 2.6057e-05 | 2.6827e-05 | 3.4197e-05 |   0.0 |  0.01
Modify  | 0.01976    | 0.023282   | 0.028527   |   1.7 | 10.64
Other   |            | 0.001567   |            |       |  0.72

Nlocal:        83.3333 ave          91 max          76 min
Histogram: 2 3 4 4 15 2 8 5 4 1
Nghost:        1389.19 ave        1410 max        1367 min
Histogram: 4 3 1 5 6 7 12 6 3 1
Neighs:        7364.42 ave        8189 max        6588 min
Histogram: 7 3 3 4 8 6 5 5 4 3

Total # of neighbors = 353492
Ave neighs/atom = 88.373000
Neighbor list builds = 87
Dangerous builds = 23

# Equilibrate just above the melting temperature to avoid step fn in T

fix 1 all npt temp 1.25 1.25 0.1 iso 5.68 5.68 0.5 mtk yes tchain 5 pchain 5
run 1000
Per MPI rank memory allocation (min/avg/max) = 3.642 | 3.644 | 3.648 Mbytes
Step Temp E_pair E_mol TotEng Press Volume 
    1000    2.3640359   -4.4632256            0  -0.91805834    5.6198419    5168.0104 
    2000    1.2426751   -5.8285934            0   -3.9650468    5.7973576    4337.8193 
Loop time of 0.210397 on 48 procs for 1000 steps with 4000 atoms

Performance: 821303.965 tau/day, 4752.916 timesteps/s
99.7% CPU use with 48 MPI tasks x no OpenMP threads

MPI task timing breakdown:
Section |  min time  |  avg time  |  max time  |%varavg| %total
---------------------------------------------------------------
Pair    | 0.091642   | 0.098988   | 0.10633    |   1.0 | 47.05
Neigh   | 0.015473   | 0.01625    | 0.016997   |   0.3 |  7.72
Comm    | 0.064341   | 0.071273   | 0.080867   |   1.3 | 33.88
Output  | 2.4187e-05 | 2.4899e-05 | 3.1485e-05 |   0.0 |  0.01
Modify  | 0.019915   | 0.0219     | 0.023794   |   0.8 | 10.41
Other   |            | 0.001962   |            |       |  0.93

Nlocal:        83.3333 ave          90 max          78 min
Histogram: 3 3 6 9 6 12 4 1 0 4
Nghost:        1552.52 ave        1571 max        1535 min
Histogram: 1 2 7 6 9 9 7 4 2 1
Neighs:        8765.15 ave        9711 max        8085 min
Histogram: 3 2 10 10 8 7 2 3 2 1

Total # of neighbors = 420727
Ave neighs/atom = 105.18175
Neighbor list builds = 75
Dangerous builds = 5


# Small amount of linear quench

fix 1 all npt temp 1.25 ${temp} 0.1 iso 5.68 5.68 0.5 mtk yes tchain 5 pchain 5
fix 1 all npt temp 1.25 1 0.1 iso 5.68 5.68 0.5 mtk yes tchain 5 pchain 5
run 2000
Per MPI rank memory allocation (min/avg/max) = 3.643 | 3.645 | 3.648 Mbytes
Step Temp E_pair E_mol TotEng Press Volume 
    2000    1.2426751   -5.8285934            0   -3.9650468    5.7973576    4337.8193 
    3000    1.1220827   -6.0518527            0   -4.3691494     5.593819      4253.34 
    4000    0.9932454   -6.2492359            0   -4.7597403    5.4782978    4175.3712 
Loop time of 0.439293 on 48 procs for 2000 steps with 4000 atoms

Performance: 786719.271 tau/day, 4552.774 timesteps/s
99.7% CPU use with 48 MPI tasks x no OpenMP threads

MPI task timing breakdown:
Section |  min time  |  avg time  |  max time  |%varavg| %total
---------------------------------------------------------------
Pair    | 0.19935    | 0.21232    | 0.2224     |   1.1 | 48.33
Neigh   | 0.027107   | 0.027922   | 0.029325   |   0.3 |  6.36
Comm    | 0.13607    | 0.14842    | 0.16154    |   1.5 | 33.79
Output  | 5.4003e-05 | 5.5583e-05 | 6.7716e-05 |   0.0 |  0.01
Modify  | 0.039156   | 0.045663   | 0.050887   |   1.4 | 10.39
Other   |            | 0.004911   |            |       |  1.12

Nlocal:        83.3333 ave          88 max          77 min
Histogram: 4 4 4 2 4 3 4 10 5 8
Nghost:        1593.33 ave        1615 max        1576 min
Histogram: 1 2 10 7 11 9 5 1 1 1
Neighs:        9122.62 ave        9822 max        8177 min
Histogram: 2 2 4 5 3 7 7 9 6 3

Total # of neighbors = 437886
Ave neighs/atom = 109.47150
Neighbor list builds = 124
Dangerous builds = 0

#############################
# F R E E Z E  S Y S T E M  #
#############################

# Define solid atoms. This closely follows ten Wolde  Ruiz-Montero and Frenkel  Faraday Discuss  1996  104  93-110
# Compute components of the per-atom q6 vector
compute q6 all orientorder/atom degrees 1 6 components 6 nnn NULL cutoff 1.3 # compute the Q6 parameter.
                                                                             # Use all neighbours within 1.3 unit cell.

# get number of connections
compute coord_number all coord/atom orientorder q6 0.5

# An atom is solid if it has 8 or more connections (of a possible 14)
variable is_solid atom c_coord_number>=8
group solid dynamic all var is_solid    # Must be dynamic to update
dynamic group solid defined

# do clustering
compute cluster solid cluster/atom 1.3 # Create a cluster where all atoms within are solid and max 1.3 units from another member

# define chunks one chunk per cluster
compute clus_chunks solid chunk/atom c_cluster nchunk every compress yes  # Says which atoms are in which chunk

# count the size of each chunk
compute size_chunks solid property/chunk clus_chunks count


# Find the maximum entry in the vector of chunk sizes
variable max_n equal max(c_size_chunks)


# Thermo style which includes this variable
thermo_style custom step temp pe vol v_max_n

thermo ${N}  # Print the thermo information every 100 steps
thermo 1000  

# Reset the npt fix at a lower temperature (below freezing)
fix 1  all npt temp  ${temp} ${temp}  0.1  iso  5.68  5.68  0.5  mtk yes tchain  5  pchain  5
fix 1  all npt temp  1 ${temp}  0.1  iso  5.68  5.68  0.5  mtk yes tchain  5  pchain  5
fix 1  all npt temp  1 1  0.1  iso  5.68  5.68  0.5  mtk yes tchain  5  pchain  5

dump dmp2 all dcd ${N} traj_${rand}.dcd
dump dmp2 all dcd 1000 traj_${rand}.dcd
dump dmp2 all dcd 1000 traj_462431.dcd


# fix rnuntil all halt ${N} v_max_n >= 3980 error soft message no   # Stop when solidified


run 1000000 # 5000000  # Run for this many steps
Neighbor list info ...
  update every 1 steps, delay 10 steps, check yes
  max neighbors/atom: 2000, page size: 100000
  master list distance cutoff = 3.8
  ghost atom cutoff = 3.8
  binsize = 1.9, bins = 9 9 9
  4 neighbor lists, perpetual/occasional/extra = 1 3 0
  (1) pair lj/cut, perpetual
      attributes: half, newton on
      pair build: half/bin/atomonly/newton
      stencil: half/bin/3d
      bin: standard
  (2) compute orientorder/atom, occasional
      attributes: full, newton on
      pair build: full/bin/atomonly
      stencil: full/bin/3d
      bin: standard
  (3) compute coord/atom, occasional
      attributes: full, newton on
      pair build: full/bin/atomonly
      stencil: full/bin/3d
      bin: standard
  (4) compute cluster/atom, occasional
      attributes: full, newton on
      pair build: full/bin/atomonly
      stencil: full/bin/3d
      bin: standard
Per MPI rank memory allocation (min/avg/max) = 9.363 | 9.367 | 9.372 Mbytes
Step Temp PotEng Volume v_max_n 
    4000    0.9932454   -6.2492359    4175.3712           10 
    5000    1.0077464   -6.2845019     4156.855           13 
    6000    1.0048003   -6.2566684    4143.0714            6 
    7000    1.0011051   -6.2937835     4149.999            9 
    8000   0.98607403   -6.2833918    4135.8851            9 
    9000    1.0040078   -6.2763439    4147.8549            4 
   10000   0.98531646   -6.2766838    4158.4423            4 
   11000   0.98705148   -6.2772819    4146.2736            5 
   12000    1.0088319   -6.2522431    4157.5526            9 
   13000   0.99151207   -6.2403472     4177.349            5 
   14000    1.0017735   -6.2791476    4135.9691            7 
   15000   0.98067663   -6.2396487    4162.4308           19 
   16000   0.99094281    -6.306887    4155.6044            5 
   17000    1.0156475   -6.2714752    4144.6614            5 
   18000   0.99951317   -6.2492659    4164.4821            4 
   19000   0.98386858   -6.2586929    4154.8667            6 
   20000   0.99541768   -6.2802044    4161.0285            5 
   21000   0.98276997   -6.2514439    4170.6409            3 
   22000   0.99601554   -6.2441517    4162.7556            5 
   23000   0.98662418   -6.2718987    4140.7469           11 
   24000     1.008752   -6.2723656    4139.1315            3 
   25000    1.0063537   -6.2756885    4146.5639            8 
   26000   0.99471135   -6.2973668    4146.4185           11 
   27000    1.0128874   -6.2672377    4150.3545            5 
   28000    1.0054388   -6.2738221    4137.1565            5 
   29000   0.96258806   -6.2470843    4164.3657            4 
   30000   0.99913213   -6.2731897    4153.3898            7 
   31000    1.0038022   -6.2838116    4136.9325            6 
   32000    1.0092212    -6.296932    4148.3933            6 
   33000   0.98205004   -6.3028977     4143.507           10 
   34000   0.98191051   -6.2952791    4154.4561            8 
   35000    0.9961563   -6.3056615    4160.0086            8 
   36000    1.0019591   -6.2881399    4142.2454            6 
   37000    1.0166908   -6.2575521    4165.2742            5 
   38000    1.0235826   -6.2901119    4141.4649            5 
   39000   0.98522885   -6.2977713    4155.2729            7 
   40000    1.0130255   -6.3094282    4146.1939            4 
   41000      1.01706   -6.2611962    4162.1586            7 
   42000    1.0036229   -6.2640025     4150.651            6 
   43000   0.97945881   -6.2623855    4155.4065            6 
   44000   0.99795206   -6.2758167    4142.0851            5 
   45000    1.0197658   -6.2987153    4140.0379            5 
   46000    1.0084097   -6.2569549    4149.8942           12 
   47000   0.99767884   -6.2745664    4151.8437            4 
   48000   0.99585399   -6.2880612    4150.3924            7 
   49000    1.0268219   -6.2614897    4159.2045            3 
   50000   0.99271726   -6.3022894    4145.3446            9 
   51000   0.99095637   -6.2646235    4151.4476           12 
   52000    1.0149229   -6.2862537    4138.7761            9 
   53000   0.99547393   -6.2939667    4149.7894            5 
   54000    1.0082714   -6.2823015    4145.7847            6 
   55000    1.0056992   -6.2547774    4159.0699            6 
   56000   0.99942287   -6.2457683    4149.3727            7 
   57000   0.98307067   -6.2669779    4152.7529           12 
   58000    1.0240123   -6.3025789    4133.0842           13 
   59000    1.0238396   -6.2823673    4176.1479            3 
   60000    1.0020531   -6.2626369    4165.2497           11 
   61000   0.99883678   -6.2612927    4148.0727            6 
   62000    1.0082878   -6.2434475    4151.7981            6 
   63000     1.011684   -6.2526812    4167.3099            3 
   64000    1.0128631   -6.2787262    4164.9753           13 
   65000    1.0066387   -6.2922275    4161.0162            8 
   66000    1.0006472    -6.309176    4142.5753            6 
   67000    1.0096066   -6.2982435    4158.8532            4 
   68000   0.98632371   -6.2786961    4160.8443           12 
   69000   0.98670496   -6.2738874    4145.4055           12 
   70000    1.0510049    -6.242676    4169.0051            6 
   71000   0.98652565   -6.2527264    4152.1909            9 
   72000   0.98523379   -6.2595087    4144.0363            3 
   73000   0.99446648    -6.267787    4157.2989            5 
   74000    1.0059257   -6.2537315     4142.314            4 
   75000     1.025934   -6.2772451    4153.1535            6 
   76000    1.0279003   -6.2293149    4157.5996            5 
   77000   0.98702182   -6.2487354    4144.3325            7 
   78000    1.0116771   -6.2851808    4150.6531            5 
   79000   0.97911197   -6.2743518    4163.6286            4 
   80000   0.99020605   -6.2660255    4155.6519            6 
   81000   0.98590749    -6.250117    4148.0669            9 
   82000    1.0033363   -6.2885052     4153.299            4 
   83000     1.004279   -6.2839008    4159.9952           16 
   84000   0.97900971   -6.2750718    4151.8878           12 
   85000   0.99817766   -6.2782575    4154.2011           14 
   86000    1.0128314   -6.2740039    4141.5903           12 
   87000   0.99439984   -6.2808381    4153.4633            6 
   88000   0.99679332   -6.2451562    4148.8102           11 
   89000    1.0038109   -6.2776781    4151.7021            4 
   90000   0.99605599   -6.2503211    4163.2507            4 
   91000    1.0074973   -6.2810837     4148.114           10 
   92000   0.99232686   -6.2858199    4130.7439            6 
   93000    0.9970721   -6.2561005    4149.1717            5 
   94000    1.0080111   -6.2708691    4146.4602           10 
   95000    1.0115967   -6.2917686    4138.6622            9 
   96000   0.99248562   -6.2579873    4148.5483            8 
   97000   0.97077956   -6.2378887    4143.1396            5 
   98000   0.98139649   -6.2629523    4150.4168           10 
   99000    1.0037822   -6.2690744    4150.2464            6 
  100000   0.98798061   -6.3031214    4163.2463            6 
  101000   0.99784839   -6.2466847    4189.0615            5 
  102000   0.98340218   -6.3036666    4137.6046            4 
  103000   0.96548829   -6.2703496    4152.5003           16 
  104000   0.98649952    -6.264188    4171.2909            9 
  105000    0.9949878   -6.3102483    4143.4767           12 
  106000    1.0083469   -6.2533168    4150.0902            9 
  107000    1.0067482   -6.2864667    4153.7702            3 
  108000    1.0091108   -6.2650669    4153.8802            4 
  109000   0.98840083    -6.275047    4147.0639            5 
  110000     1.006135   -6.2846889    4155.2464            4 
  111000    1.0157213   -6.2704894    4139.9892           13 
  112000     1.011354   -6.2624299    4141.7976           12 
  113000   0.97988078   -6.2694825    4153.5305            5 
  114000   0.99672587   -6.2885154    4158.1713           11 
  115000     1.020074   -6.2537865    4168.3267            7 
  116000   0.98130548   -6.2610291    4141.9099           10 
  117000    1.0028744   -6.2599535    4137.7949            7 
  118000    1.0074476   -6.2821832    4142.7538            8 
  119000   0.99008705   -6.2633342    4159.5231            7 
  120000   0.99323264   -6.2449514    4171.1571            7 
  121000    1.0024898   -6.2848409    4148.0794           12 
  122000    1.0127265   -6.2878038    4149.2978            4 
  123000   0.98068923   -6.2899641    4168.1852            9 
  124000   0.98016116   -6.2726971    4142.1467           28 
  125000   0.99230738   -6.2811022    4153.5186            4 
  126000    1.0092826    -6.249706    4159.1425            4 
  127000    1.0182613   -6.2664867    4143.7001            4 
  128000   0.98891754   -6.2983948    4150.5807            7 
  129000    1.0130912    -6.283053    4161.9117            3 
  130000    1.0175897   -6.2800783    4144.8742            7 
  131000   0.99836651   -6.2408266    4158.2325            3 
  132000    1.0046215   -6.2606621    4156.8902            6 
  133000    1.0060068    -6.260621    4155.1288            6 
  134000    1.0291888   -6.2727496    4148.2643            3 
  135000    1.0015911   -6.2547195    4149.5639            7 
  136000    1.0271665   -6.2838331    4156.1827            4 
  137000    1.0097901   -6.2923479    4142.7253           12 
  138000    1.0183585   -6.2702393    4138.6464            8 
  139000   0.99420161   -6.2631473    4171.8001            6 
  140000    0.9766343   -6.3111113       4141.7            5 
  141000   0.99987972    -6.277467    4153.4093            4 
  142000   0.98979928   -6.3225361    4145.3143            5 
  143000    0.9739488   -6.2861075    4160.4775           13 
  144000    1.0159912   -6.2617314    4154.5114           14 
  145000    1.0170671   -6.2568301    4155.6914            7 
  146000    1.0086868   -6.2566148    4149.5344           10 
  147000   0.99936862   -6.2688005     4135.916            6 
  148000   0.98931711   -6.3058007    4141.5497            4 
  149000    1.0025773    -6.289493    4152.8319            5 
  150000    1.0046616    -6.282953    4139.6367            7 
  151000   0.97939289   -6.2734505    4152.1575            8 
  152000   0.99042882   -6.2705371    4163.4429            5 
  153000    1.0042405   -6.2802824    4163.9631            9 
  154000    1.0065943   -6.2917272    4149.8259           11 
  155000   0.98342469   -6.2645203      4148.75            3 
  156000   0.98664728   -6.2602323    4150.0503            2 
  157000    1.0075859    -6.278501    4169.0407            6 
  158000    0.9978249   -6.2454479    4176.2126            6 
  159000   0.99344051   -6.2912377    4151.0306            5 
  160000   0.99630017   -6.3021107    4149.8181            3 
  161000   0.99893387   -6.2754789    4154.9851            8 
  162000    1.0083189   -6.2619446    4169.2777           13 
  163000   0.98410171   -6.2591307     4162.228            4 
  164000   0.99898737   -6.2888448    4154.5236            7 
  165000   0.97915134   -6.2910272    4152.2984            7 
  166000    0.9906468   -6.2519844    4146.2558            5 
  167000     1.026956      -6.2787    4161.4127            5 
  168000    0.9962994   -6.2803703    4151.1916            8 
  169000   0.99647484   -6.2750684    4168.9953            7 
  170000    1.0041895   -6.2717913    4154.2472            7 
  171000   0.99848354   -6.2706558    4156.6564           10 
  172000     1.002573   -6.2791485    4130.4754            3 
  173000    1.0036982   -6.2765753    4161.9124            8 
  174000   0.99755641   -6.2410884    4172.0481            4 
  175000    1.0032915   -6.2365218    4156.7851            8 
  176000   0.98810527   -6.2719965    4160.1425            4 
  177000    1.0003647   -6.2954946    4159.6768           11 
  178000    1.0115396    -6.288519    4159.1987            7 
  179000   0.98764572   -6.2633869    4148.2068            5 
  180000    1.0005294   -6.2565579    4149.8857            8 
  181000   0.99628626   -6.2625332    4160.2877            5 
  182000    1.0150646   -6.2451983    4154.2758            6 
  183000    1.0020774   -6.2747613    4143.5749           11 
  184000    0.9923098   -6.2573602    4151.7593            5 
  185000   0.98291362   -6.2804326    4151.9489           10 
  186000      1.00541   -6.2712193    4172.2023            4 
  187000    1.0172485   -6.3025172     4147.979           12 
  188000    0.9876015    -6.270917    4162.8944            6 
  189000   0.98824628   -6.2445298      4148.38            7 
  190000   0.97039064   -6.2507445    4155.6633            6 
  191000    1.0225149   -6.2412026    4149.6626            9 
  192000   0.99398103   -6.3047151    4140.0176           12 
  193000    1.0038607   -6.2615062    4146.4104           16 
  194000   0.98961102     -6.28182     4153.798            9 
  195000   0.99686591   -6.2643286    4147.5407            8 
  196000   0.99853451   -6.2962206     4153.177            6 
  197000    1.0123228    -6.280982    4160.1536            7 
  198000     0.983462    -6.211007    4175.3123            3 
  199000    1.0175721   -6.2472688    4166.4642            6 
  200000   0.99247641   -6.2603995    4171.1618            7 
  201000   0.99435966   -6.2766845    4154.6834            9 
  202000    1.0080085   -6.2482224    4143.0125            5 
  203000   0.99732529   -6.2430304    4162.8378            4 
  204000   0.98399229    -6.246829    4153.8709            6 
  205000   0.98763885   -6.2371374    4151.4337           13 
  206000   0.99928275   -6.2721449    4172.9865            5 
  207000    1.0098065    -6.265177    4136.8294            8 
  208000    1.0029886   -6.2655884    4149.5106            5 
  209000    1.0001259   -6.2588958    4152.8845            3 
  210000   0.99151596   -6.2260733    4149.3853           10 
  211000    1.0014903   -6.2883678    4155.6617            5 
  212000     1.030911   -6.2793568    4154.8558            6 
  213000   0.98345223   -6.2792115    4135.7783            7 
  214000    1.0104965    -6.281749    4147.7179            4 
  215000    1.0182402   -6.2719689    4145.1616            3 
  216000   0.98284132   -6.2481386    4147.7093            5 
  217000   0.99458667   -6.2846652     4153.934            3 
  218000   0.99083518   -6.2449857    4143.4033            7 
  219000    1.0009104   -6.2656794    4154.4082           14 
  220000   0.99251473   -6.2473694    4153.6381           17 
  221000   0.98687582   -6.2777467    4142.2017            5 
  222000    1.0091446   -6.2818083    4146.7912            5 
  223000    1.0185228    -6.286716    4158.2689           15 
  224000    1.0217486   -6.2773936    4141.9035            7 
  225000   0.99112508   -6.2825475    4156.5723            4 
  226000   0.99619591   -6.2687328    4161.4387            6 
  227000   0.97515418   -6.2456173    4141.6715           10 
  228000   0.98564233    -6.300823    4143.6496            9 
  229000    1.0160713   -6.2910188    4148.5019            3 
  230000    0.9985031   -6.2617332    4159.9053            3 
  231000   0.99950045   -6.2565834    4159.3818            9 
  232000    1.0123664   -6.2514696    4141.0995            5 
  233000   0.98057338   -6.2785231    4147.1578           13 
  234000    1.0125374   -6.2766238    4171.6488            6 
  235000    1.0013748   -6.2757543     4159.474            5 
  236000    1.0237236   -6.2748856    4143.6952            8 
  237000   0.99526727   -6.2829045    4142.1744           12 
  238000     1.018718   -6.2990299    4157.7327            9 
  239000   0.99602488   -6.2444963    4163.7421           11 
  240000   0.99036999   -6.2491788     4155.328            5 
  241000   0.99512647   -6.2527219    4157.4632           10 
  242000    1.0062624   -6.2207681    4150.9832            4 
  243000    1.0248167   -6.2856234    4139.4936            7 
  244000    1.0004931   -6.2838897    4152.4326            6 
  245000   0.98002937   -6.2777578    4159.5379            5 
  246000   0.96473591   -6.2915605    4154.5045            6 
  247000    1.0080045   -6.2518676     4154.574            5 
  248000   0.98152682   -6.2665667    4158.9169            5 
  249000    1.0141971   -6.2986315    4148.4647            7 
  250000    1.0086862   -6.3016046    4154.2134            6 
  251000   0.98568746   -6.2873211    4149.0179           15 
  252000   0.97107975    -6.273889    4161.6859            6 
  253000   0.99837922   -6.2723998    4153.9832            5 
  254000   0.99303766   -6.2880053    4124.8826           13 
  255000   0.97622654   -6.2762211    4137.7045           12 
  256000    1.0011766   -6.2786082    4138.5511            8 
  257000     1.005558   -6.2786766    4163.1131            7 
  258000   0.98603434   -6.2441741    4160.7302            5 
  259000   0.97741199   -6.2842375    4132.7084           12 
  260000    1.0207272   -6.2664696    4174.1403            7 
  261000    1.0170037   -6.2845654    4136.8391            8 
  262000    0.9962165   -6.2586712    4156.7093           10 
  263000    1.0071734   -6.2664598    4145.3787            7 
  264000   0.97884239   -6.2354251    4185.5001           10 
  265000    1.0021445    -6.264104     4159.175            7 
  266000   0.99578961   -6.2804085    4153.1405            9 
  267000    1.0124782   -6.2841809    4144.3327            9 
  268000   0.99209356   -6.2616078    4159.2475            5 
  269000   0.98720251   -6.2347297     4149.422            5 
  270000    1.0037846   -6.2592902    4155.1688            6 
  271000    1.0070378   -6.2822069     4149.323           11 
  272000    1.0155876   -6.2454682    4149.9217            9 
  273000    1.0069198   -6.2969568    4139.8228            6 
  274000    1.0179096   -6.2827458      4140.21            3 
  275000    1.0183352   -6.2279414    4171.4665           10 
  276000   0.99394594   -6.2873118    4142.3096            9 
  277000     1.002239   -6.3030644     4154.443            5 
  278000   0.98811755   -6.2928986    4148.5898            3 
  279000    1.0035162   -6.2955798    4151.0523            7 
  280000   0.99862296   -6.2494313    4150.2059           11 
  281000    1.0052697   -6.2520709    4155.7983            7 
  282000    1.0184783   -6.2536405    4154.9418            9 
  283000    1.0050414   -6.2613062    4158.2855            4 
  284000   0.99569261   -6.2987767    4139.4824            5 
  285000    1.0050255   -6.2466523    4154.9475            4 
  286000    1.0175467   -6.2564865    4168.4353            5 
  287000   0.97295496   -6.2833077    4152.1903            3 
  288000   0.97956138   -6.2943236    4159.2378            9 
  289000   0.99390339   -6.2620627    4135.9329            9 
  290000    1.0013276   -6.2985935    4157.8318            6 
  291000   0.99558781   -6.2795657     4158.911            4 
  292000   0.98443316   -6.2534744    4174.9285            5 
  293000   0.99888911   -6.2533507    4166.7558           15 
  294000   0.97110698   -6.3005195    4150.6788            7 
  295000    1.0001576   -6.2881573    4156.5633            4 
  296000   0.98641694   -6.2709187    4143.4415            9 
  297000    1.0174239   -6.2824645    4136.2461            6 
  298000   0.99573723   -6.2635708    4158.5116            8 
  299000    1.0003176    -6.266117    4160.8318            4 
  300000     1.012854   -6.2843646    4143.9034            4 
  301000     1.003868   -6.2488414    4146.6721            3 
  302000    0.9819898   -6.2319618    4168.7616            5 
  303000     1.021846    -6.212681    4159.0127            9 
  304000    1.0082526   -6.2457601    4151.8528           15 
  305000   0.97981809   -6.2923854    4132.4165            6 
  306000    1.0135639   -6.3192498    4142.7199           12 
  307000    1.0169765   -6.2749572    4166.4164            4 
  308000   0.98175881   -6.2791434    4149.5554            4 
  309000   0.97981739   -6.2813873    4153.7206            8 
  310000    1.0133944   -6.2634386    4161.7604            6 
  311000   0.99409674   -6.2969324    4157.4443            3 
  312000   0.98899979   -6.2810108    4156.4072            5 
  313000   0.98884577   -6.2866045    4170.8861            4 
  314000   0.96637336   -6.2718143    4154.3076            9 
  315000    1.0025749   -6.2479884    4149.3783           11 
  316000   0.99287398   -6.2607312     4168.513            5 
  317000    1.0118496   -6.2986704    4139.3784            5 
  318000   0.98602087    -6.294072    4150.4527            6 
  319000    1.0157029    -6.296562    4152.8508            6 
  320000   0.99497211   -6.3051386     4139.114            5 
  321000    1.0337912   -6.2949194    4174.6746            6 
  322000    0.9927253   -6.2631593    4146.2761            5 
  323000   0.99868774   -6.2664467    4150.9876            5 
  324000   0.98646435   -6.2975779      4147.15            6 
  325000    1.0118277   -6.2424494    4161.5938            4 
  326000   0.98713242   -6.2839973     4142.877            6 
  327000    1.0055982   -6.2644146    4153.3833           14 
  328000    1.0273416   -6.2351841    4164.9631            4 
  329000   0.97511103   -6.2511013    4149.9517            9 
  330000   0.99425837   -6.2580279    4152.9146            8 
  331000    1.0050272   -6.2424143    4174.1707           22 
  332000   0.99172541   -6.2717708    4146.8678           10 
  333000   0.99291669   -6.2889416    4157.5675            8 
  334000       1.0182   -6.2420878    4160.4519            9 
  335000    1.0111854   -6.2642717    4151.9757            4 
  336000   0.98218504   -6.2928682    4143.4965           10 
  337000    1.0035794   -6.2613439    4159.3323            5 
  338000    1.0048551   -6.2775242    4148.3156            7 
  339000    1.0168854   -6.2446502    4159.2488            9 
  340000    1.0066544   -6.2453067    4155.0165            5 
  341000     1.013573   -6.2163326    4156.8516            4 
  342000   0.99633977   -6.3069906    4137.7644            3 
  343000    1.0243507   -6.2563533    4148.1798            7 
  344000    1.0185138   -6.2611426    4146.8084            4 
  345000   0.99311698   -6.2979301    4157.3743           10 
  346000    1.0093666   -6.2724256    4156.1679           11 
  347000    1.0026193   -6.2512397      4147.19            4 
  348000   0.99812076   -6.2857283    4171.0304            8 
  349000    1.0066628   -6.2658247    4154.2232            6 
  350000   0.98862638   -6.2787692    4134.7257            9 
  351000   0.98588687   -6.2572338    4169.2793            3 
  352000    1.0180452   -6.2888061    4156.3013            4 
  353000   0.98528996   -6.2370316    4165.3528            9 
  354000    1.0217036   -6.2861645    4152.2845            8 
  355000    1.0114833   -6.2826183    4152.3766            6 
  356000   0.99650202   -6.3141905    4149.5094            7 
  357000   0.99431232   -6.2919818    4153.7769            4 
  358000   0.98365589   -6.2884257     4150.001            5 
  359000    1.0051214   -6.2685068    4144.4677            9 
  360000    1.0143367   -6.2814236     4161.731            7 
  361000   0.99879503   -6.2949521    4122.5438            6 
  362000   0.98339697   -6.2804247    4161.4964            9 
  363000    1.0023197   -6.2697222    4153.5358            4 
  364000    1.0134754   -6.2683937    4162.7807            9 
  365000   0.99273238   -6.2683709    4162.9362            6 
  366000    1.0157248    -6.245569    4150.5906            7 
  367000    1.0084657    -6.269097    4165.7841            6 
  368000    1.0113589   -6.2949773    4150.7834            9 
  369000   0.96900407   -6.2821627    4159.5469            4 
  370000   0.99052954   -6.2981714    4144.1611            3 
  371000   0.98508325   -6.2640813    4141.4042            6 
  372000   0.99894406   -6.2767327    4160.1942            9 
  373000   0.98959983   -6.2772463    4139.2253           18 
  374000    1.0089051   -6.2952261    4142.8125            6 
  375000   0.99824204   -6.2641144    4146.4351            6 
  376000    1.0037669   -6.2776062    4152.3221            8 
  377000   0.98166694   -6.2944596    4167.0998           10 
  378000    1.0010083   -6.2520111    4160.2243           11 
  379000    0.9948687   -6.2996748     4149.046            6 
  380000   0.98853784   -6.2459274    4146.2887           11 
  381000   0.98757938   -6.2453125    4162.1443           10 
  382000   0.99079869   -6.2539626    4150.1567           14 
  383000   0.99861806   -6.2547807    4147.4359            6 
  384000   0.99421182   -6.2986788    4147.6214            5 
  385000    1.0086111   -6.2628893      4138.42           13 
  386000    1.0132652   -6.2834017    4133.6888            8 
  387000   0.98592926   -6.2952536    4138.5762           14 
  388000    1.0066888   -6.2512152     4159.435            9 
  389000    1.0254488   -6.2800151    4160.5524            8 
  390000     1.021734    -6.253479    4153.5802            7 
  391000    1.0132368   -6.2555282     4155.543           15 
  392000    0.9837272   -6.2564838    4148.1494           11 
  393000    1.0281867   -6.2920994    4156.9569            4 
  394000    1.0204782   -6.2923728    4149.0223            6 
  395000   0.99373403   -6.2445998    4150.6693            4 
  396000   0.98083627    -6.276284    4147.7252            5 
  397000    1.0081443   -6.2617982    4149.9554            5 
  398000    1.0155446   -6.2794753    4142.5759            5 
  399000    1.0066264   -6.3130731     4133.591           10 
  400000    1.0096734   -6.2972655    4153.3111           10 
  401000     1.018297   -6.2692724    4157.8831            4 
  402000     1.000659   -6.2439527    4161.8852            5 
  403000    1.0263741   -6.2457503    4159.1574            9 
  404000   0.98902989   -6.2539196     4147.572            8 
  405000    1.0064217   -6.3022482    4141.1152           11 
  406000   0.99008264   -6.3066108    4162.8954            3 
  407000    1.0124136   -6.3011339    4142.9862            6 
  408000   0.98614103   -6.2905046    4148.2515            6 
  409000   0.97824613   -6.2559512    4155.1303            5 
  410000    1.0072303   -6.2558537    4151.6166            5 
  411000    1.0082008    -6.290766    4152.3953            5 
  412000    1.0033227   -6.2950389    4155.4423            6 
  413000     1.011793   -6.2790992    4142.3455            7 
  414000     1.023359   -6.2774415    4148.0389            6 
  415000    1.0131622   -6.2990359    4149.4404            8 
  416000    1.0095818   -6.2288644    4151.8521            8 
  417000    1.0031802   -6.2669007    4161.0116            4 
  418000   0.99369968    -6.273237    4172.6198            6 
  419000    1.0074168   -6.2876012    4142.7298            9 
  420000    1.0408339    -6.244922    4166.4776            5 
  421000    0.9866433   -6.2539922    4156.1248            7 
  422000   0.98728595   -6.2895402    4127.7506            5 
  423000    1.0004066    -6.246621    4146.9134           11 
  424000    1.0114649   -6.2678478    4127.8431            6 
  425000   0.99936071   -6.2661807    4157.0664            5 
  426000    1.0041694   -6.2542337    4157.9759            8 
  427000     1.006989   -6.2755219    4148.1379            5 
  428000    1.0091473   -6.2760511    4169.0151            5 
  429000    1.0229815    -6.290032    4134.1245           11 
  430000    1.0021287   -6.2895051    4154.0985            7 
  431000    0.9904912   -6.2927539      4135.39            4 
  432000   0.99865351   -6.2621907    4156.1411            6 
  433000    1.0012412    -6.278107    4154.8901            5 
  434000    1.0060274   -6.2614311    4170.2974            8 
  435000   0.99882258   -6.2629003    4158.4584            6 
  436000   0.99331928   -6.2680083    4177.3595            3 
  437000    1.0220104   -6.2255207    4149.0464            5 
  438000   0.99745366   -6.2572759    4159.6551            5 
  439000   0.99877269   -6.2953791    4142.6682            6 
  440000    1.0078553   -6.2620285     4150.419           17 
  441000   0.99809668   -6.3120171    4150.6229            6 
  442000   0.99663858   -6.2754812    4172.2918            8 
  443000   0.98160186   -6.2701843    4157.8162            8 
  444000    0.9989976   -6.2450578    4167.5213            8 
  445000   0.99230332   -6.2858802    4149.9794            6 
  446000    0.9701584   -6.2531186     4172.327            5 
  447000   0.99950037   -6.2658205    4149.4343            9 
  448000    0.9826465   -6.2840288      4147.29            9 
  449000   0.98625385   -6.2687514    4158.9496            5 
  450000   0.99890712   -6.2595248    4149.8205            5 
  451000    1.0019793   -6.2931003    4135.4288            8 
  452000   0.97682611   -6.2581265    4164.0635            6 
  453000    1.0121178   -6.2720023     4164.268            4 
  454000    1.0264827   -6.2631305    4133.9065            9 
  455000    1.0022615   -6.2657545    4163.6452            9 
  456000   0.98905724   -6.2993199    4154.6146            6 
  457000    1.0053985   -6.2844783    4151.7393           10 
  458000   0.98070561   -6.2812318    4164.0475            5 
  459000    1.0076014   -6.2835714     4141.021            5 
  460000    1.0133343   -6.3116314    4138.4751            4 
  461000    1.0090433   -6.2708018    4138.0388            4 
  462000    1.0118922   -6.2395818    4166.7099            6 
  463000   0.99836832   -6.2712503    4146.7413            7 
  464000   0.99210587   -6.3052167    4147.4793            7 
  465000    1.0031316   -6.2497497    4157.4117            7 
  466000    1.0008905   -6.2904143    4147.9765            4 
  467000     1.004639   -6.2433908    4168.1431            3 
  468000    1.0176732   -6.2602974    4140.7185            6 
  469000    1.0068277   -6.2766224    4145.2662            7 
  470000    1.0168566   -6.2958384    4143.6333            6 
  471000    1.0083667    -6.293461    4138.3513            8 
  472000    1.0019627   -6.2910216    4153.8908            5 
  473000    1.0028581   -6.2796073    4158.8862            7 
  474000    1.0112133   -6.2980955    4146.3915           10 
  475000    1.0088255     -6.30304    4150.9206            7 
  476000    1.0149602   -6.2804325      4151.27            7 
  477000    1.0064492   -6.3069022    4142.0053           11 
  478000    1.0245303   -6.2800659    4141.3871            8 
  479000   0.97797438    -6.250403    4163.0571            9 
  480000    1.0325008   -6.2383696    4135.8718            4 
  481000   0.97508755   -6.2513019    4168.7894            8 
  482000    0.9907487   -6.2748517    4130.3669            7 
  483000    1.0003004    -6.250106    4151.5221            7 
  484000   0.99107708   -6.2984945    4154.6711            7 
  485000    1.0138533   -6.2565412    4165.0872            6 
  486000   0.99443489   -6.2746973    4159.6858            8 
  487000   0.99706909   -6.2837181    4154.6558            5 
  488000    1.0148312   -6.2900295    4158.0205           11 
  489000   0.99274763   -6.2685541    4156.2592           10 
  490000    1.0197973   -6.2723942      4161.06            9 
  491000    1.0024443   -6.2565304    4160.3259            4 
  492000    1.0072737   -6.2513848    4147.5883            5 
  493000    0.9987108   -6.2501917    4147.2403            4 
  494000    1.0098377    -6.300837    4147.4396            3 
  495000    1.0107041    -6.280215    4173.9296            5 
  496000    1.0114732   -6.2708551    4150.7993            7 
  497000   0.99695802   -6.2596769     4142.499            7 
  498000    1.0125426   -6.2731942    4155.8516            3 
  499000   0.99545268   -6.2698544    4174.1206            8 
  500000    1.0007221   -6.2528512    4164.4294           13 
  501000   0.99110966   -6.2845347    4157.7253           18 
  502000   0.99710234   -6.2693244    4149.3346            7 
  503000    1.0011613   -6.2794835     4148.719            3 
  504000   0.99237941   -6.2310166    4163.1289            6 
  505000   0.99102839   -6.3078157    4167.8952            6 
  506000    1.0047476   -6.2781549    4132.2552            5 
  507000    1.0011703    -6.322635    4157.4639           10 
  508000    1.0058399   -6.2534566    4158.7996            4 
  509000    1.0101568    -6.260152    4159.5585            7 
  510000   0.99750244   -6.2703868    4151.2482            7 
  511000    1.0158518   -6.2795213    4153.8513            6 
  512000    1.0005441   -6.2646406    4161.6078            3 
  513000    1.0095797   -6.2755929    4148.8306            9 
  514000   0.97654271   -6.2785545    4143.8296           13 
  515000   0.99791152   -6.2916787    4146.3591           12 
  516000    1.0084317   -6.2669619    4156.2063            8 
  517000   0.99473622   -6.2637879    4153.8712            4 
  518000   0.99059686   -6.2747767    4158.9934            3 
  519000    1.0265898   -6.2500409     4155.752            7 
  520000    1.0318683   -6.2940549    4138.5271            4 
  521000   0.98751259   -6.2750411    4164.7805            8 
  522000    1.0096208   -6.2892707    4161.7733            8 
  523000    1.0070156   -6.2966532    4144.0817            6 
  524000   0.99212095   -6.2862103     4144.594            4 
  525000    1.0011104   -6.2424049    4167.3953           18 
  526000    1.0096737   -6.2746121    4152.6369            8 
  527000     1.010841   -6.2918176    4149.2255            5 
  528000   0.98625827   -6.2421569    4168.4274            6 
  529000   0.98632849   -6.2335774    4143.1307            6 
  530000    1.0162478   -6.2438978    4166.7236            5 
  531000   0.99978551   -6.2578552    4160.3785           11 
  532000    0.9905128   -6.2626746    4144.6801           16 
  533000   0.99252773   -6.2641156    4157.8858           16 
  534000   0.99443445   -6.2633574    4162.7285           12 
  535000    1.0075218   -6.2937702    4155.8201            7 
  536000    0.9836401   -6.2466286    4173.8332            5 
  537000    1.0102905   -6.2471431    4152.1892            9 
  538000    1.0039126     -6.30013    4140.1293            8 
  539000      1.00327   -6.2622751    4151.1038            9 
  540000    1.0223374   -6.2444371    4148.5846            5 
  541000   0.98853382   -6.2898771     4154.704            5 
  542000    1.0158644    -6.302126    4146.3792            9 
  543000    1.0033983   -6.2888587    4141.8108            5 
  544000    1.0113946   -6.2487898     4157.666            6 
  545000    1.0140435   -6.2549064    4140.3919            5 
  546000    0.9748227   -6.2805804    4152.9645            5 
  547000    1.0005811    -6.287123    4127.5878            4 
  548000    1.0456546    -6.247634     4163.816            3 
  549000    1.0151307   -6.2482785    4159.9798           15 
  550000    1.0012853   -6.2683306    4150.8988            6 
  551000   0.99118954   -6.2770802    4147.0834           10 
  552000    1.0013618     -6.27113    4159.8018           12 
  553000   0.98646862    -6.258927    4151.0881            5 
  554000   0.98411421   -6.2385572    4159.1481            9 
  555000    1.0148841   -6.3046512     4154.984            5 
  556000    1.0082462   -6.2837705    4150.3211            7 
  557000   0.99817907   -6.2882298    4162.7299            7 
  558000    1.0003936   -6.2851547    4163.4072            9 
  559000   0.98978005   -6.2656505    4148.3291            9 
  560000   0.99869527   -6.2822745    4157.0711            6 
  561000    1.0202126   -6.2837081    4142.0685           12 
  562000    1.0196424   -6.2828964    4148.3549            5 
  563000   0.98862775   -6.2854105    4156.6517            4 
  564000   0.98517809    -6.244368    4147.7653            9 
  565000   0.98555153    -6.269753    4144.3625            5 
  566000     1.003908   -6.2540784    4153.0608            6 
  567000    1.0105121   -6.2682586    4154.5331            4 
  568000    0.9891515   -6.2632242    4143.7606            8 
  569000     1.005505   -6.2745103    4155.5217            5 
  570000   0.98644498   -6.2377238    4165.0721            6 
  571000    1.0121655   -6.2629474    4139.7257            5 
  572000    1.0155138   -6.2521072    4140.3077            3 
  573000   0.99101746   -6.2666924    4143.1558            3 
  574000    1.0314645   -6.2555857    4167.4023           13 
  575000   0.98526245   -6.2591754    4161.7355            7 
  576000   0.99029007   -6.2761524    4157.4132            5 
  577000   0.97566002   -6.2515607     4168.532            7 
  578000    1.0119901    -6.277917    4142.2021            7 
  579000    1.0156028    -6.284227    4152.2297           12 
  580000   0.98183212   -6.2867694    4137.0167           10 
  581000   0.99681814   -6.2945259    4155.3779            2 
  582000   0.98580509    -6.282657    4145.7341           13 
  583000   0.99516888     -6.25834     4151.219            9 
  584000   0.98821556   -6.2749958    4145.7393            8 
  585000   0.98102135   -6.2830271    4165.0593            7 
  586000    1.0238297   -6.2402266    4167.0129            6 
  587000    1.0048159   -6.2670295    4156.3618            8 
  588000    1.0083292   -6.2933127    4138.4611            5 
  589000    1.0105002   -6.2901937     4151.198            3 
  590000   0.97851316    -6.266528    4159.6716            4 
  591000   0.99693196    -6.270149    4163.2806            6 
  592000     1.003838   -6.2836897    4147.5501            6 
  593000    1.0082068   -6.2693637    4169.0981            6 
  594000    1.0163856   -6.2700979    4158.7556            7 
  595000   0.99635627    -6.236717    4149.7809            7 
  596000    1.0156235   -6.2769292    4159.9856            5 
  597000    1.0139484   -6.2763401    4165.4339            2 
  598000    1.0068969   -6.2309955    4159.6986            6 
  599000   0.98323806   -6.3017567    4155.3651            7 
  600000      1.01929   -6.2844947    4134.4271            6 
  601000   0.99749921   -6.2823496    4156.5891            3 
  602000   0.97221111   -6.2779027    4144.0783            5 
  603000    1.0164566   -6.2647329    4162.6997            5 
  604000    1.0244245   -6.3271472    4153.2314            8 
  605000    1.0154375   -6.2514396    4138.5521           13 
  606000    1.0013853   -6.2600703    4148.7588            5 
  607000     1.008184   -6.2294484    4169.8113            3 
  608000   0.98190039   -6.2814219    4149.0447            5 
  609000    1.0055199    -6.304407    4163.4746            7 
  610000     1.005885   -6.2793434    4150.4944            5 
  611000    1.0228892   -6.2663099    4167.9545            5 
  612000   0.99651261   -6.2611407    4158.3322           11 
  613000    1.0054658   -6.2966301    4139.2315            7 
  614000    1.0224174   -6.2723856    4166.7203            9 
  615000   0.99390085   -6.2863836    4141.4132            5 
  616000   0.99450222   -6.2770725    4158.5511            5 
  617000   0.99481206   -6.2640862    4155.9223            3 
  618000    1.0259983   -6.2502842    4164.9525            6 
  619000    1.0005741   -6.2651659    4152.0634            9 
  620000    1.0123254   -6.3139476    4159.0096            7 
  621000   0.99023043    -6.281836    4144.8085            5 
  622000    1.0456902   -6.2739512    4150.3135            9 
  623000    1.0349763   -6.2817612    4149.0334            8 
  624000    1.0150118   -6.2794009    4146.5736           11 
  625000   0.99577314    -6.263079    4155.8889            6 
  626000     1.006584   -6.2953197    4166.4165            5 
  627000   0.99790268   -6.2916087    4159.8158            3 
  628000    1.0103158   -6.2845267    4141.0471            4 
  629000     1.004882   -6.2670459    4140.8498            9 
  630000    1.0012465      -6.2977    4158.5244            4 
  631000   0.97235066   -6.2848544    4172.2625            5 
  632000    1.0204396   -6.2625947    4165.6301            8 
  633000   0.98926238   -6.2895172     4135.827            8 
  634000    1.0010479   -6.2958234    4147.7031            5 
  635000   0.99641461   -6.2647099    4151.6654            8 
  636000      1.00958   -6.2780957    4144.8826            8 
  637000    1.0109066   -6.2842245    4157.1102            4 
  638000     1.018943   -6.2654806    4170.2658            8 
  639000    1.0263173   -6.3218221    4126.3572           10 
  640000   0.99366724   -6.2786502    4126.1723           12 
  641000    1.0131506   -6.2876996    4156.4591           10 
  642000   0.99254374   -6.2895209    4150.9031            5 
  643000   0.98129635   -6.2556396    4160.4866            4 
  644000   0.99755163   -6.2879892    4150.1757           10 
  645000   0.99265294   -6.2677064    4158.8101            7 
  646000   0.98206776   -6.2419529    4152.3104            5 
  647000    1.0096465   -6.2276227     4163.408            7 
  648000   0.98086811   -6.2732167     4142.171           11 
  649000   0.98403167   -6.2700911    4154.5591            7 
  650000    1.0047308    -6.261208    4152.4418            6 
  651000   0.98084117   -6.2629456    4154.5895            4 
  652000    1.0036013   -6.2629038    4155.3298           12 
  653000   0.98691811   -6.2801804    4149.6667            5 
  654000    1.0101898   -6.2636915    4158.3927            5 
  655000   0.98734118   -6.2537105    4160.2622           15 
  656000    1.0205355   -6.2696067    4155.0742            8 
  657000     1.008108   -6.2860621    4144.8944            5 
  658000    0.9870331   -6.2448024    4149.5004           12 
  659000    1.0127363    -6.268185    4158.0817            5 
  660000   0.99328085   -6.2741204    4146.7067            6 
  661000    1.0202543   -6.2642316    4143.2003            7 
  662000     1.000902    -6.318963    4153.5654            7 
  663000    1.0222208   -6.2648496    4139.0712           16 
  664000    1.0218917   -6.2748575    4147.6368            5 
  665000    1.0234944    -6.257532    4142.3737            4 
  666000    1.0021821   -6.2527216    4149.5447           19 
  667000    1.0014277   -6.2938458    4133.8014            7 
  668000     1.002889   -6.2900935     4150.925            5 
  669000    1.0108744    -6.260208     4146.428            4 
  670000   0.98694184   -6.3286394    4125.5945           10 
  671000   0.99757402   -6.2587563    4163.7753            6 
  672000    1.0064754   -6.2743192    4151.6579            5 
  673000    1.0096493   -6.2929076    4146.1318            5 
  674000    1.0081387   -6.2979683    4148.8954            8 
  675000    1.0012814   -6.2444711    4149.4942            5 
  676000    1.0043293   -6.2813086    4169.3797            3 
  677000    1.0122328   -6.2583699    4159.4158            6 
  678000    1.0012295   -6.2582607    4166.6273            9 
  679000     1.013372   -6.2643471     4158.621            9 
  680000    1.0039364   -6.2585605     4159.365           10 
  681000   0.99395041   -6.2858929    4150.1098           15 
  682000    0.9959588    -6.265595     4140.126            6 
  683000    1.0187029   -6.2799761    4161.3332            8 
  684000   0.98959907   -6.2809829     4163.279           10 
  685000    0.9825328   -6.2647353    4174.6096            9 
  686000   0.99752226   -6.2737336    4154.5469            9 
  687000    0.9924723   -6.2731587    4136.9067            8 
  688000    1.0118158   -6.2748773    4164.2049            5 
  689000    1.0163142   -6.2545292    4142.0601           11 
  690000    1.0046969   -6.2687962    4168.0032            5 
  691000   0.98981413   -6.2698141    4152.9508           17 
  692000   0.99985576   -6.3039277    4152.0864            5 
  693000   0.99979296   -6.2483251    4156.3998            3 
  694000    1.0079024   -6.2723639    4155.7356           10 
  695000    1.0032112   -6.2566499    4152.1342            4 
  696000   0.99418891   -6.3153633      4142.16            4 
  697000    1.0193286   -6.2781251    4143.6232            6 
  698000    0.9940732   -6.2736643    4159.4172            9 
  699000   0.99062515    -6.271787    4146.0342            8 
  700000    1.0115846   -6.2396931    4169.7818           12 
  701000   0.99404919   -6.2814439    4169.1235            7 
  702000   0.99154246   -6.2885453    4125.3755            7 
  703000   0.99219138   -6.2568178    4155.2482            5 
  704000   0.97993863   -6.2810187    4147.1447            6 
  705000    1.0024511   -6.2803151     4153.534            7 
  706000   0.96489556   -6.2638707    4137.4642            6 
  707000   0.97049413    -6.279847    4145.8849            2 
  708000   0.99063804   -6.3142599    4140.5734            3 
  709000   0.99654823   -6.2472785    4155.4952            4 
  710000    1.0147133   -6.2605627    4154.4433           12 
  711000    1.0004462   -6.2809674    4150.3637            7 
  712000   0.99799705   -6.2680605    4145.5143            4 
  713000     1.011437   -6.2560316    4145.4071            5 
  714000    1.0000444   -6.2566761    4150.5039            5 
  715000   0.99496151   -6.2532032    4161.9929            7 
  716000    1.0003202   -6.2463903    4165.5298            3 
  717000   0.97331144   -6.2632936    4161.4051            7 
  718000   0.99716761   -6.2632766    4140.4712            5 
  719000   0.98825985   -6.2675113    4148.3184            4 
  720000   0.99409116   -6.2481514    4151.6197            8 
  721000    1.0023745   -6.2726341    4142.0548            6 
  722000   0.99604711   -6.2829705    4161.9236            5 
  723000   0.98293844   -6.2568593     4159.083            5 
  724000   0.98535564   -6.2580683    4155.9405           11 
  725000    1.0041741    -6.275997    4166.4345            4 
  726000    1.0234638   -6.2868114    4159.4648            4 
  727000     1.000472   -6.2583467    4168.2098           11 
  728000     1.000271   -6.2295989    4160.5143            6 
  729000   0.99666664   -6.2741338    4152.6512            8 
  730000   0.99430785    -6.286023    4174.0156            9 
  731000    0.9973725   -6.2873484    4137.2197            8 
  732000    1.0081379   -6.2316544    4150.1094            3 
  733000    1.0014124   -6.2880798    4145.2112            6 
  734000    1.0061963   -6.2821239    4130.0398            6 
  735000   0.99567983   -6.2783182    4153.5251            8 
  736000    1.0014351   -6.3084412    4145.0319            6 
  737000    1.0009436   -6.2730635    4158.3282            7 
  738000   0.99616566   -6.2818079    4144.2253            4 
  739000    1.0126466   -6.2605106    4152.8549            3 
  740000    1.0121683   -6.2648946    4166.3099            7 
  741000    1.0050996   -6.2942421    4142.4157            6 
  742000   0.98606588   -6.2884892    4141.6068            6 
  743000     1.003335    -6.305512    4151.2652            6 
  744000    1.0080801   -6.2619804    4164.7518           13 
  745000   0.99197579   -6.2483108    4147.2903            9 
  746000   0.98810981    -6.313773    4141.2371            7 
  747000    1.0036919   -6.2857321    4145.1035            9 
  748000    1.0059318   -6.2631388    4147.1638            9 
  749000   0.98156308     -6.25811    4161.0833            5 
  750000    1.0128011   -6.2413267    4151.7958            5 
  751000   0.98496728    -6.276614    4145.4913            5 
  752000    1.0203793   -6.2704951    4151.2447           12 
  753000   0.99112436   -6.3050321    4159.2663            5 
  754000    0.9817989    -6.282114    4149.8635            4 
  755000    1.0151952   -6.2694304    4156.6835            6 
  756000    1.0004723   -6.2804133    4137.6588            7 
  757000   0.99099115   -6.2791849     4164.507            5 
  758000   0.97966846   -6.2672443    4149.6072           11 
  759000   0.98351184   -6.2500767    4145.4508           14 
  760000    1.0043911   -6.2765512    4171.4338            7 
  761000    1.0020512   -6.2921497    4134.6864            6 
  762000    1.0043934   -6.2806546    4159.7226           11 
  763000   0.99655722   -6.2522918    4153.2664            9 
  764000   0.99564391   -6.2511674    4155.4237            6 
  765000     1.021593   -6.2704868    4163.9004            5 
  766000    1.0054605   -6.2698308    4146.7369            5 
  767000    1.0020109   -6.3063632    4143.5527            8 
  768000    1.0185842   -6.2603933    4162.3071            5 
  769000   0.97306757   -6.2718338    4154.0495            7 
  770000     0.999108   -6.2768696    4152.0022           11 
  771000   0.99117715   -6.2433035    4153.3906            7 
  772000   0.98981378   -6.2550526    4157.3804            9 
  773000   0.98981993   -6.2529953    4132.6984            8 
  774000    1.0036675   -6.3235402    4131.9049           16 
  775000    1.0168339   -6.2597455    4154.8202            6 
  776000   0.97277601   -6.2579788    4144.2359            5 
  777000    1.0076885   -6.2647133    4148.9433            5 
  778000    1.0033885    -6.274709    4171.1513            6 
  779000   0.98089382   -6.2632146    4151.5506            7 
  780000     1.023232   -6.2651429    4152.6715           11 
  781000   0.99549731   -6.2435084    4153.1749            5 
  782000   0.99897672   -6.2666119    4162.0981            7 
  783000    1.0068721   -6.2965356    4149.4999           17 
  784000   0.99866758   -6.2692223    4158.7114            4 
  785000     1.021409   -6.2942988     4154.632            6 
  786000     1.019042    -6.293007    4140.4062            5 
  787000   0.98601329   -6.2651023    4146.6015            6 
  788000   0.99889518    -6.269343    4154.0893           12 
  789000    1.0189282   -6.2654813    4172.5626            9 
  790000    1.0125249   -6.2411545    4174.5018            4 
  791000    1.0170256   -6.3076191    4157.5596            4 
  792000   0.98552948   -6.2905692    4140.2863           10 
  793000    1.0001107   -6.2416979     4150.893            8 
  794000    1.0176333   -6.2695172    4144.5287            8 
  795000    0.9941027   -6.2591335    4160.0714            6 
  796000   0.97546325   -6.2743697    4127.9357            4 
  797000   0.99286659   -6.2522981    4170.0063            5 
  798000   0.99481264   -6.2841849     4135.295            5 
  799000    1.0042698   -6.2843914    4146.4468            5 
  800000    1.0271478   -6.2873308    4149.5036            7 
  801000   0.99009818   -6.2799444    4152.2974            5 
  802000    1.0214977   -6.2636906    4155.6195            5 
  803000    1.0091108   -6.2501503    4147.9024            6 
  804000   0.98249386    -6.253404    4140.0804            5 
  805000    1.0079292   -6.2881891    4148.2159            8 
  806000    1.0072729   -6.2503922     4149.543            7 
  807000   0.98623753   -6.2483846    4153.6209           12 
  808000    1.0075763    -6.303752    4147.7972            4 
  809000    1.0020916   -6.2675064    4163.8541            8 
  810000    1.0004224    -6.271518    4164.8939            7 
  811000    1.0068796   -6.2652769    4145.0756            8 
  812000   0.99935739   -6.2684089     4161.809           10 
  813000   0.98181846   -6.2998669    4140.5663            8 
  814000    1.0058157   -6.2522607    4152.9528           10 
  815000    1.0141072   -6.2560684    4170.8053           11 
  816000   0.99902292   -6.2882489    4146.0256            8 
  817000    1.0236367   -6.2722704    4148.9574            9 
  818000   0.98465885   -6.2685584    4163.2367            5 
  819000    0.9977819   -6.2863886    4143.9322            7 
  820000   0.98795369   -6.2800354    4151.4428            5 
  821000   0.99179042   -6.2649647    4156.5373           10 
  822000    1.0033553   -6.3019931    4149.5854            8 
  823000    1.0101434   -6.2709913    4175.3308            4 
  824000     1.004156     -6.24716    4156.8471            6 
  825000   0.98038146   -6.2829726     4140.277            9 
  826000   0.98359592   -6.2240627    4161.8296           12 
  827000    1.0027885   -6.2963856    4150.0558            6 
  828000    0.9840915   -6.2700304    4142.1025            9 
  829000    1.0051517   -6.2955527    4151.9678            8 
  830000   0.98441859    -6.324196    4146.8264           12 
  831000   0.99841359   -6.2801434    4163.2321            7 
  832000   0.99236101   -6.2930805    4150.1067            8 
  833000     1.018323    -6.281295    4157.4683            4 
  834000    0.9812369   -6.2927342    4147.6352            8 
  835000     1.002735   -6.2974375    4134.5216            4 
  836000    0.9992888   -6.2698791     4157.647            7 
  837000    1.0195958   -6.2756149    4145.4063           14 
  838000    1.0091112   -6.3269734    4159.6066           10 
  839000    1.0203033   -6.2822399    4156.4753            6 
  840000   0.99082979   -6.2911097    4147.6443           10 
  841000     1.010199   -6.3070238    4148.8541            4 
  842000   0.99168384   -6.2451367    4144.3203            3 
  843000    1.0153759   -6.2649749    4147.5893            9 
  844000   0.99467319    -6.256966     4140.338            8 
  845000    1.0021666   -6.2771459    4144.4032           10 
  846000   0.98308963   -6.2766434    4140.3343            4 
  847000    1.0147162   -6.2753158    4147.3412            7 
  848000   0.98826128    -6.299383    4147.1862           16 
  849000    1.0113916   -6.2939124    4146.7958            6 
  850000   0.99689491   -6.2904554    4152.7869            5 
  851000   0.99862791   -6.2654868     4152.997            7 
  852000    1.0081066   -6.2643285    4160.4426            7 
  853000    1.0003127   -6.2476462    4170.8381            3 
  854000   0.98369151   -6.2621904    4146.0266            7 
  855000   0.98514641   -6.2536702     4144.752            5 
  856000    1.0166892   -6.2685558    4168.1751            4 
  857000    0.9919674   -6.3071556    4150.4874           13 
  858000   0.98646612   -6.2958666    4153.7903            4 
  859000    1.0054113   -6.2725447    4159.3706           12 
  860000   0.99363855   -6.2570626    4162.3718            8 
  861000    1.0203831   -6.2735997    4151.7344            5 
  862000    1.0006024   -6.2885272    4149.7039            9 
  863000    1.0186746   -6.2810706     4158.666            3 
  864000   0.98468948   -6.2816935    4150.3986            9 
  865000    1.0250305   -6.2623342    4161.7728            6 
  866000    1.0078987   -6.2614199    4148.8433            6 
  867000    1.0054181   -6.2474199    4168.3319            4 
  868000   0.99392952   -6.2422456    4157.8984           10 
  869000    1.0090756   -6.2426096    4156.9015            9 
  870000   0.99583811   -6.2778227    4139.1266            4 
  871000    1.0058256   -6.2733473    4143.1036            7 
  872000   0.99576406    -6.231741     4149.834            7 
  873000   0.99341624   -6.2684637    4166.2263            6 
  874000    1.0088195   -6.2552296    4160.0413            6 
  875000   0.99737938   -6.2677314    4155.8045            3 
  876000     1.007315   -6.2751704    4145.0415            6 
  877000   0.99336518   -6.2739233     4136.599            6 
  878000     0.987788   -6.2801598    4151.2871            9 
  879000    1.0022637   -6.2287059    4146.9435            5 
  880000   0.98198212   -6.2363922    4166.4581            6 
  881000   0.98451814   -6.2747282    4158.6583            6 
  882000   0.99361152   -6.2842873    4150.7971            7 
  883000   0.98823725   -6.3004455    4131.2652            5 
  884000    1.0079412   -6.2857828    4145.8384            4 
  885000   0.99245126   -6.2557285    4167.5593            8 
  886000   0.99936414   -6.2862548    4140.3348            6 
  887000   0.99974109   -6.2364047    4151.2654            4 
  888000    1.0123154   -6.2868268    4144.4561            6 
  889000    1.0024414   -6.2863211    4141.4024            7 
  890000   0.98228965   -6.2458083    4158.8045            5 
  891000   0.99641973   -6.2788783    4153.5607           16 
  892000   0.99014699   -6.2610029    4155.3526            8 
  893000   0.99907772   -6.2784143    4162.6851            5 
  894000    1.0039063   -6.2488458    4132.4491            7 
  895000   0.98873006   -6.2953187    4129.9944            4 
  896000   0.99253277   -6.2783981    4158.1604            6 
  897000   0.99576835   -6.2437839    4164.5323            3 
  898000    1.0187546   -6.2825732    4143.5565            7 
  899000    1.0165324   -6.2511938    4158.7084            6 
  900000   0.98882629   -6.2600048    4148.3051            5 
  901000    1.0097737   -6.2841996    4139.9912            9 
  902000   0.98988951    -6.283754     4145.043            6 
  903000   0.98069383    -6.282059     4171.094            5 
  904000    1.0133162   -6.2645938    4144.4911            4 
  905000    1.0002786    -6.244886    4143.0011            4 
  906000    1.0098397    -6.278854    4158.7862            6 
  907000    1.0004869   -6.2584101    4156.2989            3 
  908000    1.0034236   -6.2822911    4167.4481            5 
  909000    1.0004554    -6.305788    4144.7736            9 
  910000   0.97961943   -6.3002055    4144.4007            6 
  911000   0.96157567   -6.3082831    4168.2766            5 
  912000   0.96623146   -6.2431614     4153.201           10 
  913000   0.99877471   -6.2734594    4140.2233            6 
  914000   0.99328477   -6.3184044    4155.5143            9 
  915000    1.0041308    -6.248641    4157.4298            4 
  916000    1.0022676   -6.2559364    4149.8947            4 
  917000   0.98761436   -6.2732161    4158.6159            4 
  918000    1.0063545   -6.3119173    4130.6254            6 
  919000    1.0034936   -6.2399946    4168.5256            4 
  920000   0.99654148   -6.2544233    4150.9763            5 
  921000    1.0056124   -6.2817487    4148.5478            5 
  922000   0.99460901   -6.2889587    4147.1051            7 
  923000    1.0130612   -6.2678574    4139.1326            9 
  924000    1.0178536   -6.2268232    4127.9249            6 
  925000   0.99292392   -6.2677079    4162.4169            5 
  926000    1.0037485   -6.2834213    4150.3288            8 
  927000   0.99715321   -6.2453628    4161.9348            5 
  928000   0.97893306   -6.2938566    4158.6039            6 
  929000    1.0061895   -6.2984866    4150.4269            8 
  930000   0.98150398   -6.2984985    4146.7983            7 
  931000   0.99442183    -6.249013    4168.3427            6 
  932000    0.9797601    -6.268231    4157.5044            5 
  933000   0.99062376   -6.2473517    4170.1226            3 
  934000   0.97855767   -6.2675227    4163.2772            6 
  935000   0.96749101   -6.2546798    4151.0746           13 
  936000   0.97593832   -6.2835984    4143.6249            4 
  937000    1.0105173   -6.2718403    4143.9382            3 
  938000   0.99948054   -6.2754074    4147.4869            5 
  939000   0.99865463   -6.2536007    4139.7017            5 
  940000   0.97734241   -6.2744432    4159.7738           12 
  941000    0.9880214   -6.2592404    4143.8777            4 
  942000   0.97406792   -6.2673544    4136.8548            3 
  943000    1.0001025   -6.2334331    4146.6213            4 
  944000    0.9869945    -6.278208    4153.0678            5 
  945000    1.0051821   -6.2751487    4156.0297            4 
  946000    1.0111796   -6.2746474    4155.6652            5 
  947000    1.0113774   -6.2563069     4135.865            8 
  948000    1.0041419   -6.2883889    4155.8087            9 
  949000   0.98008401   -6.2963302     4145.391            2 
  950000   0.98527989   -6.2934975    4150.8666            7 
  951000   0.99196927   -6.2498809     4159.362            7 
  952000   0.98160157   -6.2579395    4155.1035           11 
  953000    1.0002385   -6.2654204    4168.9666            4 
  954000    1.0041302   -6.2748064    4154.5571            4 
  955000     1.004249   -6.2558407    4152.0795            7 
  956000   0.98832037    -6.252308    4155.2302            3 
  957000   0.99501601   -6.2582506    4156.8592            9 
  958000   0.99151051   -6.2495645    4154.1992            7 
  959000   0.99908267   -6.2824097    4172.4742            6 
  960000    0.9888727   -6.2646119    4156.8925            6 
  961000   0.99878058   -6.2332824    4168.3689            5 
  962000    1.0006878   -6.2504686    4168.2142            4 
  963000     1.012049    -6.234871    4158.7008            7 
  964000   0.99113212   -6.2463377    4148.8815            5 
  965000    0.9978778   -6.2964627    4149.0579            8 
  966000    1.0094397   -6.2847589    4171.5794            9 
  967000    1.0477062   -6.2710903    4146.1968            4 
  968000    0.9814435   -6.2742374    4140.7325            6 
  969000   0.99292186   -6.2529095     4176.994            4 
  970000   0.99597596   -6.2602718     4143.825            8 
  971000    1.0013966   -6.2528576    4151.0832            7 
  972000   0.99930529   -6.2801462    4158.9404            5 
  973000    1.0100517   -6.2620047    4138.4743            4 
  974000    0.9864109   -6.2574591    4154.0314           17 
  975000    1.0123077   -6.2501237    4154.7133            6 
  976000    1.0290483   -6.2780612    4139.0149            5 
  977000    1.0004654   -6.2645653    4156.0965            6 
  978000   0.98883488   -6.2953449    4158.7747            6 
  979000    1.0031419   -6.2895098    4145.9434            7 
  980000   0.97771198   -6.2722812    4152.0191           10 
  981000     1.010314   -6.2465866    4157.6271            9 
  982000    1.0002964   -6.2592741    4165.0015            7 
  983000   0.98853301   -6.2574359    4138.2002            6 
  984000   0.99330418   -6.2718657     4142.978            4 
  985000   0.98899113   -6.2480134     4157.926            5 
  986000    0.9997667   -6.3106545    4155.5743            6 
  987000   0.97673271   -6.2739163    4138.4366            8 
  988000   0.99182224    -6.277004    4156.5456            5 
  989000    1.0173311   -6.2413432    4157.6075            6 
  990000     1.005508   -6.3135463    4143.9443            7 
  991000   0.98260017   -6.2420385    4160.4285            7 
  992000    1.0267447   -6.2600938    4152.6202            4 
  993000   0.98971861   -6.2870987    4152.5734           15 
  994000    1.0073768   -6.2683929    4164.0792            5 
  995000   0.97727079   -6.2496472    4155.1314            4 
  996000    1.0021544   -6.2823968    4138.0617            8 
  997000   0.99709769    -6.262632    4140.9662            6 
  998000   0.97667158   -6.2840032    4131.8468            5 
  999000    1.0094572   -6.2514192    4145.1685            6 
 1000000   0.99156362   -6.2679985    4142.6478           12 
 1001000   0.98058728    -6.250688    4158.6128            4 
 1002000    1.0099951   -6.2965315    4157.4777            6 
 1003000    1.0095997   -6.2686747    4156.4724            5 
 1004000   0.99303925   -6.2816796     4139.687            5 
Loop time of 2095.34 on 48 procs for 1000000 steps with 4000 atoms

Performance: 82468.616 tau/day, 477.249 timesteps/s
99.4% CPU use with 48 MPI tasks x no OpenMP threads

MPI task timing breakdown:
Section |  min time  |  avg time  |  max time  |%varavg| %total
---------------------------------------------------------------
Pair    | 122.79     | 132.98     | 144.14     |  47.6 |  6.35
Neigh   | 14.582     | 14.829     | 15.044     |   3.4 |  0.71
Comm    | 113.3      | 122.68     | 132.03     |  43.9 |  5.85
Output  | 1.305      | 1.3061     | 1.3234     |   0.2 |  0.06
Modify  | 1794.6     | 1802.6     | 1809.7     |   9.0 | 86.03
Other   |            | 20.91      |            |       |  1.00

Nlocal:        83.3333 ave          90 max          76 min
Histogram: 2 4 5 4 3 10 6 10 2 2
Nghost:        1600.02 ave        1616 max        1586 min
Histogram: 4 2 5 9 6 6 7 3 4 2
Neighs:        9212.90 ave       10051 max        8230 min
Histogram: 1 1 8 4 9 4 6 9 2 4
FullNghs:      18425.5 ave       20025 max       16554 min
Histogram: 2 1 7 4 7 6 9 6 3 3

Total # of neighbors = 884422
Ave neighs/atom = 221.10550
Neighbor list builds = 59788
Dangerous builds = 0

#clear
#
#next RN
#
#jump SELF
Total wall time: 0:34:56
