
units lj                  # Use reduced LJ style units
atom_style atomic         # Uncharged point particles
atom_modify map hash      # Needed for indexing of clusters etc
                          # Used to be able to find where atoms are in relation to each other.

lattice fcc 1.0 spacing 1 1 1
Lattice spacing in x,y,z = 1.5874011 1.5874011 1.5874011
region box block 0 10 0 10 0 10 units lattice
create_box 2 box
Created orthogonal box = (0.0000000 0.0000000 0.0000000) to (15.874011 15.874011 15.874011)
  3 by 4 by 4 MPI processor grid
create_atoms 1 box
Created 4000 atoms
  using lattice units in orthogonal box = (0.0000000 0.0000000 0.0000000) to (15.874011 15.874011 15.874011)
  create_atoms CPU = 0.002 seconds
set type 1 type/fraction 2 0.32 78393
Setting atom values ...
  1310 settings made for type/fraction
mass 1 1.0
mass 2 1.0
pair_style lj/cut  3.5
pair_modify tail  yes
pair_coeff 1  1  1.0  1.0   # Intearaction between 1 and 1 set with epsilon = 1 and sigma = 1
pair_coeff 1  2  1.5  0.8
pair_coeff 2  2  0.5  0.88

write_data data.0
System init for write_data ...
Neighbor list info ...
  update every 1 steps, delay 10 steps, check yes
  max neighbors/atom: 2000, page size: 100000
  master list distance cutoff = 3.8
  ghost atom cutoff = 3.8
  binsize = 1.9, bins = 9 9 9
  1 neighbor lists, perpetual/occasional/extra = 1 0 0
  (1) pair lj/cut, perpetual
      attributes: half, newton on
      pair build: half/bin/atomonly/newton
      stencil: half/bin/3d
      bin: standard
WARNING: Not all mixed pair coeffs generated from mixing. Use write_data with 'pair ij' option to store all pair coeffs. (../write_data.cpp:312)


#############################
#   M E L T   S Y S T E M   #
#############################

velocity all create 2.4 5300450 mom yes dist gaussian # Assign velocities
                                                    # Temperature 2.4, random number seed, zero linear momentum
                                                                                # Gaussian distribution

timestep 0.002   # simulation timestep
thermo 1000       # output thermodynamic data every 1000 steps bf 100

# Define a fix  in this case with index 1 applied to all
# particles in the simulation. This fix is for simulations
# in the anisotropic NPT ensemble. Note that we use the MTK
# correction.
fix 1 all npt temp 2.4 2.4 0.1 iso 5.68 5.68 0.5 mtk yes tchain 5 pchain 5 # Use NPT ensemble
                                                                         # Set temperature and pressure and damping
                                                                         # Numbers of thermostats in chain and in barostat
run 10000          # run for 10000 steps
Per MPI rank memory allocation (min/avg/max) = 3.642 | 3.644 | 3.648 Mbytes
Step Temp E_pair E_mol TotEng Press Volume 
       0          2.4   -6.3097323            0   -2.7106323   -4.0355096         4000 
    1000    2.4060333   -4.9374044            0   -1.3292567    5.8670068    4108.4669 
    2000    2.3598016   -4.9844118            0   -1.4455944    5.5180273    4110.3217 
    3000    2.4225099    -5.045045            0   -1.4121886    5.7059025    4072.7873 
    4000    2.4112596   -4.9476937            0   -1.3317084    5.4884397    4140.8841 
    5000    2.4240772    -4.952259            0   -1.3170523    5.5213128    4132.5317 
    6000    2.3983086   -4.9915368            0   -1.3949733    5.5691129    4097.8173 
    7000    2.3702936   -5.0226706            0    -1.468119    5.7364788    4080.5066 
    8000    2.3413073   -5.0285175            0   -1.5174346    5.5525624    4084.9358 
    9000    2.3953591   -4.9887741            0   -1.3966338    5.6631606    4103.7958 
   10000    2.3392468   -4.9890118            0   -1.4810189    5.6162616    4097.6168 
Loop time of 2.5904 on 48 procs for 10000 steps with 4000 atoms

Performance: 667078.612 tau/day, 3860.409 timesteps/s
99.5% CPU use with 48 MPI tasks x no OpenMP threads

MPI task timing breakdown:
Section |  min time  |  avg time  |  max time  |%varavg| %total
---------------------------------------------------------------
Pair    | 1.0846     | 1.139      | 1.2327     |   2.8 | 43.97
Neigh   | 0.2061     | 0.21218    | 0.21914    |   0.6 |  8.19
Comm    | 0.78246    | 0.88054    | 0.94103    |   3.7 | 33.99
Output  | 0.0002676  | 0.00027492 | 0.00042689 |   0.0 |  0.01
Modify  | 0.28753    | 0.34264    | 0.38706    |   4.3 | 13.23
Other   |            | 0.01581    |            |       |  0.61

Nlocal:        83.3333 ave          94 max          72 min
Histogram: 2 1 4 5 9 12 9 0 3 3
Nghost:        1610.52 ave        1640 max        1575 min
Histogram: 1 0 7 4 6 10 9 5 4 2
Neighs:        9306.62 ave       10689 max        8132 min
Histogram: 5 3 5 8 6 9 5 2 1 4

Total # of neighbors = 446718
Ave neighs/atom = 111.67950
Neighbor list builds = 898
Dangerous builds = 154

# Equilibrate just above the melting temperature to avoid step fn in T

fix 1 all npt temp 1.25 1.25 0.1 iso 5.68 5.68 0.5 mtk yes tchain 5 pchain 5
run 2000
Per MPI rank memory allocation (min/avg/max) = 3.643 | 3.645 | 3.649 Mbytes
Step Temp E_pair E_mol TotEng Press Volume 
   10000    2.3392468   -4.9890118            0   -1.4810189    5.6162616    4097.6168 
   11000    1.2522598   -6.9023711            0    -5.024451    5.6082826    3287.3432 
   12000    1.2383485   -6.9400941            0   -5.0830357    5.4400193    3285.5621 
Loop time of 0.605586 on 48 procs for 2000 steps with 4000 atoms

Performance: 570687.089 tau/day, 3302.587 timesteps/s
99.6% CPU use with 48 MPI tasks x no OpenMP threads

MPI task timing breakdown:
Section |  min time  |  avg time  |  max time  |%varavg| %total
---------------------------------------------------------------
Pair    | 0.25439    | 0.28235    | 0.34126    |   2.8 | 46.62
Neigh   | 0.037938   | 0.040855   | 0.048764   |   0.9 |  6.75
Comm    | 0.1672     | 0.22975    | 0.25979    |   3.5 | 37.94
Output  | 5.3627e-05 | 5.4737e-05 | 6.9342e-05 |   0.0 |  0.01
Modify  | 0.042011   | 0.047631   | 0.051988   |   1.2 |  7.87
Other   |            | 0.004938   |            |       |  0.82

Nlocal:        83.3333 ave          91 max          71 min
Histogram: 1 0 0 2 8 4 18 7 4 4
Nghost:        1871.21 ave        1907 max        1850 min
Histogram: 2 9 6 13 6 6 2 3 0 1
Neighs:        11635.9 ave       13345 max        9805 min
Histogram: 1 0 5 5 12 10 9 2 3 1

Total # of neighbors = 558521
Ave neighs/atom = 139.63025
Neighbor list builds = 143
Dangerous builds = 8

#############################
# L I N E A R  Q U E N C H  #
#############################

# Define solid atoms. This closely follows ten Wolde  Ruiz-Montero and Frenkel  Faraday Discuss  1996  104  93-110
# Compute components of the per-atom q6 vector
compute q6 all orientorder/atom degrees 1 6 components 6 nnn NULL cutoff 1.3 # compute the Q6 parameter.
                                                                             # Use all neighbours within 1.3 unit cell.

# get number of connections
compute coord_number all coord/atom orientorder q6 0.5

# An atom is solid if it has 8 or more connections (of a possible 14)
variable is_solid atom c_coord_number>=8
group solid dynamic all var is_solid    # Must be dynamic to update
dynamic group solid defined

# do clustering
compute cluster solid cluster/atom 1.3 # Create a cluster where all atoms within are solid and max 1.3 units from another member

# define chunks one chunk per cluster
compute clus_chunks solid chunk/atom c_cluster nchunk every compress yes  # Says which atoms are in which chunk

# count the size of each chunk
compute size_chunks solid property/chunk clus_chunks count


# Find the maximum entry in the vector of chunk sizes
variable max_n equal max(c_size_chunks)


# Thermo style which includes this variable
# thermo_style custom step temp pe vol v_max_n

thermo ${N}  # Print the thermo information every 100 steps
thermo 1000  

# Reset the npt fix at a lower temperature (below freezing)
fix 1  all npt temp  ${temp} ${temp}  0.1  iso  5.68  5.68  0.5  mtk yes tchain  5  pchain  5
fix 1  all npt temp  0.45 ${temp}  0.1  iso  5.68  5.68  0.5  mtk yes tchain  5  pchain  5
fix 1  all npt temp  0.45 0.45  0.1  iso  5.68  5.68  0.5  mtk yes tchain  5  pchain  5

dump dmp2 all dcd ${N} traj.dcd
dump dmp2 all dcd 1000 traj.dcd


compute msd all msd com yes
variable twopoint equal c_msd[4]/6/(step*dt+1.0e-6)
fix 9 all vector 10 c_msd[4]
variable fit equal slope(f_9)/6/(10*dt)
thermo_style custom step temp pe c_msd[4] v_twopoint v_fit v_max_n

fix 1 all npt temp 1.25 ${temp} 0.1 iso 5.68 5.68 0.5 mtk yes tchain 5 pchain 5
fix 1 all npt temp 1.25 0.45 0.1 iso 5.68 5.68 0.5 mtk yes tchain 5 pchain 5
run 2000000 # 5000000  # Run for this many steps
Neighbor list info ...
  update every 1 steps, delay 10 steps, check yes
  max neighbors/atom: 2000, page size: 100000
  master list distance cutoff = 3.8
  ghost atom cutoff = 3.8
  binsize = 1.9, bins = 8 8 8
  4 neighbor lists, perpetual/occasional/extra = 1 3 0
  (1) pair lj/cut, perpetual
      attributes: half, newton on
      pair build: half/bin/atomonly/newton
      stencil: half/bin/3d
      bin: standard
  (2) compute orientorder/atom, occasional
      attributes: full, newton on
      pair build: full/bin/atomonly
      stencil: full/bin/3d
      bin: standard
  (3) compute coord/atom, occasional
      attributes: full, newton on
      pair build: full/bin/atomonly
      stencil: full/bin/3d
      bin: standard
  (4) compute cluster/atom, occasional
      attributes: full, newton on
      pair build: full/bin/atomonly
      stencil: full/bin/3d
      bin: standard
Per MPI rank memory allocation (min/avg/max) = 9.813 | 9.818 | 9.823 Mbytes
Step Temp PotEng c_msd[4] v_twopoint v_fit v_max_n 
   12000    1.2383485   -6.9400941 1.8297629e-30 1.2706686e-32 8.3333333e+20            2 
   13000    1.2695562   -6.9735709   0.52311511 0.0033533018  0.043234378            2 
   14000    1.2283725   -6.9918812   0.99301602 0.0059108094  0.040966123            1 
   15000    1.2571139   -6.9770273    1.4204768 0.0078915373  0.038892121            2 
   16000    1.2438928   -6.9610137    1.8659516 0.0097184977  0.037711849            1 
   17000    1.2399857   -6.9246466     2.279253  0.011172808  0.037346305            1 
   18000    1.2647457   -6.9409277    2.7867004   0.01290139  0.037464014            2 
   19000    1.2821454   -6.9167336    3.2183829  0.014115714  0.037627569            3 
   20000    1.2642926    -6.993116    3.6525456  0.015218939   0.03757582            1 
   21000    1.2743332   -6.9306781    4.0685234  0.016144934  0.037404064            3 
   22000    1.2347383   -6.9305308    4.6353735  0.017558232  0.037508283            2 
   23000    1.2373314    -6.945567    5.0798808  0.018405365  0.037801681            2 
   24000    1.2402291   -6.9316785    5.5453839  0.019254805  0.037892976            2 
   25000    1.2489993   -6.9042928    5.9593303  0.019864434  0.037908658            1 
   26000    1.2271274   -6.9464374    6.4083365   0.02053954  0.037876522            3 
   27000    1.2288794   -6.9589687    6.8633389  0.021183144  0.037811085            1 
   28000    1.2561329   -6.9488323    7.3635001  0.021915179  0.037838944            2 
   29000    1.2576524   -6.9885784    7.7778221  0.022350063  0.037866805            1 
   30000    1.2299181   -6.9233085    8.3062545  0.023072929  0.037924515            4 
   31000    1.2453608   -6.9271747    8.7720409  0.023580755   0.03800942            2 
   32000    1.2402343   -6.9617434    9.1612885  0.023857522  0.038019409            1 
   33000    1.2369341   -6.9462028    9.6175705  0.024286794  0.037975953            3 
   34000    1.2377073   -6.9376769    10.048799   0.02462941  0.037957173            1 
   35000    1.2500661   -6.9422616    10.514142  0.025033671  0.037963989            2 
   36000    1.2274156    -6.931457    10.974202  0.025403246  0.037944718            2 
   37000    1.2479382    -6.909196    11.421041  0.025723065  0.037922246            1 
   38000    1.2532883   -6.9431683       11.942  0.026188596  0.037946816            2 
   39000    1.2481436   -6.9362148    12.422555  0.026543921  0.038000405            1 
   40000    1.2373179   -6.9348342     12.84837  0.026767438  0.038030231            2 
   41000    1.2494345   -6.9733996    13.243425  0.026917531  0.038019556            1 
   42000    1.2162345   -6.9626706    13.680455  0.027143759  0.038009802            1 
   43000    1.2352085   -6.9633008    14.157556  0.027437124  0.037984825            1 
   44000    1.2324559   -7.0218396    14.727897  0.027893744  0.038012454            2 
   45000     1.227815   -6.9719319    15.172435  0.028097102  0.038043006            2 
   46000    1.2371741   -7.0064358    15.584891  0.028233498  0.038089792            1 
   47000    1.2389344   -6.9330342    16.172123  0.028673977  0.038141474            1 
   48000    1.2039995   -7.0026902    16.677971  0.028954811  0.038210778            1 
   49000    1.2652877   -6.9819966    17.182452  0.029221857  0.038275193            1 
   50000    1.2364525   -6.9763632    17.715547  0.029525912  0.038350508            1 
   51000     1.245894   -6.9794393    18.231087  0.029789357  0.038429719            1 
   52000    1.2399826   -6.9780823    18.824443  0.030167376  0.038513777       -1e+20 
   53000    1.2463048   -6.9019519    19.333773  0.030399014  0.038618692            1 
   54000    1.2035245   -7.0107344    19.854496  0.030639653  0.038726876            2 
   55000    1.2396656   -6.9776407    20.249088  0.030680437   0.03883036            2 
   56000    1.2330206   -6.9575602    20.684169  0.030780013  0.038907921            2 
   57000    1.2286627   -6.9680231    21.185166  0.030972464  0.038977701            1 
   58000    1.2721145   -6.9821937    21.528492  0.030931742  0.039019481            1 
   59000    1.2486523   -6.9700839    21.990618  0.031060194  0.039036431            2 
   60000    1.2438369   -6.9602994    22.342666   0.03103148  0.039026194            1 
   61000    1.2280302   -6.9656682    22.912423  0.031301124  0.039030158            1 
   62000    1.2480654   -6.9933106      23.5394  0.031638978  0.039067708            1 
   63000    1.1984327   -6.9637563    23.974686  0.031712548  0.039103138            2 
   64000    1.2587767   -6.9770159    24.396433  0.031766188  0.039115414            2 
   65000    1.2323427    -6.978899     25.02533  0.032083757  0.039147303            1 
   66000    1.2653125    -6.974993    25.483384   0.03217599  0.039201253            2 
   67000    1.2700147   -6.9495397    25.921831  0.032241083  0.039236993            1 
   68000    1.2156466   -6.9748881    26.442313  0.032404796  0.039278801            1 
   69000    1.2377622   -6.9815364    26.775398  0.032337437  0.039304647            1 
   70000    1.2414656   -7.0243936    26.991907  0.032133223  0.039309073            3 
   71000    1.2117336   -6.9601538    27.408659  0.032169788  0.039292128            1 
   72000    1.2328168   -6.9459034    27.929949  0.032326329  0.039269914            2 
   73000    1.1938285   -6.9608779    28.449558  0.032476664  0.039251064            1 
   74000    1.2387385    -6.985102    28.853539  0.032492723  0.039228276            1 
   75000     1.206098    -6.986583    29.292089  0.032546765  0.039208151            1 
   76000    1.2291934   -6.9711806    29.526855  0.032375937   0.03917307            2 
   77000    1.2455618    -6.994976     29.98573  0.032452088   0.03912521            4 
   78000    1.2311269   -7.0041611    30.669186  0.032766224  0.039094318            1 
   79000    1.2259061    -6.979616    31.197029  0.032908259  0.039074858            3 
   80000    1.2171888   -7.0099648    31.446745  0.032757025  0.039049905            1 
   81000    1.2010774   -7.0011431    31.724908  0.032638795   0.03900966            1 
   82000    1.2230023   -6.9898205    32.175346  0.032698523   0.03895921            2 
   83000    1.2279562   -6.9809394    32.700437  0.032831764  0.038916661            2 
   84000    1.2022579   -7.0284164    32.941463  0.032680022  0.038867975            2 
   85000    1.1950695   -6.9779253    33.633666  0.032974182  0.038822123            4 
   86000    1.2401044    -7.015644    34.066352  0.033010031  0.038791884            1 
   87000    1.2508199   -6.9934529    34.363187  0.032914929  0.038754485            2 
   88000    1.2068461   -7.0124389    34.786282  0.032941555  0.038711498            1 
   89000     1.227462   -6.9927264    35.103182  0.032868148  0.038658801            2 
   90000    1.2202167   -7.0506495    35.457294  0.032830828  0.038604462            2 
   91000    1.2089902   -6.9687551    36.143312  0.033098271  0.038560206            1 
   92000    1.2217086   -6.9888137    36.396201  0.032967574  0.038520483            1 
   93000    1.2074428   -7.0185307    36.822385  0.032994969  0.038476461            2 
   94000    1.2500789   -7.0140199     37.01486  0.032814592  0.038423722            1 
   95000     1.217903   -6.9829773    37.605844  0.032987582  0.038367862            2 
   96000    1.2478778    -7.013463    37.972021  0.032961823  0.038315695            1 
   97000    1.1897389    -7.035695     38.23146  0.032844897  0.038261529            3 
   98000    1.1833429   -6.9921639    38.626377  0.032845558  0.038194522            1 
   99000    1.2108596   -7.0427032    38.947819   0.03278436  0.038124338            2 
  100000    1.2005223   -7.0315158    39.250192  0.032708493  0.038061157            2 
  101000    1.1982878   -7.0145118    39.948328  0.032960667  0.037997062            1 
  102000    1.2157941   -6.9766692    40.339679  0.032957254  0.037941329            2 
  103000    1.2127383   -7.0077443    40.890907  0.033083258  0.037897782            2 
  104000    1.2023075   -6.9896633    41.220759  0.033029454  0.037851165            1 
  105000    1.2186644    -6.984737    41.727309  0.033116911   0.03780269            1 
  106000    1.1946859   -7.0028883    42.092017  0.033091208  0.037758234            1 
  107000    1.2460055   -7.0293263    42.432686  0.033047263  0.037706575            2 
  108000    1.2092088   -6.9813426    43.030335  0.033202419  0.037663642            4 
  109000    1.1979661   -7.0433343    43.570134    0.0333105   0.03762592            1 
  110000    1.2200913   -7.0216396    44.117419  0.033422287  0.037598836            1 
  111000    1.2111341    -7.045102    44.540948   0.03343915  0.037576637            1 
  112000    1.2119056   -6.9868085    45.000454  0.033482481  0.037555638            1 
  113000    1.2050681   -7.0227977    45.306828  0.033412115  0.037527135            1 
  114000    1.2120409   -7.0538855    45.431656  0.033210275  0.037491322            1 
  115000    1.2007019   -7.0078768     46.12703  0.033425384  0.037460525            3 
  116000    1.2224878   -7.0132196    46.760074  0.033592007  0.037437232            2 
  117000    1.2090697   -7.0333206    47.198156   0.03361692  0.037417565            1 
  118000    1.2166886   -7.0325237    47.525473  0.033563187  0.037397148            2 
  119000    1.2397322   -7.0162775    48.086304  0.033673882  0.037378168            1 
  120000    1.2112153   -7.0531253    48.469324  0.033659253  0.037360425            1 
  121000    1.2105449   -7.0149393    48.895485  0.033674577   0.03734383            1 
  122000    1.1918146   -7.0586158     49.35278  0.033710915  0.037329952            1 
  123000    1.2006818   -6.9911743    49.664817   0.03364825  0.037310063            1 
  124000    1.2011105   -7.0320753    50.229059  0.033756088  0.037289689            1 
  125000    1.2191505   -7.0626458     50.21173  0.033474487   0.03726303            3 
  126000    1.1846627   -7.0428372    50.594852  0.033462203  0.037233065            2 
  127000    1.2241296   -7.0529571    51.037692  0.033489299  0.037202332            1 
  128000    1.1769507   -7.0448726    51.584148  0.033583429  0.037176951            3 
  129000    1.2062475   -7.0256167    51.880255  0.033514376  0.037149336            1 
  130000    1.1991638   -6.9994443    52.538599  0.033678589  0.037125249            3 
  131000    1.2405976     -7.02569    52.900094  0.033651459  0.037100787            2 
  132000    1.2091476   -7.0730802    53.295152  0.033645929  0.037077925            2 
  133000    1.2009323   -6.9972989    53.821516  0.033722754  0.037052901            1 
  134000    1.2194838   -7.0275597    54.287243  0.033760723  0.037028699            1 
  135000     1.174555   -7.0567054    54.673241  0.033748914  0.037013011            3 
  136000    1.2164685   -7.0708823    54.969324  0.033682184  0.036993058            2 
  137000    1.2157856    -7.020989    55.298395  0.033636493  0.036970632            1 
  138000    1.1936704     -7.05558    55.823797  0.033710022  0.036948809            2 
  139000    1.2200681   -7.0216269    56.455375  0.033846148  0.036931042            2 
  140000    1.1819391   -7.0980344    56.628111  0.033707209  0.036914982            2 
  141000    1.2074186   -7.0587873    57.182752  0.033795953  0.036899876            3 
  142000    1.1997896   -7.0891092    57.554796  0.033776288  0.036882466            1 
  143000    1.2226992   -7.0562286     58.03747  0.033821369  0.036866961            3 
  144000    1.2117424   -7.0671756    58.466931  0.033835029  0.036850949            2 
  145000    1.2049133   -7.0179089    58.756324  0.033768002  0.036830632            3 
  146000    1.1883593   -7.0451192    58.853083  0.033591942   0.03680391            3 
  147000    1.1743667   -7.0572291    59.444001  0.033698413  0.036777044            2 
  148000    1.2000945   -7.0604234    59.846438  0.033697318  0.036754401            1 
  149000    1.1968544    -7.047606    60.358954  0.033757804  0.036734732            2 
  150000    1.2039825   -7.0592408    60.945284  0.033858491  0.036715224            1 
  151000    1.1810118   -7.0802283    60.786737  0.033546764  0.036691999            1 
  152000    1.2057318   -7.0759347    61.031057  0.033460009  0.036662216            1 
  153000    1.1542184   -7.0359359    61.674416   0.03359173  0.036631958            1 
  154000          1.2   -7.0087097    62.047161  0.033575303  0.036600248            1 
  155000    1.1921552   -7.0408025    61.912102  0.033286076  0.036564959            1 
  156000     1.193172   -7.0368729    62.626908  0.033454545  0.036525895            1 
  157000    1.1736435    -7.090188    62.678924  0.033269068  0.036489068            2 
  158000    1.2176028   -7.0264361    63.618751  0.033554194  0.036456237            1 
  159000    1.1673332   -7.0692961    64.143518  0.033618196  0.036425836            1 
  160000    1.1895876   -7.0511575    64.288654  0.033483674  0.036396145       -1e+20 
  161000     1.201769   -7.0631616    64.797628  0.033539145  0.036366789            1 
  162000    1.1919644   -7.0708149    65.362631  0.033622752  0.036338673            1 
  163000    1.1838231   -7.0373565    65.544235  0.033509322   0.03630924            2 
  164000    1.1828282   -7.0324503    65.836804  0.033453661  0.036279314            1 
  165000    1.1975253   -7.1145806    66.243139  0.033456131  0.036249946            2 
  166000    1.1727562   -7.0967473    66.696887  0.033482373  0.036221364            1 
  167000    1.1751516     -7.07497    67.182927  0.033524414  0.036195684            1 
  168000    1.1767853    -7.083192     67.35613  0.033410779  0.036166995            3 
  169000    1.2088657   -7.0560519    67.764772  0.033414582  0.036136913            1 
  170000    1.1947486    -7.040434    67.959191  0.033313329  0.036104729            1 
  171000    1.2075832   -7.0467689    68.167493  0.033220026  0.036070801            2 
  172000     1.190967   -7.0614611    68.564336  0.033219155  0.036033481            1 
  173000     1.190492   -6.9943489    69.087232  0.033279014  0.035998408            3 
  174000    1.1950654   -7.0567953    69.258777  0.033169912  0.035963049            3 
  175000    1.1829335     -7.06409    69.672506  0.033177384  0.035925157            2 
  176000     1.168436    -7.087138    69.787415  0.033043284  0.035889749            2 
  177000     1.184651   -7.0703955    70.570884  0.033225463  0.035854973            1 
  178000    1.1710123    -7.092577    70.613436  0.033058725  0.035818225            2 
  179000    1.1813055   -7.0771916    71.115471  0.033107761  0.035783796            1 
  180000    1.1648982    -7.025699    71.961864  0.033315678  0.035752012            2 
  181000    1.1718831    -7.040353    72.471733  0.033366359  0.035725539            1 
  182000    1.1965875   -7.0690344    72.527531  0.033208576   0.03569969            1 
  183000    1.1726347   -7.1001619    72.933831  0.033212127  0.035672322            1 
  184000    1.1786054   -7.0829398    73.060471  0.033088982   0.03564215            1 
  185000    1.1835943   -7.0867532    73.896825  0.033286858  0.035613567            1 
  186000    1.1782085    -7.062748    74.109844  0.033203335  0.035586062            1 
  187000    1.2115709   -7.0820657    74.600528  0.033244442  0.035557856            2 
  188000    1.1806242   -7.1175189    74.670859  0.033098785   0.03552958            1 
  189000    1.2009515   -7.0741891    75.404121  0.033246967  0.035502063            3 
  190000    1.1852647   -7.0587726    75.865506  0.033274345  0.035475092            2 
  191000    1.1742972   -7.0548682    76.230113  0.033259212  0.035449698            4 
  192000    1.1764604    -7.090572    76.173022  0.033061207  0.035422236            2 
  193000     1.172422   -7.1054429     76.58534  0.033067936  0.035394854            2 
  194000    1.1740965   -7.0910394    76.656152    0.0329279  0.035365935            1 
  195000    1.1634939    -7.056411    77.314338  0.033040315  0.035335932            1 
  196000    1.1966007   -7.1015995    77.529757  0.032963332  0.035306387            1 
  197000    1.1751067   -7.1009814    77.737742  0.032883985  0.035277487            3 
  198000    1.1811082   -7.0985625    78.712965  0.033128352  0.035249466            2 
  199000    1.1925014   -7.1321817    78.657151  0.032938505  0.035222381            3 
  200000    1.1940528   -7.0725058     79.39668   0.03308195  0.035194897            1 
  201000    1.1844816    -7.074446    79.627105  0.033012896  0.035168258            1 
  202000    1.1640504   -7.0849946    80.188635   0.03308112   0.03514154            1 
  203000    1.1705831   -7.0946283    80.460206  0.033029641  0.035115741            1 
  204000     1.166943   -7.0958635    80.863576  0.033032507  0.035090111            2 
  205000    1.1733595   -7.1199451    80.994731  0.032924687  0.035062717            2 
  206000    1.1743172   -7.0938433    81.172863  0.032836918  0.035033536            1 
  207000    1.1880514   -7.1003896    81.513372  0.032815367  0.035004664            2 
  208000    1.1545607    -7.122395    82.033467  0.032865972  0.034976281            3 
  209000    1.1831954   -7.0738661    82.659249  0.032958233  0.034950425            1 
  210000    1.1729397   -7.1074402    83.146429  0.032994615  0.034925308            1 
  211000    1.1662798   -7.0712288    83.642087  0.033033999  0.034901223            1 
  212000     1.172001   -7.1094296    83.944612  0.032997096  0.034879627            2 
  213000    1.1328481   -7.0624011     84.89518  0.033214077  0.034859516            1 
  214000    1.1721462   -7.0673466    84.817705  0.033028701  0.034838945            1 
  215000    1.1600984   -7.0794098    85.141642  0.033000636  0.034817227            2 
  216000    1.1574752   -7.1414244    85.377791  0.032938963  0.034794096            2 
  217000    1.1611576   -7.1108819    86.031474    0.0330382  0.034771505            1 
  218000    1.1845939   -7.1339314    86.125802  0.032922707  0.034748308            1 
  219000    1.1669096   -7.0945484     86.54268  0.032931005  0.034727063            2 
  220000     1.176137   -7.1291266     86.85611  0.032900041  0.034705213            2 
  221000    1.1804124   -7.1187402    87.225153  0.032890329  0.034682378            3 
  222000     1.180846   -7.1489404    87.584128  0.032876925   0.03466091            2 
  223000    1.1604345   -7.0746827    88.147842   0.03294015  0.034637948            2 
  224000    1.1837978   -7.1575005    88.411668  0.032891245  0.034617186            2 
  225000    1.1767839   -7.1140796    89.511641   0.03315246  0.034598754            2 
  226000    1.1647869   -7.1074891      89.6971  0.033074152  0.034583419            1 
  227000    1.1713352   -7.1386314     89.99715  0.033038601  0.034568054            3 
  228000    1.1629707   -7.1219493    90.228599  0.032978289  0.034553129            1 
  229000    1.1681482   -7.1333309    90.793007  0.033039668  0.034539156            1 
  230000    1.1533216    -7.128898    91.119704  0.033014386  0.034524177            1 
  231000    1.1770792   -7.0925871    91.607542  0.033047454  0.034509491            3 
  232000     1.185595   -7.0899584     91.96059  0.033031821  0.034492674            1 
  233000    1.1508975   -7.1311716    92.179737  0.032968432  0.034475876            3 
  234000    1.1620892   -7.1153128    92.476513  0.032933231  0.034459159            2 
  235000    1.1143932   -7.2043314    92.583607  0.032831066  0.034441147            2 
  236000     1.145032   -7.1075638    93.169448  0.032898816   0.03442396            1 
  237000    1.1810479   -7.1365521    93.438529  0.032854616   0.03440672            2 
  238000    1.1808304     -7.12745    94.198268  0.032982587  0.034390246            1 
  239000    1.1633453   -7.1131172    94.584504  0.032979255  0.034374305            2 
  240000    1.1263275   -7.1221976    94.625677  0.032856138  0.034357856            2 
  241000    1.1610377   -7.1069769    95.087431  0.032879471  0.034341619            3 
  242000    1.1406781   -7.1745698    95.544618  0.032901039  0.034326876            1 
  243000    1.1656967   -7.1350609    96.194831  0.032988625   0.03431358            1 
  244000    1.1883089   -7.1308032     96.59192  0.032989044  0.034301682            2 
  245000    1.1485213   -7.1518539    97.038342  0.033006239  0.034290348            1 
  246000    1.1525331   -7.1230279    98.002302  0.033198612  0.034280918       -1e+20 
  247000    1.1571714   -7.1042584    98.249206  0.033147505  0.034272235            1 
  248000     1.153506   -7.1648396    98.374859  0.033056068  0.034262838            1 
  249000    1.1362801   -7.1382772    98.486428  0.032960652  0.034251166            3 
  250000    1.1537302   -7.1899678    98.728822  0.032909607  0.034238875            1 
  251000    1.1605539   -7.1585682    99.371171  0.032991756  0.034225822            1 
  252000    1.1299561    -7.140341    99.796757  0.033001573  0.034213698            2 
  253000    1.1664875   -7.1320736    100.06436  0.032959274   0.03420063            5 
  254000    1.1454745   -7.1356935    100.38046  0.032933223  0.034187095            1 
  255000    1.1379346    -7.110659    100.83179  0.032951566  0.034171723            2 
  256000    1.1362462    -7.172611    100.69195  0.032777326  0.034157053            1 
  257000    1.1619993   -7.1315361    101.20634  0.032816582  0.034140566            2 
  258000    1.1464854   -7.1231171    101.63561  0.032828039  0.034125836            1 
  259000    1.1345528   -7.1274215    101.82888  0.032763476  0.034109983            2 
  260000    1.1558081   -7.1632385    102.01734  0.032697865  0.034093853            2 
  261000    1.1569661   -7.1538037     102.2361  0.032642432  0.034077279            2 
  262000    1.1554863   -7.1180684    102.87476  0.032720978  0.034060916            1 
  263000    1.1594729    -7.130489    102.88706  0.032600461  0.034043831            2 
  264000    1.1443581   -7.1459389    103.04514  0.032526875  0.034024722            1 
  265000    1.1516231   -7.1302862     103.6564  0.032596352  0.034006348            1 
  266000    1.1420596   -7.1192103    104.16051  0.032631737  0.033986024            2 
  267000    1.1682041   -7.1452109    103.94634  0.032442679  0.033966152            1 
  268000    1.1591805   -7.1373025    104.67966  0.032549647  0.033946489       -1e+20 
  269000    1.1729679   -7.1415123     104.5854  0.032399443  0.033924838            1 
  270000    1.1450982   -7.1757622     104.9161  0.032381511  0.033903036            4 
  271000    1.1358761   -7.1836153    105.21372  0.032353541  0.033879721            1 
  272000    1.1566378   -7.1586765    105.58136  0.032347231  0.033857652            1 
  273000    1.1568488   -7.1457295    105.67505  0.032257341  0.033834963            2 
  274000    1.1438398   -7.1335501    106.27233  0.032321268  0.033811538            2 
  275000    1.1507195   -7.1620795    106.34157  0.032224719  0.033789301            1 
  276000    1.1409705   -7.1939345    106.98304  0.032301643  0.033766792            1 
  277000    1.1473821    -7.170913    107.16219  0.032238926  0.033744245            1 
  278000    1.1634589   -7.1998452    107.64882  0.032268832  0.033722992            1 
  279000    1.1454315   -7.1780814    107.71558  0.032173111  0.033700703            2 
  280000    1.1372011   -7.1855495    108.15456  0.032188856  0.033677429            2 
  281000    1.1484903   -7.1709009    108.03203  0.032037967  0.033652355            1 
  282000    1.1500437   -7.1500716    108.35234  0.032019012  0.033627204            2 
  283000    1.1608946   -7.1693348     109.0054  0.032098174  0.033602721            2 
  284000    1.1381811   -7.2054416    109.00806  0.031985932  0.033578398            1 
  285000    1.1636632     -7.17429    109.65009  0.032061428  0.033554782            1 
  286000    1.1348318   -7.1401446    110.18579  0.032105416   0.03353231            1 
  287000    1.1239502   -7.1712363     110.4452  0.032068873  0.033507964            1 
  288000    1.1228492   -7.1499175    110.68563  0.032027092  0.033484483            2 
  289000    1.1293359   -7.1618333    111.12013  0.032041561  0.033460089            2 
  290000    1.1188306   -7.1668669    111.41773  0.032016589  0.033437173            2 
  291000    1.1283344   -7.1604168     111.5806  0.031953208  0.033414282            2 
  292000    1.1177843   -7.1524284    112.09495  0.031990568  0.033389999            2 
  293000    1.1463418   -7.1625641    112.53582  0.032006776  0.033367916            1 
  294000    1.1227463   -7.1992647    112.69897  0.031944151  0.033346321            1 
  295000    1.1463591   -7.1648051    113.35337  0.032020726  0.033323704            1 
  296000    1.1097906    -7.178767    113.60303  0.031982835  0.033301264            3 
  297000    1.1285718   -7.1744318       114.36  0.032087542  0.033280288            3 
  298000    1.1505336   -7.1723332    115.02925  0.032167016  0.033260635            3 
  299000    1.1363857   -7.1879245    114.75598  0.031983272  0.033240916            2 
  300000    1.1347289   -7.1868543    115.33133   0.03203648   0.03322223            2 
  301000    1.1281234   -7.2184115    115.07387  0.031858768   0.03320275            2 
  302000    1.1436208   -7.2099726    115.69601  0.031924948  0.033182454            2 
  303000    1.1272845   -7.1900599    116.04029  0.031914272  0.033162442            2 
  304000     1.131252   -7.1564663    116.24962  0.031866671  0.033143425            1 
  305000    1.1206954   -7.2169787    117.04679  0.031979998  0.033123464            1 
  306000    1.1157455   -7.2077089    116.87257  0.031828041  0.033103315            1 
  307000    1.1241734   -7.1887889    117.38482  0.031863415  0.033082352            1 
  308000    1.1250085    -7.205385    117.12403  0.031689401  0.033060579            3 
  309000    1.1396099   -7.2044799    117.34871  0.031647441   0.03303877            2 
  310000    1.1340385   -7.1956274    118.21207  0.031777438  0.033015685            1 
  311000    1.1228037   -7.1877695    118.28376  0.031694471    0.0329926            2 
  312000    1.1024584   -7.1794056    118.06509   0.03153448   0.03296986            2 
  313000    1.1558013   -7.2271528    118.96096  0.031672247   0.03294758            2 
  314000     1.120536   -7.1473201    119.51976  0.031719682  0.032926493            4 
  315000    1.1500135   -7.1783243    120.05902  0.031761646  0.032905757            1 
  316000    1.1499718   -7.1954498    120.02272  0.031651561  0.032884035            1 
  317000    1.1260593   -7.2276399    120.29036  0.031622072  0.032863139            2 
  318000    1.1350398   -7.2105362    120.77289   0.03164908  0.032841447            2 
  319000    1.1058864   -7.1879002    121.35419  0.031701721  0.032820953            3 
  320000     1.129097   -7.1852388    121.77869  0.031713201  0.032800771            2 
  321000    1.1327827   -7.1885838    121.84262  0.031631003  0.032780127            2 
  322000    1.1144482   -7.2035869    121.63291  0.031478497  0.032757419            2 
  323000    1.1262248   -7.2045862    121.97694    0.0314698  0.032733635            1 
  324000    1.1154983   -7.2287274    122.15547  0.031418588  0.032710338            2 
  325000    1.1209918   -7.2399318    121.89459  0.031255023  0.032686152            1 
  326000    1.1221096   -7.2376758    122.74453  0.031376414  0.032661265            2 
  327000    1.1322162   -7.2012932     122.8728  0.031313151  0.032636071            1 
  328000    1.1221307   -7.2210722    123.21216  0.031303903   0.03261142            1 
  329000    1.1156919    -7.204459    123.45894  0.031271262  0.032586028            1 
  330000    1.1189966   -7.2007801    123.64992  0.031224728  0.032561015            4 
  331000    1.1294231   -7.1821146    123.86423  0.031184348   0.03253609            2 
  332000    1.1119815    -7.254725    123.92983  0.031106885  0.032511723            1 
  333000    1.1131547   -7.2273289    124.41143  0.031133991  0.032486669            2 
  334000    1.1259281   -7.1900308    125.26843  0.031254597  0.032461917            2 
  335000    1.1277176    -7.217127    125.45729   0.03120828  0.032438063            4 
  336000    1.1332078   -7.2429257    125.49347  0.031124373  0.032414017            1 
  337000    1.0976475   -7.2207949     126.2245  0.031212785  0.032391473            2 
  338000    1.1090324    -7.209329    126.53683  0.031197443   0.03237029            3 
  339000    1.0865672   -7.2223433    127.03949  0.031228979  0.032348407            1 
  340000     1.133476   -7.2578842    126.33028  0.030963303  0.032324379            1 
  341000    1.1094433   -7.2240313    126.74631  0.030974172  0.032300382            2 
  342000    1.1379878   -7.2100623    127.12967  0.030977014  0.032277169            1 
  343000    1.1050529   -7.2131116    127.78852  0.031046773   0.03225327            1 
  344000    1.1198804   -7.2238635    127.98209  0.031003414  0.032228993            2 
  345000    1.1327332   -7.2075837    129.11819  0.031187969  0.032205659            2 
  346000    1.0869488   -7.2463352    128.95969  0.031059655  0.032183539            1 
  347000    1.0858624   -7.2187346    129.56737  0.031116082  0.032160867            3 
  348000    1.1137178   -7.1851164    130.55653  0.031263538  0.032141446            1 
  349000     1.118261   -7.2184038    130.27427  0.031106559   0.03212113            3 
  350000    1.1009779   -7.2428119    130.70009  0.031119068  0.032101188            3 
  351000    1.1054212   -7.2219489    131.01479  0.031105126  0.032081502            2 
  352000    1.1211221   -7.2553489    131.49845  0.031131261   0.03206167            4 
  353000    1.1144805    -7.234816    131.25618  0.030985878  0.032042532            6 
  354000    1.1127102    -7.240176    132.22814  0.031127153  0.032023038            1 
  355000    1.1001809   -7.2479333    132.44041  0.031089299  0.032004521            1 
  356000    1.1091299   -7.2261871    133.00475  0.031134071  0.031985648            1 
  357000    1.1237672   -7.2217046    133.13472  0.031077198   0.03196694            2 
  358000    1.1065371   -7.2725835    133.36308  0.031043548    0.0319486            5 
  359000    1.1281337   -7.2191438    134.29354  0.031173058  0.031930823            1 
  360000    1.1051597   -7.2463255    134.24366  0.031074921  0.031912533            2 
  361000    1.0952073   -7.2494315    133.91352  0.030912633  0.031893549            1 
  362000    1.1069324   -7.2430986     134.3604   0.03093011  0.031873984            1 
  363000    1.1318581    -7.226437    134.24044  0.030817364  0.031852479            1 
  364000    1.1231615   -7.2502877    134.10663  0.030702067  0.031830569            2 
  365000    1.0880192   -7.2305599    134.61611  0.030734271  0.031808304            1 
  366000    1.1082534   -7.2236966    135.31634   0.03080973  0.031786616            3 
  367000    1.0913681     -7.22654    135.81953  0.030840038  0.031766317            1 
  368000    1.1223002    -7.237623    135.97989  0.030792548  0.031745096            1 
  369000    1.1076657   -7.2455934    136.10636   0.03073766  0.031723648            2 
  370000    1.0985926   -7.2584142    136.50748  0.030744927  0.031702598            2 
  371000    1.1005773   -7.2449504    136.52248  0.030665427  0.031681407            2 
  372000    1.0935911   -7.2680674     136.9999  0.030689943  0.031660508            3 
  373000    1.1003353    -7.240576    137.60272  0.030742341  0.031639453            3 
  374000    1.0807961   -7.2468444    137.82252  0.030709118  0.031618956            1 
  375000    1.0968525   -7.2600645    138.08991  0.030686647  0.031598206            1 
  376000    1.1093925   -7.2950554    137.86548  0.030555292  0.031576352            1 
  377000    1.0948633   -7.2278659    138.37088  0.030585959  0.031555495            1 
  378000    1.1319299   -7.2574711    138.52193  0.030538345   0.03153429            1 
  379000    1.0925957   -7.2670161    138.95874  0.030553813  0.031512863            2 
  380000    1.0938769   -7.2265624    138.99848  0.030482124  0.031490678            2 
  381000    1.1341229    -7.321911    138.81886  0.030362831  0.031468709            1 
  382000    1.0983593   -7.2706752    139.49525  0.030430902  0.031446206            2 
  383000    1.1400915    -7.274852    139.53381  0.030359837  0.031423885            3 
  384000    1.1145213   -7.2687554     139.9972  0.030381337  0.031400513            2 
  385000      1.15297   -7.2411666    140.59824   0.03043252  0.031377854            2 
  386000    1.0946028   -7.2407555    140.52137  0.030337083  0.031355654            1 
  387000    1.0993467   -7.2750429    140.59147  0.030273787   0.03133336            1 
  388000    1.1048379   -7.2888166    140.95615  0.030274086  0.031311061            1 
  389000    1.0931923    -7.224014    141.86516  0.030390994  0.031289698            1 
  390000    1.0902146   -7.2569204    142.01698  0.030345508  0.031267572            1 
  391000    1.1363905    -7.282149    142.07305  0.030279848  0.031246341            2 
  392000    1.0734648   -7.2436009    142.36627  0.030264937  0.031224821            1 
  393000    1.0772348   -7.2897592    142.40427  0.030195985  0.031203575            1 
  394000    1.0971133   -7.2830881     142.9651  0.030237964  0.031181376            1 
  395000    1.0815425   -7.2558173    142.91457  0.030150752  0.031159144            1 
  396000    1.0843038   -7.2477768    143.55514  0.030209415  0.031138109            1 
  397000    1.1119664   -7.2511367    143.55166   0.03013259  0.031116744            2 
  398000    1.0915131   -7.2599571     144.0241    0.0301558  0.031095265            1 
  399000    1.1088471   -7.2618877    144.18733  0.030114313  0.031073658            1 
  400000    1.0802842   -7.2780216    144.78504  0.030163549  0.031052666            2 
  401000    1.0959028   -7.2621761    145.11213  0.030156303  0.031031942            1 
  402000    1.0827659   -7.2376855    145.32019  0.030124418  0.031011063            2 
  403000    1.1034576   -7.2793717    145.64231  0.030116276  0.030990243            3 
  404000    1.1087751   -7.2569426    145.76079  0.030066169  0.030969748            1 
  405000    1.0854571   -7.2873085    145.96917  0.030034809  0.030948622            1 
  406000    1.1140448   -7.2122558    146.25811  0.030020137  0.030926653            1 
  407000    1.0978024   -7.2947771    146.27531  0.029949899  0.030904094            3 
  408000    1.0929144   -7.2685873    146.32566  0.029886776  0.030881296            2 
  409000    1.0998622    -7.291144    146.90931  0.029932621  0.030858359            2 
  410000    1.0896381   -7.2921181    146.81638  0.029840727  0.030836031            2 
  411000     1.081397   -7.3211279     146.9304  0.029791242   0.03081307            1 
  412000    1.0957227   -7.2677762    147.48428  0.029830964  0.030790803            3 
  413000    1.0764349   -7.3379751    147.64732  0.029791631  0.030767618            1 
  414000    1.0858014   -7.3130247    147.86635  0.029763758  0.030744926            2 
  415000    1.0914423   -7.2504984     148.2972  0.029778555  0.030721938            1 
  416000    1.0964721   -7.2908212    147.94641  0.029636702  0.030698858            1 
  417000    1.0820264   -7.2978195    148.31323  0.029638934  0.030675598            3 
  418000    1.0951397   -7.2563968    149.14523  0.029733898  0.030652021            2 
  419000     1.072622    -7.269429    149.32388  0.029698466  0.030628709            2 
  420000    1.0926389   -7.2579974    149.68787  0.029699975  0.030606049            2 
  421000    1.0959626   -7.3266863    149.74015  0.029639776  0.030583714            2 
  422000     1.076769   -7.3030984    150.15931  0.029652312  0.030560815            1 
  423000    1.1079116   -7.2879675    150.51049  0.029651396  0.030538427            4 
  424000    1.0829087   -7.3152459    150.67448  0.029613694  0.030516419            2 
  425000    1.0725003   -7.2943489    150.75967  0.029560719  0.030493518            2 
  426000    1.1106848   -7.3202817    150.28832  0.029399123  0.030470768            2 
  427000    1.0677594    -7.285146     151.5641  0.029579254  0.030448204            1 
  428000    1.0797466   -7.2889406    151.97614  0.029590371  0.030426375            1 
  429000    1.1140308   -7.3088085      151.663  0.029460566  0.030403705            2 
  430000    1.0907284   -7.3078844    152.01606  0.029460476  0.030380788            3 
  431000     1.063321   -7.2920738    152.41717  0.029469676  0.030358097            3 
  432000    1.0915154   -7.3041406    152.99386  0.029512705  0.030336316            2 
  433000    1.0872584   -7.3089124    152.94174  0.029434514  0.030313861            2 
  434000    1.0931356   -7.2693818    153.34848  0.029444794  0.030291253            3 
  435000    1.0894923   -7.3111636     153.3489  0.029377184  0.030268722            2 
  436000    1.0799789   -7.2826609       153.36  0.029311926  0.030245966            1 
  437000     1.083659   -7.3209459    153.34895  0.029242744  0.030222508            1 
  438000    1.0671384   -7.2802851    154.09781  0.029318457  0.030199766            2 
  439000    1.0757476   -7.3436035    154.34596  0.029298778  0.030177406            2 
  440000    1.0814591   -7.3114529    154.66362  0.029292352  0.030155267            3 
  441000    1.0869469   -7.3272744    154.89856  0.029270325  0.030132375            1 
  442000    1.0764197   -7.2932965    154.82397   0.02919004  0.030109215            2 
  443000    1.0750793   -7.3192015    155.03714  0.029164248  0.030086077            1 
  444000     1.072334   -7.3387215    155.40115  0.029166883     0.030063            1 
  445000    1.0945507   -7.3451028    155.61588   0.02914155  0.030039724            2 
  446000    1.0642852   -7.2815922    155.95296  0.029139193  0.030017335            2 
  447000    1.0779178   -7.2978997    156.75627  0.029223763  0.029994383            2 
  448000    1.0640695   -7.3596121    155.80577  0.028981728  0.029970919            1 
  449000    1.1000502   -7.3070272    157.00052  0.029138924  0.029947572            2 
  450000    1.0768756   -7.2835897    156.48878  0.028979403  0.029924385            2 
  451000    1.0737154   -7.3119383    157.29859  0.029064779  0.029901286            2 
  452000    1.0575641   -7.2987164    157.06515   0.02895744     0.029878            2 
  453000    1.0683569   -7.3210357    157.83951  0.029035965  0.029855163            2 
  454000    1.0893787   -7.3331599    157.61721  0.028931206  0.029832585            2 
  455000    1.0795726    -7.306146    158.24513  0.028982624  0.029810124            2 
  456000    1.0894621   -7.2922907    158.58513    0.0289812    0.0297873            2 
  457000    1.0769451   -7.3285975    159.10386  0.029012375  0.029764471            1 
  458000    1.0722459   -7.3102243    159.07404  0.028943603  0.029742303            1 
  459000    1.0515538   -7.3405107    159.17434  0.028898754  0.029719509            1 
  460000    1.0695937   -7.3502872    158.80173  0.028768429  0.029695958            1 
  461000    1.0663466   -7.3277476    159.25617  0.028788172    0.0296726            2 
  462000    1.0885118   -7.3351249    159.44206   0.02875939  0.029649122            1 
  463000    1.0740985   -7.3286186    160.00038  0.028797764  0.029625865            2 
  464000    1.0602805   -7.3499829    160.16064  0.028764484  0.029602486            2 
  465000    1.0777059   -7.3267913    160.28787  0.028725424  0.029579145            1 
  466000    1.0831818   -7.3500093    160.44339  0.028691593  0.029556144            1 
  467000    1.0635631   -7.3324342     160.7615  0.028686919  0.029533262            1 
  468000    1.0727532   -7.3518703    160.89697  0.028649746  0.029509909            2 
  469000    1.0583276   -7.3384271    160.77251  0.028566544  0.029486601            3 
  470000     1.085021   -7.3441247    161.85317   0.02869737  0.029463034            1 
  471000    1.0725273   -7.3182093    161.85913  0.028637496  0.029440051            1 
  472000    1.0616954   -7.3488954    162.19757  0.028636577  0.029417629            2 
  473000    1.0625749   -7.3407572    162.52131  0.028633071  0.029395025            3 
  474000    1.0681136   -7.3114041    162.84092  0.028628854  0.029372848            1 
  475000    1.0826374   -7.3233645    163.02949  0.028601665  0.029350657       -1e+20 
  476000    1.0354007   -7.3430187    163.13368  0.028559817  0.029328266            1 
  477000    1.0676643   -7.3296927    163.33291  0.028534751  0.029305499            2 
  478000    1.0602411   -7.3364904    163.57741   0.02851768  0.029282807            1 
  479000     1.068609   -7.3601453    163.44507  0.028435119  0.029259972            1 
  480000    1.0629318   -7.3671759    163.94626  0.028462893  0.029237583            2 
  481000    1.0754184   -7.3504815    164.44134  0.028489491  0.029214657            2 
  482000    1.0752941   -7.3547288    164.51854  0.028443731  0.029192441            1 
  483000    1.0417449    -7.330043    164.65058  0.028407622  0.029169829            1 
  484000    1.0760516   -7.3508156    165.34761   0.02846894  0.029147728            1 
  485000    1.0726679   -7.3194009    165.55333  0.028445589  0.029125834            1 
  486000    1.0817246   -7.3522551    165.73846  0.028418802  0.029104265            2 
  487000    1.0461178   -7.3763196    165.18634  0.028265973  0.029082065            1 
  488000    1.0586705   -7.3265658    165.80659  0.028313967  0.029059628            3 
  489000     1.069477   -7.3695039    165.60806  0.028222232  0.029037154            2 
  490000    1.0450906   -7.4042653    166.55606   0.02832586  0.029014644            3 
  491000    1.0825988   -7.3857885    166.58246  0.028272651   0.02899211            2 
  492000    1.0598549   -7.3962497    166.53011   0.02820632  0.028969988            1 
  493000    1.0505098   -7.3396378    167.28395   0.02827653  0.028948222            3 
  494000    1.0669157   -7.3255652    167.22183  0.028208811  0.028926352            3 
  495000    1.0288593      -7.3692    167.59162  0.028214078  0.028904914            1 
  496000    1.0499897   -7.3686882    168.05977  0.028235849  0.028883443            2 
  497000    1.0228545   -7.4029329    167.79753  0.028135066  0.028861769            2 
  498000    1.0364263   -7.3608692    167.98404  0.028109778  0.028839424            2 
  499000    1.0772474   -7.3741283     168.0972  0.028072345  0.028816766            1 
  500000    1.0412529   -7.3903044    167.87708  0.027979513  0.028793908            1 
  501000    1.0644633   -7.3764413    168.84328  0.028084378  0.028771233            2 
  502000    1.0440028   -7.3453382    169.67344  0.028166242  0.028748982            2 
  503000    1.0467308   -7.3191941    169.71126  0.028116511  0.028727627            1 
  504000    1.0504689   -7.3825074     168.9472  0.027934392  0.028705582            1 
  505000    1.0665306   -7.3346638    169.83176  0.028025043  0.028683962            1 
  506000    1.0819009   -7.3570498    169.92117  0.027984382  0.028662352            1 
  507000    1.0866956   -7.3821749    169.99616  0.027941513  0.028640697            2 
  508000     1.050861   -7.3531286    171.00657  0.028052258   0.02861918            1 
  509000    1.0602186    -7.378481    170.64619  0.027938145  0.028597278            1 
  510000    1.0403987   -7.3464068    170.93555  0.027930645  0.028575343            1 
  511000    1.0748736   -7.3438359    171.37518   0.02794768  0.028553429            2 
  512000    1.0624846   -7.3973149    171.18907  0.027862804  0.028531442            2 
  513000    1.0643391   -7.3718804    171.32923  0.027831259  0.028509131            1 
  514000    1.0736599   -7.3528702    171.19363  0.027755129  0.028486685            2 
  515000    1.0441066    -7.371305    171.76945   0.02779441  0.028464103            1 
  516000    1.0724463   -7.3830121    171.82668  0.027749786   0.02844199            1 
  517000    1.0738273   -7.3786526    172.15305  0.027748719  0.028419937            1 
  518000    1.0644079   -7.3709926    173.06885  0.027842479  0.028398591            3 
  519000    1.0380418   -7.3544345     172.9749  0.027773748  0.028377335            5 
  520000    1.0322315   -7.4140504    173.56992  0.027815692  0.028356609            2 
  521000    1.0697686   -7.3975925    173.35775  0.027728367  0.028335497            3 
  522000     1.050413   -7.3649044    174.11193  0.027795646    0.0283144            2 
  523000    1.0307828   -7.3749571    173.58652  0.027658782  0.028293242            1 
  524000     1.061921   -7.3517994    174.64786  0.027774787  0.028272538            3 
  525000    1.0351505    -7.378231    174.53148  0.027703409  0.028251631            2 
  526000    1.0561904   -7.4099775    174.38369  0.027627328   0.02823051            1 
  527000    1.0315615   -7.3692741    175.13681  0.027693993  0.028209861            1 
  528000    1.0191603   -7.3544861    175.91512  0.027764382  0.028189482            3 
  529000    1.0406885   -7.3398521    175.41696  0.027633421  0.028169121            1 
  530000    1.0538355   -7.4152905    175.26903  0.027558023  0.028148524            2 
  531000    1.0514296   -7.3940704     176.0141  0.027623053  0.028127462            1 
  532000    1.0652019   -7.4066165    175.12744  0.027432242  0.028106395            1 
  533000     1.031985   -7.3654703    175.88921  0.027499876  0.028085293            3 
  534000    1.0295149   -7.3696196    176.77277  0.027586263  0.028063988            1 
  535000    1.0311267   -7.4443761    176.10611  0.027430859  0.028042638            1 
  536000    1.0379973   -7.4361071     176.6678  0.027467009  0.028021218            2 
  537000    1.0393037   -7.3792002    177.04016  0.027473644  0.028000049            2 
  538000     1.036115   -7.3768279     177.0014  0.027416573  0.027978728            2 
  539000    1.0696718   -7.4094398    176.97101  0.027361009  0.027957539            2 
  540000    1.0295572   -7.4081196    177.24873  0.027353199  0.027936259            2 
  541000    1.0212106   -7.3866464    178.10248  0.027434146  0.027915412            1 
  542000    1.0476071   -7.3805173    178.29122  0.027412549  0.027894179            2 
  543000    1.0149475   -7.4102252    178.40333  0.027379271  0.027873166            3 
  544000    1.0358524   -7.3972258    177.79544  0.027235821   0.02785174            2 
  545000    1.0206166   -7.4357986    178.09073  0.027230999  0.027830317            2 
  546000    1.0532365   -7.4124839    178.45407   0.02723658  0.027808886            3 
  547000    1.0389075   -7.4206248    178.89621  0.027254145  0.027787151            3 
  548000    1.0184051   -7.4625671     178.5369  0.027149772  0.027765425            1 
  549000     1.014492    -7.420014    179.31077  0.027217785  0.027743829            4 
  550000    1.0258365   -7.3990912    179.87997  0.027254541  0.027722461            3 
  551000    1.0469619   -7.4398394    179.50395  0.027148208  0.027701004            2 
  552000    1.0435274   -7.3667835    179.81688  0.027146269  0.027679919            2 
  553000    1.0342977   -7.4012309    180.54224  0.027206486  0.027659068            2 
  554000    1.0414794   -7.3832907    181.06153  0.027235488  0.027638847            3 
  555000    1.0407384    -7.464843    180.73964  0.027138084  0.027618419            2 
  556000    1.0064394   -7.3961247    181.00591  0.027129183  0.027598143            2 
  557000    1.0158576   -7.4097217    181.20399  0.027110113  0.027577509            2 
  558000     1.004484   -7.4216598    181.73896  0.027141422  0.027557102            2 
  559000    1.0376817   -7.4656892     181.6445  0.027078787  0.027536614            1 
  560000    1.0262749   -7.4525655    181.73741  0.027044258  0.027516088            2 
  561000    1.0278323   -7.3885908    182.62195  0.027127444  0.027496082            2 
  562000    1.0438174   -7.4509895    182.67524  0.027087077  0.027476142            2 
  563000    1.0595018   -7.4037807    182.95589  0.027080505  0.027456065            3 
  564000    1.0233424   -7.4466682    182.81495  0.027011666  0.027436028            1 
  565000    1.0329123   -7.4036048    182.58539  0.026929998  0.027415817            1 
  566000    1.0450245   -7.4323774    183.46753  0.027012299  0.027395431            3 
  567000    1.0276677   -7.4361112    182.97958  0.026892942  0.027374838            4 
  568000     1.016964   -7.4300937    183.38073   0.02690445   0.02735458            3 
  569000    1.0366907   -7.4644577    183.69299  0.026902898  0.027334343            1 
  570000    1.0401435   -7.4061606    184.49177  0.026972482  0.027314291            3 
  571000     1.019362   -7.4283716    183.98631  0.026851475  0.027294059            1 
  572000    1.0050697   -7.4304618    183.68987  0.026761344   0.02727351            1 
  573000    1.0131252   -7.4109427    184.72005  0.026864464  0.027253122            1 
  574000    1.0262983   -7.4196896    184.34958  0.026763876  0.027232713            4 
  575000    1.0241869   -7.4306364    184.80568  0.026783431  0.027212472            1 
  576000     1.025751   -7.4368033     184.7596  0.026730267  0.027192079            1 
  577000    1.0294535   -7.4001728    185.80798  0.026835352  0.027171622            1 
  578000     1.024954   -7.4563957    185.76094  0.026782143  0.027151727            3 
  579000    1.0121144   -7.4286947    185.88339  0.026753511  0.027131355            2 
  580000    1.0094711   -7.4596132    185.92923   0.02671397  0.027110689            2 
  581000    1.0305113   -7.4434288    186.05471  0.026685989  0.027090569            1 
  582000    1.0155714   -7.4536564    186.22674  0.026664768  0.027070425            5 
  583000    1.0295659   -7.4361695    186.37258  0.026639877  0.027050271            2 
  584000    1.0439183   -7.4194248    186.47876  0.026609412  0.027030123            2 
  585000     1.011571   -7.4260013    186.87766  0.026620749  0.027009841            1 
  586000    1.0383699   -7.4313381    186.54591  0.026528144  0.026989218            3 
  587000    1.0014868   -7.4140753    187.01832  0.026550018  0.026968822            3 
  588000    1.0078885   -7.4268685    186.49644  0.026430902  0.026948267            4 
  589000    1.0213705   -7.4564076    186.99745  0.026456912  0.026927239            6 
  590000    1.0439314   -7.4302491    187.26394  0.026449709  0.026905948            1 
  591000     1.024789   -7.4483065    186.94208  0.026359571  0.026884574            3 
  592000    1.0035012   -7.4249042    187.91692  0.026452269  0.026863716            2 
  593000    1.0199927   -7.4345714    188.03646   0.02642446  0.026842529            3 
  594000     1.018242   -7.4560275    187.80151  0.026347013  0.026821425            1 
  595000    1.0207284   -7.4617672    187.93431  0.026321332   0.02680026            2 
  596000    1.0423456    -7.464105     188.2999  0.026328286  0.026779496            2 
  597000   0.99549156   -7.4410686    188.43808  0.026303473  0.026758503            1 
  598000    1.0122185   -7.4222832    189.14521  0.026358028  0.026737801            1 
  599000    1.0259598   -7.4722376    189.07441  0.026304175  0.026717131            1 
  600000   0.99630084   -7.4877526    189.31364  0.026293561  0.026696558            2 
  601000    1.0467113   -7.4322195    189.88732  0.026329357  0.026676697            3 
  602000    1.0226739   -7.4426958     190.0188  0.026303821  0.026656864            2 
  603000    1.0047733   -7.4689185    189.85466  0.026237515  0.026636698            2 
  604000   0.99526321   -7.4398299    190.28015   0.02625278  0.026616604            3 
  605000    1.0306463   -7.4422902     190.7428  0.026273112  0.026596762            2 
  606000    1.0242322   -7.4534548    190.47852  0.026193416   0.02657673            3 
  607000    1.0073748   -7.4624623     190.6931  0.026179722  0.026556922            5 
  608000    1.0150502    -7.485855    191.12368  0.026195679     0.026537            1 
  609000   0.99503772   -7.4393925    191.68127  0.026228964  0.026517285            1 
  610000    1.0030487   -7.4640137    191.40173  0.026147778  0.026497605            1 
  611000    1.0087851   -7.4665578    192.13207  0.026204592  0.026478429            3 
  612000    1.0144018   -7.4414645    192.04108  0.026149384  0.026458842            1 
  613000    1.0154088   -7.4630439    192.28405  0.026139756  0.026439094            5 
  614000    1.0181665   -7.4709622    192.06071  0.026066872  0.026418962            1 
  615000    1.0228699   -7.4746663    192.24998  0.026050133  0.026399024            2 
  616000     1.027628   -7.4960194    191.91359  0.025962336  0.026378619            1 
  617000    1.0132338   -7.4859765    191.65081  0.025884766  0.026357988            2 
  618000    1.0053611   -7.4515211    192.49246  0.025956373  0.026337193            1 
  619000    1.0229137   -7.4919831    192.29024  0.025887216  0.026316206            2 
  620000    1.0159018   -7.4965496    192.43018  0.025864272   0.02629536            1 
  621000    1.0162246   -7.4794866    192.78866  0.025870728  0.026274762            4 
  622000    1.0052952   -7.4661231    192.89513  0.025843399  0.026254523            1 
  623000      1.03303   -7.4043678    193.66498  0.025904893  0.026234002            4 
  624000     1.007097   -7.4554032    193.54607  0.025847498  0.026213723            1 
  625000   0.99954964   -7.4693912    193.74436  0.025832581   0.02619313            2 
  626000    1.0144825   -7.4878416    193.43351  0.025749935  0.026172808            1 
  627000   0.99276268   -7.5186688    193.53297  0.025722086  0.026152126            3 
  628000     1.007706   -7.5158652    193.85755  0.025724197  0.026131213            2 
  629000    1.0110753   -7.4943145    193.87799  0.025686009  0.026110314            3 
  630000   0.99938609    -7.490708    194.57166  0.025736992  0.026089582            1 
  631000   0.98927678   -7.4770866     194.2413  0.025652575  0.026068709            1 
  632000    1.0032272   -7.5095879    194.38033  0.025630317  0.026047682            1 
  633000   0.99799031   -7.4732983    194.79868  0.025644902  0.026026745            1 
  634000    1.0027337   -7.4836157    194.98808  0.025629348  0.026006352            1 
  635000    1.0090977   -7.4798882    194.85561  0.025571602  0.025985788            3 
  636000   0.99490536   -7.4700642    195.32743  0.025593217    0.0259652            2 
  637000   0.98986649   -7.5246804    195.27225   0.02554582  0.025944882            2 
  638000    1.0010996   -7.4856731    195.88207  0.025585433  0.025924388            1 
  639000   0.99813643   -7.4567986    196.29984  0.025599875  0.025903972            1 
  640000   0.99935201   -7.4928701    196.00181  0.025521069    0.0258835            2 
  641000   0.99794048    -7.480821    195.94255   0.02547355  0.025863031            2 
  642000    1.0097444   -7.4976642     195.7613  0.025410345  0.025842459            2 
  643000   0.97632459   -7.5040357    196.67465  0.025489198  0.025822015            2 
  644000   0.98643692   -7.5176915    196.73464   0.02545738  0.025801923            4 
  645000    0.9924026   -7.4904358    196.92972  0.025443117  0.025781754            3 
  646000   0.99152173   -7.4986793    196.98301  0.025410605  0.025761685            1 
  647000   0.97579998   -7.4642211    197.76171  0.025471627  0.025741777            1 
  648000   0.99668212   -7.5030196    197.47319  0.025395214  0.025722045            2 
  649000   0.99089445    -7.540091    197.63796  0.025377242  0.025702291            2 
  650000   0.99818457   -7.5156217    197.96727  0.025380419  0.025682601            2 
  651000    0.9899669   -7.5148088    198.27903   0.02538134    0.0256629            3 
  652000   0.99542304   -7.4965327    198.96174   0.02542967  0.025643466            1 
  653000    1.0217576   -7.4852626    199.53222   0.02546353  0.025623881            2 
  654000    1.0004161   -7.5088714    198.49893  0.025292932  0.025604564            2 
  655000   0.98992347   -7.4662388    200.14864  0.025464203  0.025585587            1 
  656000    1.0096385   -7.4998841    199.84133  0.025386348  0.025566877            2 
  657000   0.99595619   -7.5141379     199.7373  0.025334513  0.025547895            1 
  658000   0.98822938    -7.523175    199.80191  0.025304194  0.025528744            1 
  659000   0.98996042   -7.5499827    199.80138  0.025265728  0.025509496            2 
  660000   0.99174544   -7.5025302     200.3895  0.025301705  0.025490334            1 
  661000    1.0107552   -7.5001442    200.95382  0.025334571  0.025471225            1 
  662000   0.95822964   -7.5001055     199.9833  0.025174131  0.025452148            2 
  663000   0.99276686   -7.5221797    200.71429  0.025228041  0.025433131            1 
  664000   0.99605125   -7.5104638    200.74936  0.025194448  0.025413994            2 
  665000   0.97880604   -7.4786637     201.4353  0.025242519  0.025394951            1 
  666000   0.99537866   -7.4989946    201.06186  0.025157891  0.025375953            3 
  667000     1.015471   -7.5157408    201.21398  0.025139177   0.02535686            3 
  668000    1.0140042   -7.5303594    201.03367  0.025079051  0.025337396            3 
  669000   0.97417818   -7.5493179    201.50878  0.025100745  0.025318219            2 
  670000   0.98401863   -7.5178344    201.99775  0.025124098  0.025299208            1 
  671000    1.0005021   -7.5548079    201.53361  0.025029013  0.025280068            1 
  672000   0.99270776   -7.5049083     202.2542  0.025081126    0.0252612            1 
  673000   0.98682094    -7.521985    202.08326  0.025022691  0.025242249            2 
  674000   0.96572442   -7.5473062    202.30893  0.025013467  0.025223277            2 
  675000   0.97588504   -7.5522999    202.64705  0.025018154  0.025204039            3 
  676000   0.98012956   -7.5526817    202.95118  0.025018637  0.025185063            1 
  677000   0.98532227   -7.5221881    202.61096  0.024939803  0.025165862            1 
  678000   0.97066877    -7.530876    203.33778  0.024992352  0.025146871            1 
  679000    1.0026575   -7.5235848    203.41557  0.024965092  0.025128083            3 
  680000    0.9749141   -7.4905424    204.31004  0.025037995  0.025109665            2 
  681000   0.97285785   -7.5334146    204.06682  0.024971466  0.025091299            3 
  682000   0.98323482   -7.5072221    204.55735  0.024994788  0.025073204            3 
  683000   0.98652504   -7.5415414    204.52318  0.024954024  0.025055361            2 
  684000   0.97412588   -7.5419454    204.67154  0.024935617  0.025037214            2 
  685000   0.97384994   -7.5779841    204.44708  0.024871907  0.025018979            2 
  686000   0.95986878   -7.5672176    205.16726  0.024923136  0.025000703            2 
  687000   0.97247555    -7.545114    205.20055  0.024890896  0.024982778            2 
  688000   0.98744404   -7.5386882    205.10108  0.024842669  0.024964857            1 
  689000   0.97692961    -7.529928    205.23807  0.024823182  0.024946624            1 
  690000   0.98499055   -7.5596392    205.66435   0.02483869  0.024928389            4 
  691000   0.99988466   -7.5427295    205.25381  0.024753233   0.02490985            3 
  692000   0.97060306   -7.5371008    206.20495  0.024832003  0.024891533            2 
  693000   0.97883156   -7.5500492    205.83537  0.024751729  0.024873229            1 
  694000    1.0005194   -7.5617472    206.31177  0.024773267  0.024854754            1 
  695000   0.98213329   -7.5498307    206.61991   0.02477457  0.024836368            1 
  696000   0.97390353   -7.5312549     206.5513  0.024730759  0.024818246            1 
  697000   0.96216121    -7.526917     206.5074  0.024690029  0.024800006            1 
  698000   0.98650841    -7.565738    206.47523  0.024650815  0.024781933            2 
  699000   0.97955414   -7.5641918    206.62797  0.024633759  0.024763384            2 
  700000   0.97053495   -7.5646312     207.2526  0.024672929  0.024744927            1 
  701000   0.97793726   -7.5616549    206.69781   0.02457178  0.024726711            3 
  702000    0.9808517   -7.5691361    207.08322  0.024582528  0.024708341            3 
  703000   0.97736907   -7.5252495    207.38188  0.024582963  0.024690132            2 
  704000    1.0104372   -7.5390655    207.70977  0.024586858  0.024671973            2 
  705000   0.96633514   -7.5492506    207.68883  0.024549507  0.024653672            2 
  706000    0.9598552   -7.5699884    207.34175  0.024473767   0.02463517            4 
  707000    0.9785744   -7.5496306    207.85625  0.024499794  0.024616734            1 
  708000   0.97245608   -7.5751069    207.94516  0.024475655  0.024598156            2 
  709000   0.95471391    -7.570374    208.05387  0.024453911  0.024579527            1 
  710000   0.96182362   -7.5597796    208.16688  0.024432733  0.024560809            1 
  711000   0.96760691    -7.567284    208.32523  0.024416928  0.024542262            2 
  712000   0.96725013   -7.5221466    208.76742   0.02443439  0.024523825            3 
  713000   0.97711707   -7.5808313    208.10662  0.024322887  0.024505526            1 
  714000   0.97883153   -7.5638936    208.70427  0.024358575  0.024487111            2 
  715000   0.96276416   -7.5859586     208.8633  0.024343042  0.024468694            1 
  716000   0.95306218   -7.5757595    209.12547  0.024339556  0.024450377            2 
  717000   0.96238015   -7.5191455    210.33626  0.024446335   0.02443237            2 
  718000   0.96927032     -7.55801    209.21712  0.024282395  0.024414247            1 
  719000   0.96584662   -7.5677192    209.72884  0.024307932  0.024395789            1 
  720000   0.97687356   -7.5596006    209.83472  0.024286425  0.024377033            2 
  721000   0.96315911   -7.5184556    209.95905  0.024267112  0.024358564            2 
  722000   0.97300932   -7.5809123     209.0523  0.024128843  0.024339764            1 
  723000    0.9659159   -7.5520611    209.25742  0.024119112   0.02432101            1 
  724000   0.94540426   -7.6013269     209.3496  0.024096409  0.024302297            1 
  725000   0.95852238   -7.5451217    210.13612  0.024153577  0.024283748            1 
  726000    0.9716719   -7.5755413      210.776  0.024193756  0.024265271            3 
  727000   0.95971217   -7.5832843    210.63034   0.02414378  0.024246841            1 
  728000   0.97052051   -7.6063286    209.72176  0.024006611  0.024227936            2 
  729000   0.95046268   -7.6099352    210.56855  0.024070479  0.024208828            3 
  730000   0.96018477   -7.5533412    210.76194  0.024059582  0.024189906            3 
  731000   0.94952228    -7.604992    210.73384  0.024023466  0.024171061            4 
  732000   0.95890108   -7.6124488    211.13607  0.024036438  0.024152182            2 
  733000   0.97178262   -7.5739508    210.18153  0.023895126   0.02413322            2 
  734000   0.95065063   -7.5745052    211.05565  0.023961813  0.024114474            3 
  735000   0.95947987   -7.5772282     211.6629  0.023998061  0.024095549            2 
  736000   0.98948549   -7.5365395    211.87913  0.023989937  0.024076874            2 
  737000   0.96873588   -7.6059911    211.49761  0.023914248  0.024058198            3 
  738000   0.96513233   -7.5575936    211.78797   0.02391463  0.024039667            1 
  739000    0.9607306   -7.5603399    212.17047  0.023925402  0.024021113            1 
  740000   0.97340545   -7.6018228     211.8503  0.023857016  0.024002398            2 
  741000   0.95780168   -7.5573161    211.82255    0.0238217  0.023983491            2 
  742000   0.96657727   -7.6386655    211.87226  0.023795178  0.023964575            2 
  743000   0.95691882   -7.5883863    212.58955  0.023843601   0.02394596            4 
  744000   0.96740547   -7.5683136    213.04727  0.023862821  0.023927519            6 
  745000   0.94928068   -7.5789327    212.78341  0.023801276  0.023909086            2 
  746000   0.93599342   -7.5755217    213.75903  0.023878354  0.023890719            4 
  747000    0.9433925   -7.6087389    213.13093   0.02377632  0.023872222            2 
  748000    0.9768682   -7.6310478    212.86351   0.02371474  0.023853533            1 
  749000   0.96703146   -7.6326468    212.92655  0.023690092  0.023834882            2 
  750000   0.96683542   -7.6337228    213.03963   0.02367107  0.023816117            2 
  751000   0.95621725   -7.5985558    213.28126  0.023666362  0.023797563            3 
  752000   0.97751916   -7.6141202    213.45543  0.023654192  0.023778954            3 
  753000   0.93326112   -7.6193666    213.66963  0.023646484  0.023760286            1 
  754000   0.96588657   -7.5773937    213.59237  0.023606584  0.023741644            1 
  755000   0.95805512   -7.6345716     213.7667  0.023594558  0.023722892            2 
  756000   0.93066126    -7.586246    214.39404    0.0236325  0.023704131            2 
  757000   0.94084615   -7.5812271    213.93586  0.023550843  0.023685429            3 
  758000   0.94714984    -7.592166    213.69899  0.023493733  0.023666673            3 
  759000   0.95836326   -7.6205939    214.21627  0.023519572  0.023647592            1 
  760000   0.94734981   -7.5982689    214.58298  0.023528836   0.02362864            2 
  761000   0.94902977   -7.6524616     213.6728  0.023398247  0.023609765            1 
  762000    0.9440891   -7.5782055    214.81213  0.023492141  0.023590751            2 
  763000   0.93537617   -7.6161586    214.28313  0.023403574  0.023571775            4 
  764000   0.93280687   -7.6588018    214.63199  0.023410994  0.023552752            2 
  765000   0.95394631   -7.6179641    214.77485  0.023395953  0.023533889            2 
  766000   0.97041272   -7.6235498    215.04641  0.023394953  0.023515172            2 
  767000   0.93557246   -7.6247655    214.68363  0.023325036  0.023496439            1 
  768000   0.94654636   -7.6612658    214.53234  0.023278248  0.023477569            1 
  769000   0.94754029   -7.6287204     215.5416  0.023357347  0.023458738            4 
  770000   0.92585021   -7.6059288    215.80639   0.02335567  0.023440118            4 
  771000   0.94491639   -7.6061976    216.12693  0.023360023  0.023421585            1 
  772000   0.95059298   -7.5928854    216.11016  0.023327953  0.023403183            3 
  773000   0.96209635   -7.6167157    216.11078  0.023297841  0.023384832            1 
  774000   0.94189846   -7.6046399    216.21787  0.023279271  0.023366467            2 
  775000    0.9501842   -7.6390084    216.35204  0.023263661  0.023348247            1 
  776000   0.92243223   -7.5956735    216.16548  0.023213647  0.023329964            2 
  777000   0.94479168   -7.6243105    216.92767  0.023265516  0.023311839            2 
  778000   0.95090692   -7.6008825    217.27003  0.023272283  0.023293772            2 
  779000   0.95809944   -7.6120511    217.56222  0.023273665  0.023275819            3 
  780000   0.92571161   -7.6171493    218.38376  0.023331598  0.023257976            2 
  781000     0.951019   -7.5867565    217.59638   0.02321771      0.02324            1 
  782000    0.9318662   -7.6678705    217.01705  0.023126284   0.02322188            2 
  783000   0.94623186   -7.6748937    217.87446  0.023188001   0.02320389            3 
  784000   0.94086256   -7.6180377    217.36834  0.023104628  0.023185908            5 
  785000   0.93913944    -7.625198    218.04379  0.023146899  0.023168093            1 
  786000   0.91940744   -7.6274483    217.93423  0.023105835  0.023150204            2 
  787000   0.92174108   -7.6489269    217.93382  0.023076432  0.023132221            1 
  788000   0.91868614   -7.5880961    218.48846  0.023105801  0.023114269            2 
  789000   0.94244726   -7.6389373    218.90793  0.023120821  0.023096441            2 
  790000   0.95204499   -7.6268618    218.66086  0.023065492  0.023078492            1 
  791000   0.94577162   -7.6069347     218.9629  0.023068153  0.023060416            2 
  792000   0.97456193   -7.6529021    218.23319  0.022962246  0.023042381            2 
  793000   0.93331912    -7.630545    218.83386  0.022996413  0.023024163            2 
  794000   0.92521473   -7.6374497    218.50294  0.022932719  0.023005992            2 
  795000   0.94105902    -7.636088    218.86441  0.022941762  0.022987735            2 
  796000   0.95156708   -7.6437147    218.74235  0.022900162  0.022969545            4 
  797000   0.93223533   -7.6411358     218.9518  0.022893329  0.022951454            2 
  798000   0.93700939   -7.6779713    218.18314  0.022784371  0.022932972            2 
  799000   0.92748009   -7.6844546     218.9021  0.022830841  0.022914606            1 
  800000    0.9433981   -7.6929667    219.38192  0.022852284  0.022896478            2 
  801000     0.912516   -7.6467184    219.72932  0.022859896  0.022878508            2 
  802000   0.93034273   -7.6440557     220.0176  0.022861346  0.022860601            1 
  803000   0.92959712   -7.6700181    220.12077  0.022843583  0.022843002            2 
  804000   0.94785075   -7.6469014    220.55767  0.022860455   0.02282532            1 
  805000   0.94071565   -7.6373783    220.40304   0.02281605  0.022807708            1 
  806000   0.92866697    -7.655286    220.86321   0.02283532  0.022790259            1 
  807000    0.9407803   -7.6444854    221.30766  0.022852918  0.022772764            2 
  808000   0.92901129   -7.6551039    220.80843  0.022773146  0.022755405            2 
[...]
 1800000   0.53578476   -8.6342073    253.83521   0.01175163  0.010341025            2 
 1801000   0.53183779   -8.6165381    253.69495  0.011738615  0.010332313            2 
 1802000   0.53215669   -8.6300628    253.92012  0.011742514  0.010323615            2 
 1803000   0.52855952   -8.6271411    253.85832  0.011733145  0.010314917            2 
 1804000   0.52539713   -8.6228114    253.87247  0.011727294   0.01030623            1 
 1805000    0.5314364   -8.6151563    254.13387  0.011732866  0.010297549            3 
 1806000    0.5267713   -8.6519741    253.49998   0.01169712  0.010288869            1 
 1807000    0.5287272   -8.6413235    253.74134  0.011701777  0.010280197            2 
 1808000   0.52915854   -8.6240121    253.89892  0.011702568  0.010271535            1 
 1809000   0.53873632   -8.6346752    253.62629   0.01168354  0.010262878            2 
 1810000   0.53642667   -8.6425792    254.00376  0.011694464  0.010254236            2 
 1811000   0.53070876   -8.6359108    253.94378  0.011685246  0.010245595            4 
 1812000   0.51863816   -8.6333518    253.48586  0.011657738  0.010236974            4 
 1813000   0.53703673   -8.6455109    253.22664  0.011639393  0.010228349            4 
 1814000   0.52705852   -8.6376737     253.6703  0.011653358  0.010219727            4 
 1815000   0.53553898   -8.6595985    253.57703  0.011642655  0.010211115            4 
 1816000    0.5247288   -8.6421989    253.62349  0.011638376  0.010202502            3 
 1817000   0.52822304   -8.6336441    253.97104   0.01164791   0.01019391            7 
 1818000   0.52074527   -8.6345891    253.29006  0.011610289  0.010185334            3 
 1819000   0.52457929   -8.6650912    253.51547  0.011614232  0.010176763            3 
 1820000   0.51286863    -8.653709    253.69293  0.011615977  0.010168195            2 
 1821000   0.52920195   -8.6469489    253.62761  0.011606608  0.010159636            2 
 1822000    0.5366314    -8.648684     253.5823  0.011598166  0.010151095            3 
 1823000    0.5290791   -8.6394904    253.81156  0.011602284  0.010142558            1 
 1824000   0.53861945    -8.657779    254.08879  0.011608589  0.010134037            2 
 1825000   0.52037136   -8.6443932    253.86072  0.011591814  0.010125516            2 
 1826000   0.53532057   -8.6280254    253.57162  0.011572272  0.010117008            3 
 1827000   0.54073744   -8.6444371    254.00608  0.011585755  0.010108505            1 
 1828000    0.5270282   -8.6448787    253.97621  0.011578055  0.010100015            2 
 1829000   0.53264368   -8.6431459    253.65852   0.01155725  0.010091533            3 
 1830000   0.53690349   -8.6533719    253.61297   0.01154886  0.010083058            2 
 1831000   0.51836548   -8.6387825    253.63681  0.011543638  0.010074583            1 
 1832000   0.52869715   -8.6544108    253.41986  0.011527468  0.010066117            3 
 1833000   0.51694069   -8.6437279    253.57812  0.011528374  0.010057656            1 
 1834000   0.51681807   -8.6321075    253.13807  0.011502093  0.010049215            1 
 1835000   0.51886058    -8.646704    253.29361  0.011502889  0.010040774            1 
 1836000   0.51963015   -8.6493401      253.771  0.011518291  0.010032345            4 
 1837000   0.52030188   -8.6432747    253.61851  0.011505104  0.010023928            3 
 1838000   0.52993643   -8.6677363    253.68271  0.011501755  0.010015529            3 
 1839000   0.52523066   -8.6485136    253.68053  0.011495402  0.010007134            3 
 1840000    0.5174652    -8.650368    253.36206  0.011474731 0.0099987482            2 
 1841000   0.52022873   -8.6618439    253.40046  0.011470236 0.0099903699            1 
 1842000   0.52380676   -8.6760547    253.54056  0.011470347 0.0099820007            2 
 1843000   0.52487004    -8.664812    253.24331  0.011450683  0.009973628            3 
 1844000   0.50913255   -8.6698873    252.53106  0.011412286 0.0099652681            2 
 1845000   0.50502448   -8.6563354    253.35971  0.011443528 0.0099569092            2 
 1846000     0.525434   -8.6766711    253.17819  0.011429135 0.0099485639            1 
 1847000   0.52077098   -8.6400726    253.26155  0.011426708 0.0099402276            3 
 1848000   0.52447101   -8.6533322    253.09523  0.011413024 0.0099319068            4 
 1849000   0.51759766   -8.6713653    253.21651  0.011412318 0.0099235909            4 
 1850000   0.51189107   -8.6789179    253.17065  0.011404083 0.0099152747            2 
 1851000   0.52063446   -8.6612965    253.56845  0.011415831 0.0099069815            2 
 1852000   0.52297043   -8.6643353    253.48831  0.011406062 0.0098986887            4 
 1853000   0.52535292   -8.6680725    253.33589  0.011393052 0.0098904004            7 
 1854000   0.51077461   -8.6678945    253.38951  0.011389316 0.0098821242            2 
 1855000   0.51194443   -8.6760853     252.9324  0.011362642 0.0098738471            2 
 1856000   0.50876667   -8.6850077    253.33785  0.011374724 0.0098655845            2 
 1857000   0.51102828   -8.6598156    253.29226  0.011366553 0.0098573322            2 
 1858000   0.49792527   -8.6852365    253.37704  0.011364238 0.0098490747            2 
 1859000   0.51133775   -8.6828289    253.39506  0.011358932 0.0098408246            3 
 1860000    0.5112406   -8.6747832    253.24866  0.011346266 0.0098325875            3 
 1861000   0.50393883   -8.6732239     252.9974  0.011328918  0.009824361            3 
 1862000   0.50938547   -8.6656184     253.3048  0.011336592  0.009816146            2 
 1863000   0.52324977   -8.6907173    253.33394   0.01133181 0.0098079277            2 
 1864000   0.49762411   -8.6739609    253.16856  0.011318337 0.0097997207            3 
 1865000   0.51515852   -8.6676686    253.16614   0.01131216 0.0097915231            3 
 1866000   0.50807681   -8.6797087    253.20531  0.011307847 0.0097833382            2 
 1867000   0.50543366   -8.6871864    253.01997  0.011293518  0.009775157            1 
 1868000   0.51264514   -8.6882958    253.44331  0.011306357 0.0097669871            2 
 1869000   0.50867255   -8.6856299     253.2003  0.011289473 0.0097588295            1 
 1870000   0.49969499   -8.6658725    253.13545  0.011280546 0.0097506805            3 
 1871000   0.51024675   -8.6735443    253.40729  0.011286624 0.0097425315            3 
 1872000   0.50098212    -8.685287    253.58404  0.011288463 0.0097343985            1 
 1873000   0.51185828    -8.685867     252.9723  0.011255219 0.0097262785            2 
 1874000   0.49904988   -8.6755321     252.9669  0.011248973  0.009718154            3 
 1875000   0.50441455   -8.6886783    253.33046  0.011259132 0.0097100417            2 
 1876000   0.49502941   -8.6766914     253.0823  0.011242106 0.0097019368            3 
 1877000   0.50895608   -8.6751782    252.88816  0.011227498 0.0096938499            2 
 1878000   0.49712432   -8.6942989    252.92987   0.01122337 0.0096857551            2 
 1879000   0.49571631    -8.663855    253.12981  0.011226264 0.0096776659            3 
 1880000   0.50120684   -8.6945274    252.96628  0.011213045 0.0096695863            3 
 1881000   0.50366328   -8.6728909    253.07376  0.011211845 0.0096615176            2 
 1882000   0.49581891   -8.6927569    253.07695  0.011206029 0.0096534502            3 
 1883000   0.50776612   -8.6946408    253.53772  0.011220469 0.0096454094            1 
 1884000   0.50717712   -8.6941701    253.03061  0.011192083 0.0096373665            3 
 1885000   0.50431977   -8.6961991    252.96745  0.011183353 0.0096293319            2 
 1886000   0.49254876   -8.6734414    253.00818  0.011179223 0.0096213041            1 
 1887000   0.49845215   -8.6880998    253.15483  0.011179775 0.0096132831            2 
 1888000   0.49832309   -8.6994802    253.47137  0.011187825  0.009605276            2 
 1889000   0.50596623    -8.686315    253.05299  0.011163446 0.0095972683            4 
 1890000   0.49795452   -8.6897632    252.87727  0.011149791   0.00958928            3 
 1891000   0.50733441   -8.6953131    252.65486  0.011134094 0.0095812907            4 
 1892000   0.50770002   -8.6828024    252.96621  0.011141922 0.0095733286            3 
 1893000   0.48707641   -8.6905144    252.67705  0.011123307 0.0095653563            2 
 1894000    0.5075461   -8.6897967    253.37717  0.011148239 0.0095574006            2 
 1895000   0.49478275   -8.6891179    252.63447  0.011109695 0.0095494494            4 
 1896000   0.48920066   -8.6885949    252.93632  0.011117103 0.0095415023            1 
 1897000    0.4903376    -8.685514     252.6641  0.011099284 0.0095335603            1 
 1898000   0.48982171   -8.6928881    252.96128  0.011106484 0.0095256363            2 
 1899000   0.50236318   -8.6736611     253.2622  0.011113841 0.0095177216            5 
 1900000    0.4893936   -8.6859932    252.84552  0.011089716 0.0095098109            2 
 1901000    0.4823304   -8.7143715    253.07904  0.011094119 0.0095019072            2 
 1902000   0.49677904    -8.694265    253.10444  0.011089399 0.0094940122            2 
 1903000   0.50570816   -8.6907043    252.62137  0.011062418 0.0094861268            4 
 1904000   0.49517468   -8.6688266    252.69164  0.011059683  0.009478253            2 
 1905000   0.49160762   -8.6984141    252.60748  0.011050196 0.0094703807            2 
 1906000   0.48522822   -8.7170561    252.65702  0.011046564 0.0094625236            3 
 1907000   0.49867542   -8.7091558    253.04636  0.011057785 0.0094546624            3 
 1908000   0.48662078   -8.7020972    252.43116  0.011025121 0.0094468114            4 
 1909000   0.47920872   -8.7092372    252.95254  0.011042105 0.0094389735            3 
 1910000   0.49218449   -8.6982527    253.45395    0.0110582 0.0094311347            2 
 1911000   0.49281015   -8.7003319    252.90893  0.011028647 0.0094233087            2 
 1912000   0.47928338   -8.7231384    252.79622  0.011017966 0.0094154888            1 
 1913000   0.50004664   -8.7040709    252.84454  0.011014312 0.0094076795            2 
 1914000   0.49277058   -8.7033069    253.04448  0.011017262 0.0093998863            2 
 1915000   0.49803497   -8.6987171    253.02956   0.01101086 0.0093920974            2 
 1916000   0.47554217   -8.6938968    253.13459  0.011009681  0.009384316            1 
 1917000   0.49247023   -8.7220924    252.91376  0.010994339 0.0093765422            2 
 1918000   0.48457951   -8.7015962     252.5836  0.010974261 0.0093687819            2 
 1919000   0.48569005   -8.7065761    252.51512  0.010965569 0.0093610219            1 
 1920000    0.4936103   -8.7038294     252.6547  0.010965916 0.0093532669            2 
 1921000   0.47259054   -8.7005619    253.01758  0.010975949 0.0093455199            2 
 1922000   0.47487009   -8.7072972    252.87363  0.010963997 0.0093377946            2 
 1923000   0.48298877   -8.7107019    252.68861  0.010950278 0.0093300692            2 
 1924000   0.48574993   -8.7018656    252.99334  0.010957785 0.0093223506            1 
 1925000   0.48373407   -8.7189156    252.64304  0.010936928 0.0093146409            2 
 1926000   0.49667479   -8.7007065    252.52599  0.010926185 0.0093069383            3 
 1927000   0.48398006   -8.7126984     252.7649  0.010930847 0.0092992433            3 
 1928000   0.47963023   -8.7031368     252.7866  0.010926115 0.0092915507            2 
 1929000   0.49494422   -8.7135868    252.54786  0.010910138 0.0092838747            4 
 1930000   0.47607918   -8.7254413    252.94336  0.010921561 0.0092762056            1 
 1931000   0.47926137   -8.7227692    252.72813  0.010906617 0.0092685474            4 
 1932000   0.48904963   -8.7216996    252.87022    0.0109071 0.0092608968            2 
 1933000   0.46947477   -8.7117942    252.98632  0.010906463 0.0092532573            2 
 1934000   0.47020563   -8.7223049    253.14143  0.010907507 0.0092456249            2 
 1935000   0.48632491    -8.703773    252.75429  0.010885197 0.0092379854            2 
 1936000   0.47185646   -8.7073047    252.41022  0.010864765 0.0092303706            2 
 1937000   0.47624608   -8.7114767    252.96305   0.01088294 0.0092227593            2 
 1938000   0.48346007   -8.7204577    252.62752  0.010862896 0.0092151489            2 
 1939000   0.47995958   -8.7243434    252.68327   0.01085969 0.0092075495            2 
 1940000   0.48524048   -8.7115321    252.24932  0.010835452 0.0091999562            2 
 1941000   0.47560038   -8.7210628    252.50365  0.010840789 0.0091923708            2 
 1942000    0.4741423    -8.720854    252.75316  0.010845913 0.0091848029            2 
 1943000   0.47317417   -8.7439735    252.62083  0.010834655 0.0091772349            1 
 1944000   0.47978178   -8.7172543    252.68753  0.010831941 0.0091696782            2 
 1945000   0.47907014   -8.7179645     252.7323   0.01082829 0.0091621302            1 
 1946000   0.48465537   -8.7025166    252.85886  0.010828146 0.0091545917            2 
 1947000   0.47737531   -8.7106185    252.55499  0.010809579 0.0091470691            1 
 1948000   0.47588302   -8.7024997    252.53504  0.010803176 0.0091395466            2 
 1949000   0.46538704   -8.7191269    252.43552  0.010793378 0.0091320406            1 
 1950000   0.47196371   -8.7395361    252.57461  0.010793787 0.0091245294            2 
 1951000   0.47998638   -8.7211268    252.43443  0.010782267 0.0091170198            2 
 1952000   0.46737106   -8.7319332    252.78811  0.010791842 0.0091095234            2 
 1953000   0.47216669   -8.7291744    252.45699  0.010772188 0.0091020304            1 
 1954000   0.47939559    -8.725548    252.25099  0.010757889 0.0090945495            2 
 1955000   0.46414633   -8.7423805    252.10723  0.010746259 0.0090870722            1 
 1956000   0.46642911   -8.7454096    252.70908  0.010766406 0.0090795966            2 
 1957000   0.48376104    -8.727072    252.47282  0.010750844 0.0090721321            1 
 1958000   0.47055662   -8.7208995    252.70096  0.010755063 0.0090646909            2 
 1959000   0.46328629   -8.7342929    252.45947    0.0107393 0.0090572493            1 
 1960000   0.47040729   -8.7484936    252.47636  0.010734539 0.0090498129            1 
 1961000   0.47153637   -8.7427622    252.38501  0.010725183 0.0090423885            2 
 1962000   0.46626546    -8.733953    252.70741   0.01073341 0.0090349662            1 
 1963000   0.46427389   -8.7379386    252.34317   0.01071248  0.009027546            2 
 1964000    0.4721608   -8.7319708    252.62092   0.01071881 0.0090201392            2 
 1965000   0.46625253   -8.7455845    252.35956  0.010702271  0.009012741            3 
 1966000   0.46687553   -8.7338903    252.35705  0.010696722 0.0090053521            2 
 1967000   0.47564614   -8.7384718    252.93499  0.010715768 0.0089979684            1 
 1968000   0.46593164   -8.7409289    252.56436  0.010694629 0.0089905927            2 
 1969000   0.47386094    -8.735114    252.10509   0.01066976 0.0089832241            1 
 1970000   0.46426009   -8.7442799    252.75241  0.010691726  0.008975861            1 
 1971000   0.46771827   -8.7362173    252.07549  0.010657682 0.0089685071            2 
 1972000     0.466904   -8.7492177    252.61481  0.010675068 0.0089611647            2 
 1973000   0.47373912   -8.7341135    252.28222   0.01065561 0.0089538315            1 
 1974000   0.46083654    -8.731356    252.69085  0.010667463 0.0089465052            1 
 1975000   0.46138211   -8.7379964    252.34346  0.010647403 0.0089391847            1 
 1976000    0.4675536   -8.7374547    253.01006  0.010670128 0.0089318706            2 
 1977000   0.46570305    -8.732124    252.43311  0.010640411 0.0089245686            1 
 1978000   0.45096619   -8.7389377    252.04474   0.01061867 0.0089172711            1 
 1979000   0.46610807   -8.7487222    252.29375  0.010623789 0.0089099803            2 
 1980000   0.47375191   -8.7441808    252.41923  0.010623705 0.0089026911            2 
 1981000   0.46621497    -8.742721     252.1349  0.010606381 0.0088954124            3 
 1982000   0.46321992   -8.7446472    252.31126  0.010608445 0.0088881353            2 
 1983000   0.45896643   -8.7577374    252.64223  0.010617004 0.0088808648            2 
 1984000   0.45642985    -8.747419    251.87015  0.010579223 0.0088736036            3 
 1985000   0.45656059   -8.7491741    252.16778  0.010586389 0.0088663491            3 
 1986000   0.45017928   -8.7400105    252.38805  0.010590301 0.0088590983            2 
 1987000   0.45581812   -8.7452283    252.32151   0.01058218 0.0088518618            2 
 1988000   0.46873342   -8.7584996    252.26846  0.010574634 0.0088446285            2 
 1989000   0.46066271   -8.7433268    251.94959  0.010555957 0.0088374051            2 
 1990000   0.45724284    -8.747697    252.51307  0.010574249 0.0088301916            1 
 1991000   0.45410199   -8.7525679    252.45964  0.010566702 0.0088229831            2 
 1992000   0.45675785   -8.7468595    252.03232  0.010543521 0.0088157823            1 
 1993000   0.45658487   -8.7441881    252.31453   0.01055003 0.0088085961            2 
 1994000   0.45632556    -8.753812    252.44881  0.010550351 0.0088014191            1 
 1995000   0.44639377   -8.7458483    252.29086  0.010538465 0.0087942457            2 
 1996000   0.45999137   -8.7584538    252.52081  0.010542786 0.0087870784            1 
 1997000   0.44533826   -8.7403439    252.49171  0.010536292  0.008779912            4 
 1998000   0.45553294   -8.7590635     252.3044  0.010523206  0.008772754            1 
 1999000   0.45742554   -8.7536312    252.40491  0.010522132 0.0087656032            2 
 2000000   0.45484543   -8.7502497    252.30609  0.010512754 0.0087584675            2 
 2001000   0.45402643   -8.7442446    251.99891  0.010494707 0.0087513358            2 
 2002000   0.45512571   -8.7646465    252.50981  0.010510731 0.0087442156            1 
 2003000   0.44404992   -8.7602434    252.14939  0.010490489  0.008737103            2 
 2004000   0.45258386   -8.7603713    251.67141  0.010465378 0.0087299943            2 
 2005000   0.45240222   -8.7677652    252.26068   0.01048465 0.0087228898            3 
 2006000   0.44256997    -8.752172    252.32591  0.010482133 0.0087157916            2 
 2007000   0.45130723   -8.7591332    251.99072  0.010462993 0.0087087048            2 
 2008000   0.45531146   -8.7559175    252.12025  0.010463158 0.0087016271            3 
 2009000   0.45895719   -8.7546577    251.88547  0.010448211 0.0086945511            2 
 2010000   0.45080537   -8.7646216    252.30449  0.010460385 0.0086874853            2 
 2011000   0.44563541   -8.7765017    251.62514  0.010427032 0.0086804284            2 
 2012000   0.44063216   -8.7578515      251.984  0.010436713 0.0086733697            2 
Loop time of 4862.87 on 48 procs for 2000000 steps with 4000 atoms

Performance: 71069.195 tau/day, 411.280 timesteps/s
99.4% CPU use with 48 MPI tasks x no OpenMP threads

MPI task timing breakdown:
Section |  min time  |  avg time  |  max time  |%varavg| %total
---------------------------------------------------------------
Pair    | 314.71     | 328.54     | 344.37     |  44.7 |  6.76
Neigh   | 32.059     | 33.066     | 34.28      |  10.2 |  0.68
Comm    | 314.33     | 332.21     | 347.04     |  50.3 |  6.83
Output  | 4.148      | 4.15       | 4.1871     |   0.3 |  0.09
Modify  | 4110.3     | 4118.1     | 4127.6     |   5.9 | 84.68
Other   |            | 46.79      |            |       |  0.96

Nlocal:        83.3333 ave          93 max          77 min
Histogram: 1 11 6 7 4 10 4 2 2 1
Nghost:        2088.12 ave        2107 max        2060 min
Histogram: 1 1 2 2 6 11 12 6 3 4
Neighs:        13647.7 ave       16025 max       12308 min
Histogram: 2 9 8 12 6 6 3 1 0 1
FullNghs:      27294.4 ave       30736 max       25220 min
Histogram: 3 10 8 5 12 2 2 4 1 1

Total # of neighbors = 1310130
Ave neighs/atom = 327.53250
Neighbor list builds = 107039
Dangerous builds = 0

#clear
#
#next RN
#
#jump SELF
Total wall time: 1:21:06
