
units lj                  # Use reduced LJ style units
atom_style atomic         # Uncharged point particles
atom_modify map hash      # Needed for indexing of clusters etc
                          # Used to be able to find where atoms are in relation to each other.

# Define a lattice with which to populate the simulation cell. With units
# set to 'lj' the second argument to the lattice command is the reduced
# density rho* and the spacings are multiples of that required to acheive
# that density. Also define a simulation cell called 'box' in lattice units
# and fill it with atoms. Here we're creating a box which is ten lattice
# constants in each direction.
lattice fcc 1.0 spacing 1 1 1                 # All equal sizes - gives the right reduced density.
Lattice spacing in x,y,z = 1.5874011 1.5874011 1.5874011

region box block 0 10 0 10 0 10 units lattice # Defines a region, "box", in lattice units
create_box 1 box                              # Creates a simulation box as specified above,
Created orthogonal box = (0.0000000 0.0000000 0.0000000) to (15.874011 15.874011 15.874011)
  2 by 3 by 4 MPI processor grid
                                              # with one type of atom
create_atoms 1 box                            # Creates particles on lattice points
Created 4000 atoms
  using lattice units in orthogonal box = (0.0000000 0.0000000 0.0000000) to (15.874011 15.874011 15.874011)
  create_atoms CPU = 0.002 seconds


# Set the mass of the first (and only) atom type.
mass 1 1.0

# Lennard-Jones interactions between particles, 3.5 sigma cut-off. Apply
# long range tail corrections to energy and pressure and set all coefficients
# to unity since we work in reduced units here. Note that this doesn't shift
# the potential such that it goes to zero at the cutoff. That would require
# pair_modify('shift', 'yes').
pair_style lj/cut  3.5      # non-GPU version
pair_modify tail  yes
pair_coeff 1  1  1.0  1.0   # Intearaction between 1 and 1 set with epsilon = 1 and sigma = 1

write_data data.*
System init for write_data ...
Neighbor list info ...
  update every 1 steps, delay 10 steps, check yes
  max neighbors/atom: 2000, page size: 100000
  master list distance cutoff = 3.8
  ghost atom cutoff = 3.8
  binsize = 1.9, bins = 9 9 9
  1 neighbor lists, perpetual/occasional/extra = 1 0 0
  (1) pair lj/cut, perpetual
      attributes: half, newton on
      pair build: half/bin/atomonly/newton
      stencil: half/bin/3d
      bin: standard

#############################
#   M E L T   S Y S T E M   #
#############################

velocity all create 2.4 1741580 mom yes dist gaussian # Assign velocities
                                                    # Temperature 2.4, random number seed, zero linear momentum
						                                                        # Gaussian distribution

timestep 0.002   # simulation timestep
thermo 100       # output thermodynamic data every 100 steps

# Define a fix  in this case with index 1 applied to all
# particles in the simulation. This fix is for simulations
# in the anisotropic NPT ensemble. Note that we use the MTK
# correction.
fix 1 all npt temp 2.4 2.4 0.1 iso 5.68 5.68 0.5 mtk yes tchain 5 pchain 5 # Use NPT ensemble
                                                                         # Set temperature and pressure and damping
                                                                         # Numbers of thermostats in chain and in barostat
run 1000         # run for 10000 steps
Per MPI rank memory allocation (min/avg/max) = 3.676 | 3.679 | 3.684 Mbytes
Step Temp E_pair E_mol TotEng Press Volume 
       0          2.4   -8.3859253            0   -4.7868253   -2.2405722         4000 
     100    1.2552531   -6.5115672            0   -4.6291582     5.497081    4088.0579 
     200    1.4628633    -6.289567            0   -4.0958206    6.0903972    4138.0466 
     300    1.5904925   -6.0345783            0   -3.6494359    5.7376042    4272.4771 
     400    1.6850752   -5.7072351            0   -3.1802542    5.9705826    4399.2373 
     500    1.7895599   -5.4225046            0   -2.7388358     5.865757    4546.8704 
     600    1.8965854   -5.1442855            0   -2.3001186     5.865539    4691.2751 
     700    2.0304439     -4.92263            0   -1.8777256    5.8141752    4830.4151 
     800    2.1710171   -4.7567122            0   -1.5010006    5.6106115    4968.6247 
     900    2.2247838   -4.5230698            0   -1.1867284    5.8051376    5086.8715 
    1000     2.364264   -4.4348938            0  -0.88938446    5.9115751    5144.0032 
Loop time of 0.319175 on 24 procs for 1000 steps with 4000 atoms

Performance: 541395.560 tau/day, 3133.076 timesteps/s
99.5% CPU use with 24 MPI tasks x no OpenMP threads

MPI task timing breakdown:
Section |  min time  |  avg time  |  max time  |%varavg| %total
---------------------------------------------------------------
Pair    | 0.1801     | 0.18616    | 0.19642    |   1.1 | 58.33
Neigh   | 0.033766   | 0.035333   | 0.037274   |   0.5 | 11.07
Comm    | 0.062972   | 0.073308   | 0.080428   |   1.9 | 22.97
Output  | 0.0002027  | 0.000209   | 0.00027849 |   0.0 |  0.07
Modify  | 0.018958   | 0.021957   | 0.024366   |   1.2 |  6.88
Other   |            | 0.002206   |            |       |  0.69

Nlocal:        166.667 ave         176 max         152 min
Histogram: 1 0 2 0 3 4 6 4 3 1
Nghost:        1840.88 ave        1857 max        1826 min
Histogram: 3 1 3 4 1 2 4 4 0 2
Neighs:        14784.9 ave       15702 max       13755 min
Histogram: 2 1 1 5 1 3 5 0 4 2

Total # of neighbors = 354837
Ave neighs/atom = 88.709250
Neighbor list builds = 86
Dangerous builds = 16

# Equilibrate just above the melting temperature to avoid step fn in T

fix 1 all npt temp 1.25 1.25 0.1 iso 5.68 5.68 0.5 mtk yes tchain 5 pchain 5
run 1000
Per MPI rank memory allocation (min/avg/max) = 3.677 | 3.680 | 3.685 Mbytes
Step Temp E_pair E_mol TotEng Press Volume 
    1000     2.364264   -4.4348938            0  -0.88938446    5.9115751    5144.0032 
    1100    1.9499649   -4.6617779            0   -1.7375618    5.8205171    4978.7844 
    1200    1.7213197   -4.9482774            0   -2.3669434    5.7402188    4808.4294 
    1300    1.5721809   -5.1954201            0   -2.8377383    5.7003773    4667.9329 
    1400    1.4692769   -5.4052033            0   -3.2018389    5.6740098     4560.708 
    1500    1.3897296   -5.5637068            0   -3.4796336    5.6667574    4476.2103 
    1600    1.2963572   -5.6470084            0   -3.7029588    5.6441736    4434.9383 
    1700    1.2716936   -5.7363737            0   -3.8293102    5.7159049    4387.6158 
    1800    1.2561313   -5.8008832            0   -3.9171572    5.6027564    4366.0004 
    1900     1.242552   -5.8327759            0   -3.9694139    5.6800198    4347.3872 
    2000    1.2686809   -5.8614487            0   -3.9589031    5.5394068    4347.1855 
Loop time of 0.311487 on 24 procs for 1000 steps with 4000 atoms

Performance: 554758.656 tau/day, 3210.409 timesteps/s
99.7% CPU use with 24 MPI tasks x no OpenMP threads

MPI task timing breakdown:
Section |  min time  |  avg time  |  max time  |%varavg| %total
---------------------------------------------------------------
Pair    | 0.18073    | 0.18497    | 0.19327    |   0.8 | 59.38
Neigh   | 0.030645   | 0.03129    | 0.032744   |   0.3 | 10.05
Comm    | 0.06212    | 0.071222   | 0.076195   |   1.5 | 22.87
Output  | 0.00021021 | 0.00021514 | 0.00028028 |   0.0 |  0.07
Modify  | 0.019863   | 0.021331   | 0.023491   |   0.7 |  6.85
Other   |            | 0.002456   |            |       |  0.79

Nlocal:        166.667 ave         176 max         159 min
Histogram: 1 1 7 1 4 5 1 3 0 1
Nghost:        2035.25 ave        2048 max        2013 min
Histogram: 1 0 2 0 4 2 5 1 6 3
Neighs:        17526.7 ave       18387 max       16728 min
Histogram: 3 2 3 3 2 3 1 2 2 3

Total # of neighbors = 420641
Ave neighs/atom = 105.16025
Neighbor list builds = 76
Dangerous builds = 5


# Small amount of linear quench

fix 1 all npt temp 1.25 ${temp} 0.1 iso 5.68 5.68 0.5 mtk yes tchain 5 pchain 5
fix 1 all npt temp 1.25 2.22 0.1 iso 5.68 5.68 0.5 mtk yes tchain 5 pchain 5
run 2000
Per MPI rank memory allocation (min/avg/max) = 3.677 | 3.680 | 3.685 Mbytes
Step Temp E_pair E_mol TotEng Press Volume 
    2000    1.2686809   -5.8614487            0   -3.9589031    5.5394068    4347.1855 
    2100    1.2793301   -5.8107006            0   -3.8921851    5.7106258    4353.7489 
    2200    1.3069923    -5.781818            0   -3.8218197    5.6476139    4376.9407 
    2300     1.340747   -5.7241627            0   -3.7135449    5.5871734    4410.8932 
    2400    1.3948351   -5.6497004            0   -3.5579709    5.7735031    4426.8437 
    2500    1.4236156   -5.5770296            0   -3.4421402    5.6562289    4475.5217 
    2600    1.4698917   -5.4982061            0   -3.2939198    5.8311352    4498.4714 
    2700    1.5393064   -5.4411211            0   -3.1327388    5.9431986    4516.9458 
    2800    1.5868894   -5.3769111            0    -2.997172    5.9189195    4556.7671 
    2900    1.6345859   -5.3291252            0   -2.8778594     5.635078    4609.0418 
    3000    1.6643564   -5.2565292            0   -2.7606187    5.5280023    4659.1767 
    3100    1.6889351   -5.1531066            0   -2.6203373    5.5764263    4711.2675 
    3200    1.8105894   -5.1442832            0   -2.4290781    5.6028591    4721.6168 
    3300     1.845483   -5.0905412            0   -2.3230087    5.4447192    4772.7845 
    3400    1.9133121   -5.0362536            0   -2.1670029    5.5090872    4799.3568 
    3500    1.9215203   -4.9277641            0   -2.0462042    5.5897527    4852.3662 
    3600    1.9652517   -4.8453122            0   -1.8981715    5.7292833    4881.0029 
    3700    2.0597901   -4.8361443            0   -1.7472315    5.7067547    4900.9627 
    3800     2.086329    -4.784116            0   -1.6554049    5.4851614    4965.9398 
    3900    2.0984955   -4.6886497            0   -1.5416934    5.5370912    5019.0493 
    4000    2.1603828   -4.5767002            0   -1.3369362    5.9480279    5026.3741 
Loop time of 0.615457 on 24 procs for 2000 steps with 4000 atoms

Performance: 561533.513 tau/day, 3249.615 timesteps/s
99.8% CPU use with 24 MPI tasks x no OpenMP threads

MPI task timing breakdown:
Section |  min time  |  avg time  |  max time  |%varavg| %total
---------------------------------------------------------------
Pair    | 0.34826    | 0.36285    | 0.37621    |   0.9 | 58.96
Neigh   | 0.06176    | 0.063705   | 0.066566   |   0.4 | 10.35
Comm    | 0.1257     | 0.1411     | 0.15452    |   1.8 | 22.93
Output  | 0.00041407 | 0.00042699 | 0.00056742 |   0.0 |  0.07
Modify  | 0.04003    | 0.042524   | 0.046589   |   1.0 |  6.91
Other   |            | 0.004848   |            |       |  0.79

Nlocal:        166.667 ave         179 max         157 min
Histogram: 3 2 2 4 3 4 2 3 0 1
Nghost:        1859.08 ave        1878 max        1844 min
Histogram: 2 1 4 2 4 5 4 1 0 1
Neighs:        15157.8 ave       17014 max       13852 min
Histogram: 1 2 4 6 4 2 3 1 0 1

Total # of neighbors = 363786
Ave neighs/atom = 90.946500
Neighbor list builds = 155
Dangerous builds = 6

#############################
# F R E E Z E  S Y S T E M  #
#############################

# Define solid atoms. This closely follows ten Wolde  Ruiz-Montero and Frenkel  Faraday Discuss  1996  104  93-110
# Compute components of the per-atom q6 vector
compute q6 all orientorder/atom degrees 1 6 components 6 nnn NULL cutoff 1.3 # compute the Q6 parameter.
                                                                             # Use all neighbours within 1.3 unit cell.

# get number of connections
compute coord_number all coord/atom orientorder q6 0.5

# An atom is solid if it has 8 or more connections (of a possible 14)
variable is_solid atom c_coord_number>=8
group solid dynamic all var is_solid    # Must be dynamic to update
dynamic group solid defined

# do clustering
compute cluster solid cluster/atom 1.3 # Create a cluster where all atoms within are solid and max 1.3 units from another member

# define chunks one chunk per cluster
compute clus_chunks solid chunk/atom c_cluster nchunk every compress yes  # Says which atoms are in which chunk

# count the size of each chunk
compute size_chunks solid property/chunk clus_chunks count


# Find the maximum entry in the vector of chunk sizes
variable max_n equal max(c_size_chunks)


# Thermo style which includes this variable
thermo_style custom step temp pe vol v_max_n

thermo ${N}  # Print the thermo information every 100 steps
thermo 100  

# Reset the npt fix at a lower temperature (below freezing)
fix 1  all npt temp  ${temp} ${temp}  0.1  iso  5.68  5.68  0.5  mtk yes tchain  5  pchain  5
fix 1  all npt temp  2.22 ${temp}  0.1  iso  5.68  5.68  0.5  mtk yes tchain  5  pchain  5
fix 1  all npt temp  2.22 2.22  0.1  iso  5.68  5.68  0.5  mtk yes tchain  5  pchain  5

dump dmp2 all dcd ${N} traj_${rand}.dcd
dump dmp2 all dcd 100 traj_${rand}.dcd
dump dmp2 all dcd 100 traj_462431.dcd


# fix rnuntil all halt ${N} v_max_n >= 3980 error soft message no   # Stop when solidified


run 100000 # 5000000  # Run for this many steps
Neighbor list info ...
  update every 1 steps, delay 10 steps, check yes
  max neighbors/atom: 2000, page size: 100000
  master list distance cutoff = 3.8
  ghost atom cutoff = 3.8
  binsize = 1.9, bins = 10 10 10
  4 neighbor lists, perpetual/occasional/extra = 1 3 0
  (1) pair lj/cut, perpetual
      attributes: half, newton on
      pair build: half/bin/atomonly/newton
      stencil: half/bin/3d
      bin: standard
  (2) compute orientorder/atom, occasional
      attributes: full, newton on
      pair build: full/bin/atomonly
      stencil: full/bin/3d
      bin: standard
  (3) compute coord/atom, occasional
      attributes: full, newton on
      pair build: full/bin/atomonly
      stencil: full/bin/3d
      bin: standard
  (4) compute cluster/atom, occasional
      attributes: full, newton on
      pair build: full/bin/atomonly
      stencil: full/bin/3d
      bin: standard
Per MPI rank memory allocation (min/avg/max) = 9.433 | 9.438 | 9.443 Mbytes
Step Temp PotEng Volume v_max_n 
    4000    2.1603828   -4.5767002    5026.3741       -1e+20 
    4100    2.2086587    -4.591215    5084.0485       -1e+20 
    4200    2.2451248   -4.5693699    5086.9298            1 
    4300    2.1607152   -4.5576721    5068.7895            1 
    4400    2.2570304   -4.6143146    5090.9308       -1e+20 
    4500    2.2284459   -4.5382742    5097.8676            1 
    4600    2.2952261    -4.527998    5105.4914       -1e+20 
    4700    2.2075101   -4.5406179    5083.0834            1 
    4800    2.2400472   -4.5794512    5099.0059            1 
    4900     2.262451    -4.507623    5131.6666            1 
    5000    2.2689194   -4.4457812    5157.7035            1 
    5100    2.2382638   -4.5209856    5099.4404            1 
    5200    2.2159254   -4.5537325    5084.8643       -1e+20 
    5300    2.1950186   -4.5507203    5086.3239            1 
    5400    2.2302199   -4.5779812    5071.9692            2 
    5500     2.221015   -4.5726723     5109.285            1 
    5600    2.2231297   -4.5247975    5063.4677            1 
    5700    2.1822894   -4.5262828    5093.4303            1 
    5800    2.2179553   -4.5324936    5090.5985            1 
    5900    2.2462451   -4.4902517    5123.6255       -1e+20 
    6000    2.1875674   -4.4893134    5093.2108       -1e+20 
    6100    2.2461978   -4.5768781    5105.2103            1 
    6200    2.1758877   -4.5764808    5082.5626            1 
    6300    2.2442867   -4.5777822    5063.6035            1 
    6400    2.2785941   -4.5340833    5141.0658            2 
    6500    2.2300529   -4.5360605    5127.6429            1 
    6600    2.2370603   -4.5987256    5049.8723            1 
    6700    2.1674677    -4.577442    5063.6064            2 
    6800    2.2151675    -4.536947    5076.6395            1 
    6900     2.203862   -4.5455424    5089.2697            1 
    7000    2.2612072   -4.5345025    5096.3905            1 
    7100    2.1915048   -4.5564725    5085.0751            1 
    7200    2.2292414   -4.5394938    5093.2222            1 
    7300    2.1694053   -4.5614737    5090.0171            1 
    7400    2.2600604    -4.572333    5052.1385       -1e+20 
    7500    2.1408653   -4.5675182      5111.82       -1e+20 
    7600    2.2277119   -4.5507626    5076.8441       -1e+20 
    7700    2.2459888   -4.5983619    5057.6554       -1e+20 
    7800    2.1660217    -4.622706    5063.6226       -1e+20 
    7900    2.2478046   -4.6004143    5066.6325       -1e+20 
    8000    2.2336617   -4.5520993    5089.8657       -1e+20 
    8100    2.2270984   -4.5488282    5100.5074            1 
    8200    2.2143478   -4.5325662    5088.1433       -1e+20 
    8300    2.2503738   -4.4991775    5120.6005            1 
    8400    2.2217194   -4.5401469    5096.6924       -1e+20 
    8500    2.2039476   -4.5735362    5069.9385       -1e+20 
    8600    2.2160029   -4.5188056    5081.1273            1 
    8700    2.1582818   -4.4996347    5109.1369            1 
    8800    2.2454414   -4.4721612    5072.0758            1 
    8900    2.1896588   -4.5475131    5137.7303            1 
    9000    2.2411656   -4.4751429    5096.6453            1 
    9100    2.2022905    -4.513416    5107.3642       -1e+20 
    9200    2.2348924   -4.5620677    5120.7422            1 
    9300     2.224166   -4.6126067    5059.1666            1 
    9400    2.2206943     -4.60799    5079.0194       -1e+20 
    9500    2.2531614   -4.5351585    5096.3674            1 
    9600    2.2347951   -4.5658331    5088.8608       -1e+20 
    9700    2.2152636   -4.6086513    5072.9539            1 
    9800    2.2193537   -4.5238636    5093.6923            1 
    9900    2.2258607   -4.5523607    5099.4592       -1e+20 
   10000     2.186995   -4.5422857    5060.0098            1 
   10100    2.2215396   -4.5734322    5121.2746            1 
   10200    2.2140527    -4.570134    5062.5967            1 
   10300    2.2220581   -4.5719708    5075.1616            1 
   10400    2.1879697   -4.5296842    5091.5044            1 
   10500     2.228818   -4.5185032    5072.8297       -1e+20 
   10600    2.1954636   -4.5781261    5085.2312       -1e+20 
   10700    2.2360327   -4.5817308    5090.2266            1 
   10800    2.2024344   -4.5334394    5091.8882            1 
   10900    2.2334733   -4.5487154     5112.537            1 
   11000    2.2080035   -4.5025304    5081.9306            1 
   11100    2.2004934    -4.545265    5063.1946       -1e+20 
   11200    2.2282184    -4.565265    5110.2177            1 
   11300    2.2007755   -4.5031649    5129.5141       -1e+20 
   11400    2.2873605   -4.5111114    5070.2437       -1e+20 
   11500    2.1748676   -4.5346696    5109.1608            1 
   11600    2.2202157   -4.5330057     5053.198       -1e+20 
   11700    2.1765565   -4.5363036    5069.6835       -1e+20 
   11800    2.2160496   -4.5354168    5119.7972            1 
   11900    2.2154634   -4.4741931    5108.8145       -1e+20 
   12000     2.200762   -4.5527439    5068.7607            1 
   12100    2.2181938   -4.5994227    5100.3148            1 
   12200     2.254177   -4.5214529    5095.3281            1 
   12300    2.1733341   -4.4926871    5108.1426            1 
   12400    2.2681114   -4.5190636    5125.7689       -1e+20 
   12500     2.219829   -4.5421605    5114.9136            2 
   12600    2.1874783    -4.540673    5087.4213            1 
   12700    2.2444131   -4.5126121    5114.3003       -1e+20 
   12800     2.248752   -4.5293013    5116.8621       -1e+20 
   12900    2.2238276   -4.5563013    5117.4545            2 
   13000     2.260807   -4.5333165    5105.8757            1 
   13100    2.1811896   -4.5653176    5109.0353       -1e+20 
   13200    2.2183882   -4.6043533    5044.1773            1 
   13300    2.2039992   -4.5619205    5052.0172            1 
   13400    2.2108795   -4.5713932    5085.8785            1 
   13500    2.2243306   -4.5405815    5097.5771            1 
   13600    2.2910189   -4.5681545    5114.9134       -1e+20 
   13700    2.2420467   -4.5873797    5101.7755            1 
   13800    2.2201366   -4.5755417    5081.5301       -1e+20 
   13900    2.2612791   -4.5762037    5084.8323       -1e+20 
   14000    2.2202829   -4.4889051    5134.5449            1 
   14100    2.2108779   -4.5487948    5111.3285            2 
   14200    2.2250496   -4.5381285    5075.7981       -1e+20 
   14300    2.1930668   -4.5552787    5097.1664            1 
   14400    2.2254328   -4.5060873    5097.4533            1 
   14500    2.1767454   -4.5442321    5084.6207            1 
   14600    2.2249613   -4.5375459    5084.3895       -1e+20 
   14700    2.2505783     -4.53833    5104.3673       -1e+20 
   14800    2.1975091     -4.58121    5094.4047            1 
   14900    2.2268792   -4.5485089    5063.0791            1 
   15000    2.2097707   -4.5288906    5099.4865            1 
   15100    2.2005554   -4.5516123    5119.9584            1 
   15200    2.2804206   -4.5718612     5058.203            1 
   15300    2.1617757   -4.5656211    5085.2505            1 
   15400    2.2146336   -4.5473831     5105.042            1 
   15500    2.2440275   -4.5313502    5095.8152       -1e+20 
   15600     2.186213   -4.5461205      5102.43       -1e+20 
   15700     2.225338   -4.4917314     5087.479            1 
   15800    2.1964888   -4.5368679    5070.1792            1 
   15900    2.1849678   -4.5811362    5099.9678            1 
   16000    2.2648154   -4.5763802    5062.8801            1 
   16100    2.1754775   -4.5258417    5102.4191       -1e+20 
   16200    2.2469112   -4.4978881    5118.5801       -1e+20 
   16300    2.2498026   -4.5506516    5088.5856            2 
   16400     2.187109   -4.5493878    5068.9008       -1e+20 
   16500    2.2546993    -4.579352    5082.5764       -1e+20 
   16600    2.2175522   -4.5294068    5111.5006            1 
   16700    2.2005636   -4.5287775    5045.8979       -1e+20 
   16800    2.2040568   -4.5002773    5103.3505       -1e+20 
   16900      2.22235   -4.5044543    5108.8064       -1e+20 
   17000    2.2096679   -4.5503357    5084.4171            1 
   17100    2.2346468   -4.5718493    5072.4452       -1e+20 
   17200    2.1996853   -4.5478491    5094.5004       -1e+20 
   17300    2.1943597   -4.4841036       5119.3       -1e+20 
   17400    2.2656609   -4.5285461    5093.1359            2 
   17500    2.1882971   -4.5545253    5091.0661       -1e+20 
   17600     2.262824   -4.5619977    5096.5751       -1e+20 
   17700    2.2215718   -4.5104069    5135.9863            2 
   17800    2.2346982   -4.5110852    5070.6919            1 
   17900    2.2221728   -4.5659697    5125.7144            1 
   18000    2.2320504    -4.548851    5114.6737       -1e+20 
   18100    2.2400067   -4.5414167    5066.0454            1 
   18200    2.1559804   -4.5323704      5088.97       -1e+20 
   18300    2.2156956   -4.4959825    5087.0176            1 
   18400    2.2213984   -4.5220572    5095.4939            1 
   18500    2.1992146   -4.5901058     5042.312            2 
   18600    2.1872584    -4.572729    5069.0609            2 
   18700    2.2259554   -4.5356606    5079.8623       -1e+20 
   18800    2.1942477   -4.5726797    5087.3652       -1e+20 
   18900    2.1868467   -4.5530524     5064.924            2 
   19000    2.2042823   -4.5283671    5100.3436       -1e+20 
   19100    2.2096115   -4.5243325    5085.6251            1 
   19200    2.1693768    -4.472859    5079.6605       -1e+20 
   19300    2.2170327   -4.5100187    5097.9985            1 
   19400    2.2026259   -4.5663874    5049.0948            2 
   19500    2.1962575   -4.5909613    5084.5285            1 
   19600    2.2557215   -4.5446208    5071.2455       -1e+20 
   19700    2.1991685   -4.5433926    5094.4489            1 
   19800    2.2359546   -4.6625858     5067.443            1 
   19900    2.2141989   -4.5536495    5055.5075            1 
   20000    2.2188146   -4.5227731    5125.4855            1 
   20100    2.2344682   -4.4997163    5129.2752       -1e+20 
   20200    2.1887073   -4.5030534    5078.7631            1 
   20300     2.198829   -4.6053469    5081.4333            2 
   20400    2.1969378   -4.5515282    5057.8923       -1e+20 
   20500    2.2366827   -4.5550358    5102.0828       -1e+20 
   20600    2.1949378   -4.5658493    5103.0006       -1e+20 
   20700    2.2660693   -4.5418306    5088.6978            1 
   20800    2.2242674   -4.5560361    5109.3378            1 
   20900    2.2184085   -4.5580258    5083.2768            1 
   21000    2.2074356   -4.5703827    5074.5177            1 
   21100    2.1949888   -4.4995403    5107.5595            1 
   21200    2.2320595   -4.5083877    5111.4507       -1e+20 
   21300    2.2361671   -4.5572486    5120.8515            1 
   21400    2.2311211   -4.5556302    5076.9306            2 
   21500    2.2185043   -4.5072656    5084.1304       -1e+20 
   21600    2.2191109   -4.5204808    5126.6914       -1e+20 
   21700    2.2252482   -4.5678184    5073.2925            1 
   21800    2.2069301   -4.5477156    5057.2802            1 
   21900    2.2346179   -4.5766788    5106.0542       -1e+20 
   22000    2.2477263    -4.536876    5108.3912            1 
   22100    2.2068029   -4.5233179    5086.9179            1 
   22200    2.2434783   -4.5390773    5081.6617            1 
   22300    2.2192283   -4.5454748    5154.5232            1 
   22400     2.227494   -4.5643833     5045.686            1 
   22500     2.184899   -4.5590427    5082.7534            1 
   22600    2.2056718   -4.5152073    5110.7429       -1e+20 
   22700    2.2483567   -4.5416866     5097.116            1 
   22800    2.2323749   -4.6127053    5069.4536            1 
   22900    2.2323026   -4.5746185    5081.7877            1 
   23000    2.2387706    -4.556011    5098.7692            1 
   23100    2.1926049   -4.5393485     5057.446            1 
   23200    2.1750002   -4.5974364    5069.2779            1 
   23300    2.2277168   -4.5750382     5100.183       -1e+20 
   23400    2.2240999   -4.5002217    5090.5364            1 
   23500    2.1870445    -4.537441    5058.5955            1 
   23600    2.2137683   -4.6163336    5075.4708            1 
   23700    2.2504622   -4.6056865    5046.2949            1 
   23800    2.2245035   -4.5942488    5117.1007       -1e+20 
   23900    2.2606501   -4.5320765    5106.6336            1 
   24000    2.2198333   -4.5354986    5106.7368       -1e+20 
   24100    2.1825394   -4.5795451    5082.9331       -1e+20 
   24200    2.2284797   -4.5383039    5072.0975            1 
   24300    2.2440966   -4.5812426    5084.8015            1 
   24400    2.1696924    -4.536999    5092.6112            1 
   24500    2.2498603   -4.5385935    5073.2381       -1e+20 
   24600    2.2029953   -4.5681244    5093.8007            1 
   24700    2.2401382   -4.5898396      5081.62            1 
   24800    2.2046434   -4.5379837    5089.8541            1 
   24900     2.276811   -4.5537208    5108.1439            1 
   25000    2.2220995   -4.5771622    5073.8789            1 
   25100    2.2037182   -4.5856292    5085.1349       -1e+20 
   25200    2.2440466   -4.5353938    5085.5657       -1e+20 
   25300    2.2682859   -4.5516949    5122.9054       -1e+20 
   25400    2.2013738   -4.5358179    5126.8348            1 
   25500     2.274323    -4.533469    5091.9687       -1e+20 
   25600    2.2105504   -4.5653167    5109.3275       -1e+20 
   25700    2.2195012   -4.5459967    5059.8573            1 
   25800    2.1892241   -4.5724104    5068.8823            1 
   25900    2.2362746   -4.6109231    5087.9451       -1e+20 
   26000    2.2522285    -4.536074     5062.747            1 
   26100    2.1933447   -4.5659932    5134.9031            1 
   26200    2.2940584    -4.561452     5090.874            1 
   26300    2.2379815   -4.5736314    5085.2652       -1e+20 
   26400    2.2219033   -4.5743357    5131.9297       -1e+20 
   26500    2.2527157   -4.5007042    5116.7781            1 
   26600    2.2179122   -4.5354593    5093.8253            1 
   26700    2.2230798   -4.5435942     5095.871            1 
   26800    2.2462615   -4.5110847    5132.5233            1 
   26900    2.2453459   -4.5769328    5089.4013       -1e+20 
   27000    2.2156366   -4.5954487     5056.458       -1e+20 
   27100     2.194617    -4.502052     5082.043            1 
   27200    2.2219063   -4.5163113    5107.8215            1 
   27300    2.2032207   -4.5946646    5097.1905       -1e+20 
   27400    2.2723205   -4.5479615    5066.6385            1 
   27500    2.2314016   -4.5683595    5144.6112            1 
   27600    2.2470791   -4.5297898    5107.7369            1 
   27700    2.2131736   -4.5416702    5065.8657            1 
   27800    2.2149241   -4.5640743    5085.7882            1 
   27900      2.20562    -4.529972    5090.7837       -1e+20 
   28000    2.2671069    -4.533033    5117.3736            1 
   28100    2.2069807   -4.5474439    5143.6153       -1e+20 
   28200     2.262721   -4.5374829    5080.9503            1 
   28300    2.1769957   -4.5088929    5088.3871            1 
   28400    2.2215971   -4.5386194     5107.197       -1e+20 
   28500    2.2314253   -4.5275742    5096.2213            1 
   28600    2.1775942   -4.5474303    5077.2709            1 
   28700    2.2232257   -4.5379248    5085.4432            1 
   28800    2.2681078   -4.5629674     5126.973       -1e+20 
   28900     2.232273   -4.5483159    5097.2956       -1e+20 
   29000    2.2247361   -4.5632748    5078.3545            1 
   29100    2.1690817   -4.5544279    5062.8066            1 
   29200    2.1844079   -4.5383982    5066.0087       -1e+20 
   29300    2.2003628   -4.5132742     5094.755            1 
   29400    2.2428554    -4.494452    5128.0048       -1e+20 
   29500    2.1927968   -4.5077481    5110.2351            1 
   29600    2.2347906   -4.5634615    5062.0109       -1e+20 
   29700    2.1970455   -4.5587616    5113.0207       -1e+20 
   29800    2.2498218   -4.5702261    5091.2775            1 
   29900    2.2149209     -4.46437    5104.8361            2 
   30000    2.2141533   -4.5423737    5113.9723            1 
   30100    2.2507092   -4.5847012    5085.1161       -1e+20 
   30200    2.1915965   -4.5829626    5084.2778       -1e+20 
   30300    2.2141168    -4.565899    5085.8775            2 
   30400    2.2676627   -4.5380509    5105.8954            1 
   30500    2.1978356   -4.5366523     5115.574            1 
   30600    2.2003666   -4.5252173     5083.614            1 
   30700    2.2737984   -4.5393786    5097.4757       -1e+20 
   30800    2.2065292   -4.5370623    5114.1945            1 
   30900    2.2215186    -4.527961    5091.0337            1 
   31000    2.2045086   -4.5627822    5069.2873            1 
   31100    2.2141863   -4.5380874    5089.8121       -1e+20 
   31200    2.2420316   -4.5087809    5128.0227            1 
   31300    2.1916421   -4.5464495    5092.0768            1 
   31400    2.2228063   -4.5321168    5083.5775            2 
   31500    2.1826782   -4.5677439     5077.917            1 
   31600    2.2444909   -4.5948291    5058.2019            1 
   31700    2.2266912   -4.4920244    5107.9317            1 
   31800    2.2299869   -4.4931392    5147.9513            1 
   31900    2.2313622   -4.5629222    5090.8361            1 
   32000    2.2157317   -4.5584915    5079.9234            1 
   32100    2.2551494   -4.5248899    5115.2216            1 
   32200    2.2141866   -4.4815435    5098.1383       -1e+20 
   32300    2.2031872   -4.5610886    5102.6624       -1e+20 
   32400    2.2381423   -4.5514192    5075.5756       -1e+20 
   32500    2.1895705   -4.5761874      5072.69            1 
   32600    2.1980518   -4.5657009    5114.7794       -1e+20 
   32700    2.2558279   -4.5309897    5057.3868            1 
   32800    2.1669355    -4.559024    5083.5101       -1e+20 
   32900    2.2316852   -4.5804554    5085.2375            1 
   33000    2.2056541   -4.5199307     5091.237            1 
   33100    2.2416257   -4.5134806    5124.6803            1 
   33200    2.2134913   -4.4883409    5146.7272            1 
   33300    2.1928868   -4.4995187    5093.4321       -1e+20 
   33400    2.2400075   -4.5888183    5083.2378            2 
   33500    2.1848089   -4.5346036    5090.4068       -1e+20 
   33600    2.2840629   -4.5517577    5057.8119            1 
   33700    2.1577725   -4.5690803    5089.3076            1 
   33800    2.2150731   -4.5304952    5095.5195       -1e+20 
   33900    2.2604873   -4.5419791    5110.7461       -1e+20 
   34000    2.1974171   -4.5702907    5084.4052       -1e+20 
   34100     2.231015    -4.554103    5082.1323            1 
   34200    2.1477134   -4.5545952    5068.8395            1 
   34300    2.2311906    -4.577156    5073.0329            1 
   34400    2.2142756   -4.5375539    5130.2039       -1e+20 
   34500    2.2532274   -4.5367178    5083.3959            1 
   34600    2.1962758   -4.5627609     5107.425       -1e+20 
   34700    2.2708134   -4.5962582     5043.938            1 
   34800    2.2107864   -4.5927879    5091.3952            1 
   34900    2.2549583   -4.5951525    5100.7866            1 
   35000    2.2276468   -4.5402905    5096.2605            1 
   35100     2.179434   -4.5580053    5084.4844            1 
   35200    2.2498819   -4.6055095     5033.429            1 
   35300    2.1922415   -4.5368343    5122.1471       -1e+20 
   35400    2.2520032   -4.5576322    5082.9406            1 
   35500    2.1992523   -4.5397255    5075.7115            1 
   35600    2.2371864   -4.5665879    5092.7289            1 
   35700    2.1859702   -4.5861433    5072.3361            1 
   35800    2.2593604   -4.5828245    5092.2573            1 
   35900    2.2353036   -4.5435449    5092.3933            1 
   36000    2.1675069   -4.5754525    5096.1785            3 
   36100    2.2371598    -4.563358      5053.18            1 
   36200    2.2105772   -4.5317515    5117.3171            1 
   36300     2.220966   -4.5293253    5082.1078            1 
   36400    2.1979792   -4.5458237    5075.8917            2 
   36500     2.226176   -4.5291455    5118.2174            1 
   36600    2.2346979   -4.5193742    5123.1215            1 
   36700    2.2271599   -4.4958513     5105.595       -1e+20 
   36800      2.20797   -4.5691592    5086.7519            2 
   36900    2.2513293    -4.572427    5087.4582            1 
   37000    2.2045576   -4.4650699    5141.6876            1 
   37100    2.1934003   -4.5216939    5086.1675            1 
   37200    2.2325801   -4.5594077    5087.3117            1 
   37300     2.203206   -4.5364309    5131.0911            1 
   37400    2.2466913   -4.4578859    5109.7492            1 
   37500     2.245618   -4.5791797    5085.4854       -1e+20 
   37600    2.1895538   -4.5940885    5074.9291       -1e+20 
   37700    2.2501688   -4.5897722    5060.9554            1 
   37800    2.1801629   -4.5176447    5103.9224            1 
   37900    2.2455571   -4.5533564    5082.8773       -1e+20 
   38000    2.1982804   -4.5364896    5073.3871       -1e+20 
   38100    2.2667204   -4.5600895    5105.3789            1 
   38200    2.2266849   -4.5053256    5127.7924            1 
   38300    2.2167579   -4.5298076    5092.7093            1 
   38400    2.2395712   -4.5729847     5096.859       -1e+20 
   38500    2.2090027   -4.5651878    5093.3313            1 
   38600    2.2332635   -4.5722911    5077.1245       -1e+20 
   38700    2.2337965   -4.5586561    5103.2543            1 
   38800    2.2062701   -4.5573248    5083.9498            2 
   38900    2.2236605   -4.5326739    5091.7872            1 
   39000    2.2020814   -4.5782144    5092.2198            1 
   39100    2.2392701   -4.5194049    5071.6973       -1e+20 
   39200    2.2070319    -4.517685    5132.7594            1 
   39300      2.19665   -4.5628436      5083.04            1 
   39400    2.2248982   -4.5338705    5083.0343            4 
   39500     2.230327   -4.5761159     5127.106            1 
   39600    2.2245364   -4.4869391    5084.1731            1 
   39700    2.1628304   -4.4981727    5091.8005            1 
   39800    2.1850859    -4.551191    5097.0331            1 
   39900    2.2772996   -4.5382534    5080.9316            1 
   40000    2.1825229   -4.5306466    5117.2025            2 
   40100    2.2778665   -4.5587116    5103.6701            1 
   40200    2.2304196   -4.5932196    5078.6375       -1e+20 
   40300    2.2102658   -4.6147921    5079.1625       -1e+20 
   40400    2.2494669   -4.5543587    5119.3786            1 
   40500    2.2318458   -4.5225532    5124.0803            1 
   40600    2.2461235   -4.5026598    5115.3752            1 
   40700    2.2208257   -4.5538565    5088.1071       -1e+20 
   40800    2.2238903   -4.6025289    5075.0767            2 
   40900    2.2254871   -4.5109574    5106.1292       -1e+20 
   41000    2.2277252   -4.5321436    5078.4065            2 
   41100    2.1800705   -4.5827824    5080.3359            1 
   41200    2.2571039   -4.5616563     5087.423            1 
   41300    2.2342054   -4.5842911     5084.433            1 
   41400    2.1622624   -4.5600337    5080.2205            1 
   41500    2.2241254   -4.5148149    5114.2036       -1e+20 
   41600    2.2223618   -4.5052142    5121.7388            1 
   41700    2.2339752     -4.55298    5113.3833            1 
   41800      2.22233   -4.5398926    5102.3264       -1e+20 
   41900    2.1921377   -4.4873609    5097.1498            1 
   42000    2.2658647   -4.5570369    5090.2099       -1e+20 
   42100    2.1766593   -4.5983601    5112.8504            1 
   42200    2.2567173   -4.5729781    5075.5074            1 
   42300    2.2084394   -4.5789935    5084.7723            1 
   42400    2.2641707   -4.5614394    5107.8822            1 
   42500    2.2124027    -4.544645    5103.4618       -1e+20 
   42600    2.2408376   -4.4937513    5128.5645       -1e+20 
   42700    2.2373003   -4.5683621    5095.2133            1 
   42800    2.2194707   -4.5863517    5060.2383            1 
   42900    2.2468344   -4.5934074     5084.544            1 
   43000    2.1803307   -4.5652754    5104.2145            2 
   43100    2.2789959    -4.554934    5071.9298            1 
   43200    2.1722183   -4.5412029    5114.0515            1 
   43300    2.2477923   -4.5258631    5106.8068       -1e+20 
   43400    2.2376406   -4.5011603    5116.4121            1 
   43500    2.2155246   -4.5828355     5104.437            1 
   43600     2.226749   -4.5598894    5088.3812            1 
   43700     2.232948   -4.5377998    5091.1625            1 
   43800    2.1596487   -4.5520318     5094.018       -1e+20 
   43900    2.2337972   -4.5072738    5073.2951            1 
   44000    2.2300817   -4.5755471    5092.8963            1 
   44100    2.2422087   -4.5648393    5119.2598            1 
   44200    2.2723876   -4.4908044    5135.4659            2 
   44300    2.2198133   -4.4757621    5144.1791            1 
   44400    2.2238439   -4.5360915    5079.1771       -1e+20 
   44500    2.1788117   -4.4773704    5085.7266            1 
   44600    2.2353018   -4.5145715    5140.1703            1 
   44700    2.1970793   -4.4849844    5109.1745            2 
   44800    2.2435508   -4.5326673    5081.0716            1 
   44900    2.2209054   -4.5857282    5088.1269            1 
   45000    2.2595236   -4.6017764    5088.0361       -1e+20 
   45100    2.2419312   -4.5002407    5128.7538       -1e+20 
   45200    2.2002524   -4.5016836    5111.9536            1 
   45300    2.2105417   -4.5726961    5063.9792            1 
   45400    2.2450273   -4.5806652    5108.5043       -1e+20 
   45500    2.2463434   -4.5916079    5092.2997            1 
   45600    2.2034604   -4.5532164    5078.5075       -1e+20 
   45700    2.2244427   -4.5184401    5131.6289       -1e+20 
   45800    2.2089581   -4.5324137     5085.004            1 
   45900    2.2054314   -4.5528733    5059.8159            1 
   46000    2.2328256   -4.5479864    5122.6396       -1e+20 
   46100    2.2470705     -4.53498    5076.5748            1 
   46200    2.2189146   -4.5676827     5093.544            1 
   46300    2.1832548     -4.58369    5077.4045            2 
   46400    2.2065176   -4.5320396    5046.7152            1 
   46500    2.2152579   -4.5359923    5111.5366       -1e+20 
   46600    2.2521219   -4.5509471    5115.8879            2 
   46700    2.2186882   -4.5357586    5088.7231       -1e+20 
   46800     2.204291   -4.5321957    5083.1213            1 
   46900    2.2301443     -4.51938    5101.7901            2 
   47000    2.1767566   -4.5397199    5089.4655       -1e+20 
   47100    2.2917859   -4.5387982    5101.8082            1 
   47200    2.2396275   -4.5603472    5098.2236            1 
   47300    2.1799394   -4.5546655    5087.3724            1 
   47400    2.2599364   -4.5396689    5089.6082            1 
   47500    2.1874552   -4.5200844    5104.7985            1 
   47600    2.2762964   -4.5371699    5098.8498       -1e+20 
   47700    2.2118312   -4.6011015    5106.0837            1 
   47800    2.2110267   -4.5507036    5095.5661       -1e+20 
   47900    2.2561842   -4.5091269    5092.9311            1 
   48000    2.1593843   -4.5183737    5102.0927       -1e+20 
   48100    2.2137395   -4.5409139    5062.2533            1 
   48200    2.1822381    -4.570127    5039.0067            2 
   48300    2.2447286   -4.6027746    5074.5348            3 
   48400    2.1456536   -4.5466072    5057.8934            2 
   48500    2.2431519   -4.6222188    5077.2967       -1e+20 
   48600    2.2184691    -4.541611    5110.0878       -1e+20 
   48700    2.2773231   -4.4894814    5101.8381       -1e+20 
   48800    2.2013676   -4.5242628    5082.9318       -1e+20 
   48900    2.2208554   -4.5515907    5123.3501       -1e+20 
   49000    2.3217566   -4.5100021    5119.3168            2 
   49100    2.2322867    -4.525326    5100.3843            1 
   49200    2.2110796   -4.5951265    5091.8469       -1e+20 
   49300    2.1897264   -4.5212022    5053.1798       -1e+20 
   49400    2.2364371   -4.5602629    5082.1654            1 
   49500    2.1923449   -4.5775504     5089.209            1 
   49600    2.2184934   -4.5759453     5048.093            1 
   49700    2.1910785   -4.5585478    5087.1552            1 
   49800    2.2198936   -4.5003449    5118.2469            1 
   49900    2.1993784   -4.5111529    5098.7996            1 
   50000      2.21531    -4.581257     5042.783            1 
   50100    2.1553198   -4.6203951    5070.1942            1 
   50200    2.2403514   -4.5775548    5056.6247            1 
   50300    2.2413131   -4.5862422    5091.7312       -1e+20 
   50400    2.2260457   -4.5014732    5143.9538       -1e+20 
   50500    2.2266217   -4.5093768    5095.8274            1 
   50600     2.199642   -4.5400345    5075.7845            1 
   50700     2.176797   -4.5813218    5063.7163            1 
   50800    2.2160359    -4.574731    5069.1479            1 
   50900    2.2239455   -4.5469019    5099.2126            1 
   51000    2.1853383   -4.5144395    5092.8278            1 
   51100    2.2231771   -4.5409723    5067.2521            1 
   51200     2.211402   -4.5157412    5146.6898       -1e+20 
   51300    2.2442119   -4.5214604    5079.0328            3 
   51400    2.2243202   -4.5597304    5119.3259            1 
   51500    2.2264365   -4.5754725    5099.6749            1 
   51600    2.2355793   -4.5602144    5067.4733            1 
   51700    2.1877506   -4.5406069    5092.6949            1 
   51800    2.2395871   -4.5585818    5075.5012            1 
   51900     2.205416   -4.5444906    5110.9514            1 
   52000    2.2019285   -4.5690252    5036.0043            1 
   52100     2.246257   -4.6136984    5061.0124            1 
   52200    2.2221568   -4.5400698    5142.1802            2 
   52300    2.2371426   -4.5241263     5107.233       -1e+20 
   52400    2.2143018   -4.5280166    5068.5931            1 
   52500    2.1833898   -4.5663267    5085.3131            1 
   52600    2.2726469   -4.5584346    5071.9444       -1e+20 
   52700    2.2086884   -4.5519398    5095.2037            1 
   52800    2.2133911   -4.5745566    5086.5228       -1e+20 
   52900    2.2529586   -4.5269342    5103.1726            1 
   53000    2.2048632   -4.5361297    5088.3226       -1e+20 
   53100    2.2319705   -4.5889364    5089.1637       -1e+20 
   53200    2.2101043   -4.5178721    5082.3061       -1e+20 
   53300    2.2401218   -4.5344714    5128.3769            1 
   53400    2.2115282     -4.53721    5121.7614            1 
   53500    2.2298079   -4.5178199    5054.3463            2 
   53600    2.1807245   -4.6071038    5090.8565            1 
   53700    2.2162723   -4.5586131    5059.1119            1 
   53800    2.2206732   -4.5241356    5115.9835            1 
   53900    2.2224152    -4.547428    5109.6443            1 
   54000     2.213413    -4.548133    5027.8828            1 
   54100    2.1830658   -4.5205418     5094.992            2 
   54200    2.2274243   -4.5365342    5102.5007            1 
   54300    2.1851917   -4.5243763    5075.8487            1 
   54400    2.1905447   -4.5830027    5075.6294            1 
   54500    2.2386592   -4.5452154    5104.6306            2 
   54600    2.2140544   -4.5077816    5107.7024            2 
   54700    2.2001092   -4.5670658     5079.156       -1e+20 
   54800    2.2245722   -4.5728837    5061.7205            1 
   54900    2.1782906   -4.4967565    5103.1084            1 
   55000    2.2204673   -4.5239098     5126.139       -1e+20 
   55100    2.2631695   -4.4781649    5097.7357            1 
   55200    2.1883135   -4.5514581    5137.8117            1 
   55300    2.2404003   -4.6089908    5076.2181            1 
   55400    2.2409208   -4.5920546    5045.4579            1 
   55500    2.1895778   -4.5880341    5085.2838            1 
   55600    2.2677907   -4.5965618    5069.5627            1 
   55700    2.1972747   -4.5813298    5093.9691            2 
   55800    2.2467227   -4.5698623    5074.4228       -1e+20 
   55900    2.1943202   -4.5265006    5083.3349       -1e+20 
   56000    2.2251506   -4.5918305    5100.2492            1 
   56100    2.2248158   -4.5505138    5113.4308       -1e+20 
   56200     2.270304   -4.4985995     5081.642            1 
   56300    2.1843264   -4.5409317    5124.1356            1 
   56400    2.2336862   -4.5562573    5057.3786            1 
   56500    2.1728583   -4.5196648    5073.3561            1 
   56600    2.2044206   -4.5444248    5119.8529            1 
   56700    2.2769673   -4.5054643    5090.9026       -1e+20 
   56800    2.2054663   -4.5531418    5121.2608       -1e+20 
   56900    2.2599012   -4.6135114    5079.5847            2 
   57000    2.2335329   -4.5805647     5078.035            1 
   57100     2.207632   -4.5640559     5100.542            1 
   57200    2.2480984    -4.554829     5060.466            1 
   57300    2.2183011   -4.5503249    5124.2006       -1e+20 
   57400    2.2017395   -4.5534786    5071.6309       -1e+20 
   57500    2.2465746   -4.5791766    5098.2006            1 
   57600    2.2177082   -4.5646385    5066.7915            1 
   57700    2.2260214    -4.561291    5091.3927       -1e+20 
   57800    2.1866773   -4.5080977    5097.9702            1 
   57900     2.233384   -4.4953412    5080.4248            1 
   58000    2.1688226   -4.5591048    5106.3397            1 
   58100    2.2474954   -4.5513286    5068.5924            2 
   58200    2.1922597   -4.5661016    5066.3535       -1e+20 
   58300     2.208809   -4.5539229    5109.6948       -1e+20 
   58400    2.2274599   -4.5418225    5070.9029       -1e+20 
   58500    2.2412426   -4.5895131    5069.3527       -1e+20 
   58600     2.171504   -4.5534057    5096.1757            1 
   58700    2.2497281   -4.5519297    5083.5898       -1e+20 
   58800     2.197408   -4.5209025    5115.6141       -1e+20 
   58900    2.2299067   -4.4878402    5140.1059            1 
   59000    2.2434427   -4.5379391    5086.6734       -1e+20 
   59100    2.1741856   -4.5321016    5082.2826            1 
   59200    2.2529939   -4.5417728    5096.8239            1 
   59300    2.2068215   -4.5694057    5099.9922            1 
   59400    2.2874679   -4.5701488    5071.1241            1 
   59500     2.184716   -4.5751027    5130.1272            2 
   59600    2.2634056   -4.5874048    5067.8266       -1e+20 
   59700    2.1840462   -4.5129261    5092.2142       -1e+20 
   59800    2.2057148   -4.5117642    5129.0176            1 
   59900    2.2423686   -4.5779993    5074.0296            1 
   60000    2.2068479    -4.584421     5081.214            1 
   60100    2.2346509   -4.5790803    5075.7399            2 
   60200    2.2177547    -4.599142    5066.3944            1 
   60300    2.2068037   -4.5780766    5093.8708            1 
   60400     2.312468   -4.5841046     5074.218            1 
   60500    2.1996127   -4.5638731    5115.6437            1 
   60600    2.2620038   -4.5409972    5100.0956            1 
   60700    2.2174246   -4.6034018    5071.9287       -1e+20 
   60800    2.1897942   -4.5769566     5098.864            1 
   60900    2.2448286   -4.5123136    5103.1127            1 
   61000    2.1941338   -4.5485573    5103.1671       -1e+20 
   61100    2.2128787   -4.5655234    5054.1178       -1e+20 
   61200    2.1939211   -4.6170622    5039.5029            1 
   61300    2.2268103   -4.6295947    5078.7572       -1e+20 
   61400    2.2482748   -4.5167041    5075.3095            1 
   61500    2.2261547   -4.5823573    5082.3162            1 
   61600    2.2114074   -4.6168175    5075.1642            1 
   61700    2.2393716   -4.5346713    5094.7875       -1e+20 
   61800    2.2434496   -4.5164695    5120.2503            1 
   61900    2.1913112   -4.5676712    5103.5184            1 
   62000    2.1998126    -4.509954    5057.6419            1 
   62100    2.2152507   -4.5685197    5084.1902            1 
   62200    2.2285743   -4.6000066    5096.7717            1 
   62300    2.2484553   -4.5929929    5050.5786            1 
   62400     2.212471   -4.5969333    5093.4028       -1e+20 
   62500      2.21789   -4.5177989    5112.3155       -1e+20 
   62600    2.2278512   -4.5174174    5101.8875            1 
   62700    2.2076398   -4.5477529    5103.6111            1 
   62800    2.2393777   -4.5532368     5083.794            2 
   62900    2.2112227   -4.5688198    5114.6619       -1e+20 
   63000     2.243494   -4.5844159    5066.7355       -1e+20 
   63100    2.2222446   -4.5714648     5088.686            1 
   63200    2.1870363   -4.5705308    5057.4835       -1e+20 
   63300    2.2304619   -4.5489834    5086.3703            1 
   63400    2.1923549   -4.5547977    5081.7683       -1e+20 
   63500    2.2616544   -4.5825409    5096.8047            1 
   63600    2.2269694   -4.5669626    5134.3696       -1e+20 
   63700    2.3028831   -4.5383289    5087.1962            1 
   63800    2.2208125   -4.5867199    5122.4887            1 
   63900    2.1881223    -4.544365    5089.0658            1 
   64000    2.2711235   -4.5970231    5050.6176            1 
   64100     2.193591   -4.5948322    5100.1892            1 
   64200    2.2447405   -4.5457237    5071.9856       -1e+20 
   64300    2.2052391   -4.5528688    5080.8757            1 
   64400    2.1925825   -4.5726546    5100.7394       -1e+20 
   64500    2.2387621   -4.5074517    5104.6076            2 
   64600    2.2223381   -4.5318007    5080.7598            1 
   64700    2.2307296   -4.6074859    5096.2115            2 
   64800    2.2844677   -4.5351434    5089.7183            1 
   64900    2.2192505   -4.5364259    5136.9584            1 
   65000    2.2347846   -4.5642106    5110.4878            1 
   65100    2.2321177     -4.52004    5094.2305            1 
   65200    2.1885619   -4.5391486    5103.9136            1 
   65300    2.1986089   -4.5456091    5092.6305            3 
   65400    2.2576783   -4.5195995     5110.357       -1e+20 
   65500    2.1969326   -4.5075011    5117.8008            1 
   65600    2.2484334   -4.5096274    5100.1917            1 
   65700    2.2045922   -4.5717423    5105.1069            1 
   65800    2.2510633   -4.5346631    5083.6241       -1e+20 
   65900    2.1590746   -4.5853915    5079.6631            1 
   66000    2.1902439    -4.599228    5059.9832            1 
   66100    2.2718427   -4.5692958    5071.6391       -1e+20 
   66200    2.1805888    -4.556815    5109.7081            1 
   66300    2.2824909   -4.5519765    5075.1469       -1e+20 
   66400    2.1794863   -4.5029576    5118.2757            1 
   66500    2.2262883    -4.521279    5109.2867       -1e+20 
   66600     2.187841   -4.5319817    5074.9916       -1e+20 
   66700    2.1783381   -4.6233485    5055.1825            1 
   66800    2.2106043   -4.5577694    5062.9402            1 
   66900    2.2004513   -4.5035554    5100.4333            1 
   67000    2.2359254   -4.5170659    5119.5086            1 
   67100      2.22132   -4.5379123    5108.4475            2 
   67200    2.1511031   -4.5568755    5086.9123            1 
   67300    2.2350623   -4.5430734    5047.0527            1 
   67400    2.1358914   -4.5325123    5084.0883            1 
   67500    2.2009043   -4.5057676     5102.021            1 
   67600    2.2456416   -4.5183295     5095.885       -1e+20 
   67700    2.1978831   -4.5776628    5090.6327            1 
   67800    2.2191786   -4.5578743    5079.6996       -1e+20 
   67900    2.2105229   -4.5780688     5059.003            1 
   68000    2.2389521   -4.6286363    5082.9864       -1e+20 
   68100    2.2177311   -4.5545383    5089.2582            1 
   68200    2.2205438    -4.545781     5093.753            1 
   68300    2.2381501   -4.5754645    5115.7226       -1e+20 
   68400    2.2491066   -4.5080948    5085.3887            1 
   68500    2.2011579   -4.5446411    5100.8371            1 
   68600    2.2146021   -4.5719224    5073.7491            1 
   68700    2.2411805   -4.5691722    5047.6119            1 
   68800    2.1720324   -4.5816575    5100.2889            1 
   68900    2.2300393   -4.5276403    5031.2981            1 
   69000    2.2399579   -4.5780601    5094.9333       -1e+20 
   69100    2.2367529   -4.5992843    5113.7118            1 
   69200    2.2315079   -4.5915788    5050.8538            1 
   69300    2.2107807   -4.5815206    5093.7577            2 
   69400    2.2538319   -4.5671152    5082.4075            2 
   69500    2.1869727   -4.5436452    5115.3834       -1e+20 
   69600    2.2266526   -4.5030021    5117.4058            1 
   69700    2.2278264   -4.5189754    5095.0895       -1e+20 
   69800    2.1714996    -4.551709    5106.9878       -1e+20 
   69900    2.2613519   -4.5327288    5085.1608            1 
   70000    2.1945477    -4.568049    5112.5646            1 
   70100    2.2239606   -4.5092013    5087.6919            1 
   70200    2.2178698   -4.5325267    5089.7259            1 
   70300    2.2223425   -4.5709245     5111.455       -1e+20 
   70400    2.2339055   -4.5280921    5086.8271            1 
   70500    2.2716835   -4.5233681    5123.3136            1 
   70600    2.2145212   -4.5402911    5085.9168            1 
   70700    2.2241635   -4.5468593    5105.8566            2 
   70800    2.2297197   -4.5150025    5089.5951            2 
   70900    2.2289869   -4.5772441    5085.5739            1 
   71000    2.1956301    -4.561845    5073.9878            1 
   71100    2.2588288   -4.5567875    5099.8794            1 
   71200    2.2212912   -4.6037237     5117.549            1 
   71300    2.2008676   -4.5873795    5032.6419            1 
   71400    2.1767877   -4.5891687    5060.0588            1 
   71500    2.1908098   -4.5522902    5083.6708            1 
   71600    2.2478688   -4.5350092    5098.6679            1 
   71700    2.1888429   -4.5301068    5087.6391            1 
   71800    2.2346878   -4.5741319    5066.7148            1 
   71900    2.2140063    -4.535848    5098.3118            1 
   72000    2.2244672   -4.5133563      5110.16       -1e+20 
   72100    2.2115136   -4.5373438    5067.5967            2 
   72200    2.2416603   -4.5972748    5111.8004            1 
   72300    2.2123734   -4.5525837    5076.3281            1 
   72400    2.2391692   -4.6043113    5075.5288       -1e+20 
   72500    2.1868735   -4.4984933    5117.8457            1 
   72600    2.2836977   -4.5334535    5080.4623       -1e+20 
   72700    2.1643247   -4.5457718     5094.252       -1e+20 
   72800    2.2431752   -4.5216816    5087.5533       -1e+20 
   72900    2.2123005   -4.5331632     5111.289            1 
   73000    2.2405538   -4.5154188    5107.4133       -1e+20 
   73100    2.2186975   -4.5620699    5084.5918            1 
   73200    2.2233175   -4.5140542    5118.4725            1 
   73300    2.2306433   -4.5237653    5113.1231            1 
   73400     2.193002   -4.5441917    5060.3697            1 
   73500    2.1889962   -4.5708662    5080.3321            1 
   73600    2.2500742   -4.5662867      5057.77            2 
   73700    2.2354842   -4.5691391    5121.3094            1 
   73800    2.1760451   -4.5440248     5062.628            1 
   73900    2.2557031   -4.5709603    5078.3218            1 
   74000    2.2204209   -4.6077803    5100.7528            1 
   74100    2.2496841   -4.6053368    5060.6963            1 
   74200    2.2158204    -4.555311    5120.0717            1 
   74300    2.2272829   -4.5156889    5094.8009            1 
   74400    2.2110917   -4.5552225    5111.1644       -1e+20 
   74500    2.2250464   -4.4937392    5122.9125            1 
   74600    2.2124121   -4.5437525    5103.1564            1 
   74700    2.2270296   -4.5900725    5054.6433            1 
   74800    2.2568486   -4.5859203    5103.2046            1 
   74900    2.2056173   -4.5106193    5080.2666       -1e+20 
   75000    2.2048709   -4.5489023    5072.0396            1 
   75100    2.2487458   -4.5417008    5132.3882       -1e+20 
   75200    2.2481089   -4.5199292    5110.9913            1 
   75300    2.2407932   -4.5458294    5064.7586            1 
   75400    2.1580673   -4.5548646     5095.236            1 
   75500     2.246288   -4.5532938    5080.3137            1 
   75600    2.2279675    -4.522079    5110.0913       -1e+20 
   75700    2.1607309   -4.5754919    5122.5861       -1e+20 
   75800    2.2412499   -4.5153626    5056.1978            1 
   75900    2.1973026   -4.5848202    5099.2417            1 
   76000    2.2459229   -4.5522634    5097.9851            1 
   76100    2.1872632   -4.5462481    5077.1784            1 
   76200    2.2057929   -4.5673857     5059.908            1 
   76300    2.2384546   -4.5584724    5143.3672            1 
   76400    2.2226146    -4.526605    5097.3183            1 
   76500    2.2467916   -4.5906809    5071.4254       -1e+20 
   76600    2.1913478   -4.5390766    5112.8343            1 
   76700    2.2597859   -4.5318935    5105.7755       -1e+20 
   76800    2.2393621   -4.5950233    5090.3514       -1e+20 
   76900    2.2132882    -4.575532    5066.7897            1 
   77000    2.2030332   -4.5867919    5065.0038            1 
   77100    2.2226494   -4.5239136     5081.147            1 
   77200    2.1675457   -4.5222649    5098.3958       -1e+20 
   77300    2.2402476   -4.5819418    5082.9761            1 
   77400    2.2244304   -4.5450117    5102.3542            3 
   77500    2.2008745   -4.5459809    5088.9416       -1e+20 
   77600    2.1962223   -4.5954118    5043.5916            1 
   77700    2.1688593   -4.6116355    5054.7878            1 
   77800    2.2361415   -4.5772331    5089.5897            1 
   77900    2.2066258   -4.5554242    5095.9514            1 
   78000    2.1925142   -4.5597871    5044.4889            1 
   78100    2.2281843    -4.576752    5096.1783            1 
   78200    2.2955449   -4.5307006    5117.3141            1 
   78300    2.2216943   -4.5132011    5086.4688            1 
   78400    2.1910953   -4.5657893    5105.7594       -1e+20 
   78500    2.2490733    -4.551953    5087.3651            1 
   78600    2.1999331   -4.5480586    5116.3289            1 
   78700    2.2437236   -4.5294969    5096.9068            1 
   78800    2.2131413   -4.5508703    5086.6396       -1e+20 
   78900    2.2252577   -4.5855421     5098.584       -1e+20 
   79000    2.2057485     -4.59052    5054.2922       -1e+20 
   79100    2.1957916   -4.5744726    5058.5901            1 
   79200    2.1954386   -4.5130456    5117.6419       -1e+20 
   79300    2.2321045   -4.5316412    5087.7098       -1e+20 
   79400    2.2300337    -4.572581    5092.1158            1 
   79500    2.1715644   -4.5211359    5090.0746            1 
   79600    2.2344975   -4.4785042    5098.9182            1 
   79700    2.1796655   -4.5138739    5123.3846            1 
   79800    2.2664699   -4.5094426     5120.496            1 
   79900    2.2203792   -4.5173494     5094.531            1 
   80000    2.1931355   -4.5264252    5115.8917       -1e+20 
   80100    2.2763912   -4.5454454    5097.6259       -1e+20 
   80200    2.1982055   -4.5065936    5110.8318       -1e+20 
   80300    2.2168021   -4.5540533    5102.7165       -1e+20 
   80400     2.224704   -4.5292149    5055.2189            1 
   80500    2.2043128   -4.5206366    5133.3109            1 
   80600     2.275144   -4.5286765    5106.4611            2 
   80700    2.2268188   -4.5235102    5108.1942            1 
   80800    2.1966026   -4.5039579    5114.7427            1 
   80900    2.2262958   -4.5381053    5070.0525            2 
   81000    2.1612708   -4.5682276    5073.5014       -1e+20 
   81100    2.2461132   -4.5670765    5076.4647       -1e+20 
   81200    2.1996568   -4.5807469    5073.3531            1 
   81300    2.2416298   -4.5808559    5082.6814            2 
   81400    2.2100379   -4.5017012    5142.7315            1 
   81500    2.2669376   -4.5761063    5076.4483            1 
   81600    2.2143988   -4.5837013    5097.6364       -1e+20 
   81700    2.2232319    -4.534824    5082.0161            1 
   81800    2.2349352    -4.556121    5075.1982       -1e+20 
   81900    2.1750864   -4.6000341     5077.131            1 
   82000    2.2364147   -4.5751859    5068.0499            1 
   82100    2.2309068    -4.519389    5091.1734       -1e+20 
   82200    2.1873069   -4.5409419    5128.4033            1 
   82300    2.2623531   -4.5615537    5038.5473       -1e+20 
   82400    2.1530029   -4.5469844    5100.2676            1 
   82500    2.2412831   -4.5788787    5064.4215       -1e+20 
   82600     2.239835   -4.5451644    5096.2712            1 
   82700    2.2208188   -4.5449265     5121.074            2 
   82800    2.2453433   -4.5317167    5078.8257            1 
   82900     2.179242   -4.5567282    5056.3944            1 
   83000    2.2359282   -4.5862217    5097.8907            1 
   83100    2.2510528   -4.5914748    5096.5042            1 
   83200    2.2177171   -4.4991546    5107.7698            1 
   83300    2.2009972   -4.4904843    5094.2401            1 
   83400    2.2274724   -4.5117891    5109.3129            1 
   83500    2.1906587   -4.5908499    5100.1771            1 
   83600     2.221105   -4.5281972    5091.9007       -1e+20 
   83700    2.2540238   -4.5653442    5111.9838            2 
   83800    2.1593913   -4.5296733    5092.8874       -1e+20 
   83900    2.2524913    -4.560133    5074.5828       -1e+20 
   84000    2.2214667   -4.5878244    5096.1078            1 
   84100    2.2244318   -4.5876482    5076.2854            1 
   84200    2.2086543   -4.5548686    5054.4847            1 
   84300    2.1963416   -4.5597887    5120.3642       -1e+20 
   84400    2.2590707   -4.5395289    5071.0503       -1e+20 
   84500    2.2113748   -4.5721668    5099.2047            1 
   84600    2.2517263   -4.5497234    5108.7169            1 
   84700     2.224912   -4.4874092    5135.3557            1 
   84800    2.2498364   -4.5720331    5081.7015       -1e+20 
   84900    2.2146992   -4.6113363    5118.2936            1 
   85000    2.2759583   -4.5374017    5096.8467            1 
   85100    2.2487467   -4.5179553     5132.855            1 
   85200    2.2050058   -4.5419656    5104.4702       -1e+20 
   85300    2.2254302   -4.4951427    5089.2764       -1e+20 
   85400    2.2109963   -4.5128517    5120.2987            1 
   85500    2.1712272   -4.5162481    5071.4447            1 
   85600    2.2412793   -4.5507219    5101.8314            1 
   85700     2.178787   -4.5208908    5102.8825            1 
   85800    2.2630531   -4.5335421    5088.7616            1 
   85900    2.2012121   -4.5947772    5081.9074            1 
   86000    2.2058919   -4.6021447     5073.278       -1e+20 
   86100    2.2361927   -4.5227595    5075.2687            1 
   86200    2.1973122   -4.5564869    5119.0277            1 
   86300    2.2326016   -4.5028872    5075.0776            1 
   86400    2.2167929   -4.5757491    5071.4853            1 
   86500     2.194894   -4.6160339    5077.2368       -1e+20 
   86600    2.2356035   -4.5332164    5073.5743            1 
   86700    2.2205449   -4.5474547    5101.5116       -1e+20 
   86800      2.23749    -4.538688    5102.3367            1 
   86900    2.2151828   -4.5720315    5069.1565            1 
   87000    2.2240718   -4.5015456    5103.9485       -1e+20 
   87100    2.2278628   -4.4941244    5121.8185       -1e+20 
   87200    2.2003799   -4.5328574    5084.5903       -1e+20 
   87300     2.200962   -4.4735188    5104.5951            1 
   87400    2.2206162   -4.5242407    5121.4723            1 
   87500    2.2276109   -4.5645581    5053.6055            1 
   87600    2.2314012   -4.5900781    5097.8836            1 
   87700    2.2363865   -4.5788459    5106.9344            1 
   87800    2.2277951   -4.5315106    5056.8446            1 
   87900    2.1722243   -4.5971903    5091.6184       -1e+20 
   88000    2.2324421   -4.5872262    5087.0866       -1e+20 
   88100    2.2268385    -4.503678    5108.8964            1 
   88200    2.2238249   -4.5401334    5094.5889            1 
   88300    2.2271249   -4.5910272    5080.3109            1 
   88400    2.2322229   -4.5258504    5094.2515       -1e+20 
   88500    2.2281777   -4.5180405    5098.2686       -1e+20 
   88600    2.2180065   -4.5610218    5105.7422            1 
   88700    2.2212952   -4.5049474    5085.0975       -1e+20 
   88800    2.2294368     -4.55166    5100.6464            1 
   88900    2.1859603   -4.5736581    5089.9915            1 
   89000    2.2395965   -4.5337843    5071.6162            1 
   89100    2.2067089   -4.5302505    5142.0458            1 
   89200    2.2775485   -4.5475616    5089.7186       -1e+20 
   89300    2.1916326   -4.5476185    5085.8442       -1e+20 
   89400    2.2285921    -4.502623    5095.9147       -1e+20 
   89500    2.2293078    -4.507546    5145.1542       -1e+20 
   89600    2.1951777    -4.510316    5113.4318       -1e+20 
   89700    2.2350517   -4.5060282    5089.9931            1 
   89800    2.2116323   -4.5601898    5139.1586            1 
   89900    2.1924923   -4.5326037    5060.9781       -1e+20 
   90000    2.2416298   -4.5436174    5083.8268            1 
   90100    2.1803823   -4.5274939     5122.426            1 
   90200    2.2715409   -4.5107465    5077.5025       -1e+20 
   90300    2.2255012   -4.5623828     5126.378       -1e+20 
   90400    2.2536129   -4.5364273    5101.2981            1 
   90500     2.214158   -4.5705184    5064.3401       -1e+20 
   90600    2.2579554    -4.568314    5101.4576            1 
   90700     2.221845   -4.5146519     5108.108            1 
   90800    2.2225611   -4.5461523    5081.8204            1 
   90900    2.2021059   -4.6061901    5087.5179            1 
   91000    2.2054352   -4.5695489    5063.3294            1 
   91100    2.2535646    -4.521935    5075.6881            1 
   91200    2.1978789    -4.552484    5099.7137            1 
   91300    2.2362267   -4.5803923    5074.7571            1 
   91400    2.2509271   -4.5692052    5100.1315            1 
   91500    2.2067806   -4.5143427    5110.5253       -1e+20 
   91600     2.207065   -4.5373663    5086.6965       -1e+20 
   91700    2.2232846   -4.6265436     5060.606            1 
   91800    2.2341496   -4.5338847    5090.1934       -1e+20 
   91900    2.2038514   -4.4949331    5108.6642            2 
   92000    2.2452312   -4.5404396     5115.388            1 
   92100    2.2148191   -4.5863492     5073.615       -1e+20 
   92200     2.250058    -4.562238    5084.4625       -1e+20 
   92300    2.1650203   -4.5836363    5094.4153            1 
   92400    2.2509576   -4.5795996    5053.7005            1 
   92500    2.2387082   -4.5431477    5087.4606            3 
   92600    2.2075478   -4.5230008    5154.6639            1 
   92700    2.2451864   -4.5623764    5082.9972            1 
   92800    2.1892316   -4.5569425    5063.9278       -1e+20 
   92900    2.2475231   -4.5708381     5107.845       -1e+20 
   93000    2.2332806   -4.5508485     5082.594            1 
   93100    2.2138562   -4.5842086    5063.3211            1 
   93200     2.211431   -4.5572877    5094.8643            1 
   93300     2.243467   -4.5342281    5098.5947       -1e+20 
   93400    2.2304108   -4.5764806    5091.0019            1 
   93500    2.2382263   -4.5533994     5080.534            1 
   93600    2.1760674   -4.5981775    5088.6119            1 
   93700    2.2516789   -4.5651901    5054.3844            1 
   93800      2.15726   -4.5209462    5095.2847            1 
   93900    2.2241428   -4.5336593    5094.6332       -1e+20 
   94000    2.2420681   -4.5079674     5107.445       -1e+20 
   94100    2.1940906   -4.5273751    5115.1957            1 
   94200    2.2440272   -4.5196894    5090.4578            1 
   94300    2.2083403   -4.5132196    5139.9298            1 
   94400     2.256853   -4.5632084    5107.7317       -1e+20 
   94500    2.2226305   -4.5386496    5068.3078            1 
   94600    2.2148889   -4.5349434    5135.7206            1 
   94700     2.253901   -4.5216468    5066.0713       -1e+20 
   94800    2.2049655   -4.5604463    5128.7002       -1e+20 
   94900    2.2442765    -4.564223    5094.8181            1 
   95000    2.2139227   -4.4968025    5087.4676            1 
   95100    2.1633461   -4.5315117    5078.1599       -1e+20 
   95200    2.2260541   -4.5393662    5078.3371            2 
   95300    2.1980584    -4.593768    5093.0123            1 
   95400    2.2711984   -4.5484325    5056.3528            1 
   95500    2.1749352   -4.5380532     5090.304            1 
   95600    2.2226162    -4.548506    5071.5697            1 
   95700    2.2226321   -4.5784057     5079.557       -1e+20 
   95800    2.2216018    -4.566121    5096.6611            2 
   95900    2.2247223   -4.4867571    5106.9206            1 
   96000    2.2281212   -4.6043018    5095.7251            1 
   96100    2.2084001   -4.5831419    5107.7875            1 
   96200    2.2503956   -4.6003781    5040.8466       -1e+20 
   96300    2.1999059   -4.5554688    5111.4033            1 
   96400    2.2498237   -4.5137566    5095.1294            3 
   96500    2.1934648    -4.519821    5087.8959            1 
   96600    2.2186465   -4.5577791    5087.9249       -1e+20 
   96700    2.2584634   -4.5043124    5113.1175            1 
   96800     2.174224   -4.4725041    5116.1447       -1e+20 
   96900    2.2330551   -4.5184522    5109.4801            1 
   97000    2.1978731    -4.534012    5048.9775            2 
   97100    2.2232837   -4.6032416    5088.5989            1 
   97200    2.2296417   -4.5979376    5093.7614            1 
   97300    2.2483675   -4.5526838    5098.3647       -1e+20 
   97400    2.2086313   -4.5782757    5100.0794       -1e+20 
   97500    2.2907193   -4.5229726    5059.8387            1 
   97600    2.1722882   -4.5528069    5118.7571            2 
   97700    2.2339988   -4.5740461    5063.1208            1 
   97800     2.188943   -4.5246848    5064.4639            1 
   97900    2.2423934   -4.6018394    5091.2317            1 
   98000    2.1831628   -4.5375637    5076.7038            1 
   98100    2.2455856   -4.5565373    5084.2157       -1e+20 
   98200    2.2202356   -4.5433651     5121.387       -1e+20 
   98300    2.2127024   -4.5822349    5074.0582            1 
   98400    2.2096213   -4.5326352    5118.5572            1 
   98500    2.2870682   -4.5220596    5127.7573            1 
   98600    2.2186583    -4.536212    5096.2462            1 
   98700    2.2080705   -4.5427706    5048.1496            1 
   98800    2.1405535   -4.5707588    5079.8109            1 
   98900    2.2011208   -4.5113612    5078.7813            1 
   99000    2.2427123   -4.5388889    5081.1594       -1e+20 
   99100    2.1940696   -4.5892892    5090.8368            1 
   99200    2.2409519   -4.6197923    5047.9056            1 
   99300    2.1781568    -4.580882    5060.6179       -1e+20 
   99400    2.2230914   -4.5809572    5094.7746            1 
   99500    2.2142477   -4.5569108    5066.0612            1 
   99600    2.2386568   -4.5912761    5089.3571            1 
   99700      2.19532   -4.5334773    5108.1223            1 
   99800    2.2296492   -4.5254846    5044.9201            1 
   99900    2.1489017   -4.5726004    5127.3189            1 
  100000     2.253521   -4.5256704    5060.6678       -1e+20 
  100100    2.1888706   -4.5349648    5101.0303            1 
  100200    2.2682175      -4.5576    5108.7578       -1e+20 
  100300    2.2224223   -4.5460704    5076.0756            1 
  100400    2.1982052   -4.5300095    5089.2104       -1e+20 
  100500    2.2198163    -4.573575    5076.8297            1 
  100600     2.250992    -4.578519    5059.3752            2 
  100700    2.1903337   -4.5457908    5137.6075            2 
  100800    2.2303571   -4.4949309    5083.9672       -1e+20 
  100900    2.2102029   -4.5819122    5109.2257            1 
  101000    2.2161542   -4.5421426    5083.2749            1 
  101100    2.2450352   -4.5868529    5089.8479            1 
  101200    2.2031695   -4.5262116     5126.592       -1e+20 
  101300    2.2530538   -4.5410691    5075.1512       -1e+20 
  101400    2.2066285    -4.561543    5097.9241       -1e+20 
  101500    2.2336994    -4.530689    5108.6183            1 
  101600    2.2560061   -4.4928908     5133.167            1 
  101700    2.2453898   -4.5582351    5073.4974            1 
  101800    2.2036549   -4.5658791    5096.5039       -1e+20 
  101900    2.2622689   -4.5114545    5093.6171            1 
  102000    2.2282748   -4.5432807    5073.2482       -1e+20 
  102100    2.1532543   -4.5417217    5112.9351            1 
  102200    2.2721195   -4.5427675    5084.0862            1 
  102300    2.2173709   -4.5785426    5095.9712            1 
  102400    2.1760453   -4.5842024    5063.5053       -1e+20 
  102500    2.2397853   -4.5944179    5054.7347       -1e+20 
  102600    2.2063498   -4.5704484    5093.0464            1 
  102700    2.2745914   -4.5745586    5097.6867            1 
  102800     2.224826   -4.6032293    5084.0187            1 
  102900    2.1855903   -4.5325186     5079.816            1 
  103000    2.2345915   -4.5228228    5082.4835            2 
  103100    2.2278639   -4.5519794    5143.1092            1 
  103200    2.2424572   -4.5448627    5085.0195            1 
  103300    2.2154511   -4.5590337    5078.6113            1 
  103400     2.249659   -4.5409517    5115.1539            1 
  103500     2.240583   -4.5558262    5121.4469            1 
  103600    2.2435916   -4.5479243    5072.0121            1 
  103700    2.1850086   -4.5911551    5074.1008            1 
  103800    2.2484762   -4.5700922    5085.5607            1 
  103900    2.2067269   -4.4675657    5109.0381       -1e+20 
  104000    2.2638609   -4.5115705    5128.5961            1 
Loop time of 153.803 on 24 procs for 100000 steps with 4000 atoms

Performance: 112351.313 tau/day, 650.181 timesteps/s
99.7% CPU use with 24 MPI tasks x no OpenMP threads

MPI task timing breakdown:
Section |  min time  |  avg time  |  max time  |%varavg| %total
---------------------------------------------------------------
Pair    | 16.482     | 17.16      | 17.657     |   8.7 | 11.16
Neigh   | 3.0708     | 3.1295     | 3.2672     |   2.4 |  2.03
Comm    | 9.0374     | 9.9442     | 10.565     |  13.9 |  6.47
Output  | 3.7279     | 3.7287     | 3.7403     |   0.1 |  2.42
Modify  | 117.85     | 118.64     | 119.3      |   3.6 | 77.14
Other   |            | 1.199      |            |       |  0.78

Nlocal:        166.667 ave         180 max         156 min
Histogram: 3 0 4 5 4 2 1 3 1 1
Nghost:        1851.25 ave        1867 max        1836 min
Histogram: 3 3 3 2 0 3 2 4 2 2
Neighs:        14837.1 ave       16362 max       13663 min
Histogram: 2 3 4 4 2 0 6 0 2 1
FullNghs:      29673.9 ave       32875 max       27299 min
Histogram: 2 2 3 6 3 2 2 3 0 1

Total # of neighbors = 712173
Ave neighs/atom = 178.04325
Neighbor list builds = 8782
Dangerous builds = 1055

#clear
#
#next RN
#
#jump SELF
Total wall time: 0:02:35
