
units lj                  # Use reduced LJ style units
atom_style atomic         # Uncharged point particles
atom_modify map hash      # Needed for indexing of clusters etc
                          # Used to be able to find where atoms are in relation to each other.

lattice fcc 1.0 spacing 1 1 1
Lattice spacing in x,y,z = 1.5874011 1.5874011 1.5874011
region box block 0 10 0 10 0 10 units lattice
create_box 2 box
Created orthogonal box = (0.0000000 0.0000000 0.0000000) to (15.874011 15.874011 15.874011)
  3 by 4 by 4 MPI processor grid
create_atoms 1 box
Created 4000 atoms
  using lattice units in orthogonal box = (0.0000000 0.0000000 0.0000000) to (15.874011 15.874011 15.874011)
  create_atoms CPU = 0.002 seconds
set type 1 type/fraction 2 0.05 78393
Setting atom values ...
  207 settings made for type/fraction
mass 1 1.0
mass 2 1.0
pair_style lj/cut  3.5
pair_modify tail  yes
pair_coeff 1  1  1.0  1.0   # Intearaction between 1 and 1 set with epsilon = 1 and sigma = 1
pair_coeff 1  2  1.5  0.8
pair_coeff 2  2  0.5  0.88

write_data data.0
System init for write_data ...
Neighbor list info ...
  update every 1 steps, delay 10 steps, check yes
  max neighbors/atom: 2000, page size: 100000
  master list distance cutoff = 3.8
  ghost atom cutoff = 3.8
  binsize = 1.9, bins = 9 9 9
  1 neighbor lists, perpetual/occasional/extra = 1 0 0
  (1) pair lj/cut, perpetual
      attributes: half, newton on
      pair build: half/bin/atomonly/newton
      stencil: half/bin/3d
      bin: standard
WARNING: Not all mixed pair coeffs generated from mixing. Use write_data with 'pair ij' option to store all pair coeffs. (../write_data.cpp:312)


#############################
#   M E L T   S Y S T E M   #
#############################

velocity all create 2.4 1741580 mom yes dist gaussian # Assign velocities
                                                    # Temperature 2.4, random number seed, zero linear momentum
                                                                                # Gaussian distribution

timestep 0.002   # simulation timestep
thermo 1000       # output thermodynamic data every 1000 steps bf 100

# Define a fix  in this case with index 1 applied to all
# particles in the simulation. This fix is for simulations
# in the anisotropic NPT ensemble. Note that we use the MTK
# correction.
fix 1 all npt temp 2.4 2.4 0.1 iso 5.68 5.68 0.5 mtk yes tchain 5 pchain 5 # Use NPT ensemble
                                                                         # Set temperature and pressure and damping
                                                                         # Numbers of thermostats in chain and in barostat
run 10000          # run for 10000 steps
Per MPI rank memory allocation (min/avg/max) = 3.642 | 3.644 | 3.648 Mbytes
Step Temp E_pair E_mol TotEng Press Volume 
       0          2.4   -8.0440018            0   -4.4449018    -2.648783         4000 
    1000    2.3755167   -4.4414721            0  -0.87908778    5.9238775    5031.6692 
    2000    2.4464359   -4.4525938            0  -0.78385734    5.9993764    5021.8414 
    3000    2.4370817    -4.492025            0  -0.83731639    5.6662567    5032.0282 
    4000    2.3905965   -4.4770343            0    -0.892036    5.8045227    5020.6172 
    5000    2.3558523   -4.4420002            0  -0.90910513    5.5740413     5080.558 
    6000    2.4031135   -4.4817835            0  -0.87801445    5.6976386    5039.0147 
    7000    2.4007224   -4.4850179            0   -0.8848345    5.4014879    5079.0569 
    8000    2.3899334   -4.4779598            0  -0.89395591    5.7580162    5036.2026 
    9000    2.3778978    -4.473713            0  -0.90775808     5.601714    5059.3129 
   10000    2.3750348    -4.484487            0  -0.92282546    5.6434352    5041.2576 
Loop time of 2.07474 on 48 procs for 10000 steps with 4000 atoms

Performance: 832876.118 tau/day, 4819.885 timesteps/s
99.6% CPU use with 48 MPI tasks x no OpenMP threads

MPI task timing breakdown:
Section |  min time  |  avg time  |  max time  |%varavg| %total
---------------------------------------------------------------
Pair    | 0.87091    | 0.92935    | 0.9773     |   2.6 | 44.79
Neigh   | 0.16836    | 0.17487    | 0.18141    |   0.7 |  8.43
Comm    | 0.64452    | 0.71342    | 0.78017    |   3.7 | 34.39
Output  | 0.00024127 | 0.00024551 | 0.00030824 |   0.0 |  0.01
Modify  | 0.21427    | 0.24287    | 0.27291    |   3.3 | 11.71
Other   |            | 0.01398    |            |       |  0.67

Nlocal:        83.3333 ave          91 max          75 min
Histogram: 2 4 4 6 2 10 8 4 5 3
Nghost:        1411.48 ave        1433 max        1376 min
Histogram: 2 1 0 4 4 10 4 13 7 3
Neighs:        7557.56 ave        8514 max        6689 min
Histogram: 4 4 3 10 4 5 11 3 1 3

Total # of neighbors = 362763
Ave neighs/atom = 90.690750
Neighbor list builds = 907
Dangerous builds = 211

# Equilibrate just above the melting temperature to avoid step fn in T

fix 1 all npt temp 1.25 1.25 0.1 iso 5.68 5.68 0.5 mtk yes tchain 5 pchain 5
run 2000
Per MPI rank memory allocation (min/avg/max) = 3.643 | 3.646 | 3.650 Mbytes
Step Temp E_pair E_mol TotEng Press Volume 
   10000    2.3750348    -4.484487            0  -0.92282546    5.6434352    5041.2576 
   11000    1.2498848   -6.0144342            0   -4.1400756    5.5831448    4177.0404 
   12000    1.2617961   -6.0271163            0   -4.1348953    5.3611226     4186.566 
Loop time of 0.450556 on 48 procs for 2000 steps with 4000 atoms

Performance: 767051.998 tau/day, 4438.958 timesteps/s
99.6% CPU use with 48 MPI tasks x no OpenMP threads

MPI task timing breakdown:
Section |  min time  |  avg time  |  max time  |%varavg| %total
---------------------------------------------------------------
Pair    | 0.20072    | 0.21321    | 0.22526    |   1.3 | 47.32
Neigh   | 0.030523   | 0.03219    | 0.03392    |   0.4 |  7.14
Comm    | 0.14177    | 0.15378    | 0.16643    |   1.7 | 34.13
Output  | 4.9303e-05 | 5.0706e-05 | 6.5576e-05 |   0.0 |  0.01
Modify  | 0.040036   | 0.047055   | 0.052002   |   1.4 | 10.44
Other   |            | 0.004268   |            |       |  0.95

Nlocal:        83.3333 ave          89 max          78 min
Histogram: 4 3 6 5 8 5 6 4 4 3
Nghost:        1598.25 ave        1620 max        1577 min
Histogram: 2 2 8 4 8 7 7 7 1 2
Neighs:        9091.38 ave        9918 max        8389 min
Histogram: 2 6 5 8 9 5 4 4 2 3

Total # of neighbors = 436386
Ave neighs/atom = 109.09650
Neighbor list builds = 143
Dangerous builds = 10

#############################
# L I N E A R  Q U E N C H  #
#############################

# Define solid atoms. This closely follows ten Wolde  Ruiz-Montero and Frenkel  Faraday Discuss  1996  104  93-110
# Compute components of the per-atom q6 vector
compute q6 all orientorder/atom degrees 1 6 components 6 nnn NULL cutoff 1.3 # compute the Q6 parameter.
                                                                             # Use all neighbours within 1.3 unit cell.

# get number of connections
compute coord_number all coord/atom orientorder q6 0.5

# An atom is solid if it has 8 or more connections (of a possible 14)
variable is_solid atom c_coord_number>=8
group solid dynamic all var is_solid    # Must be dynamic to update
dynamic group solid defined

# do clustering
compute cluster solid cluster/atom 1.3 # Create a cluster where all atoms within are solid and max 1.3 units from another member

# define chunks one chunk per cluster
compute clus_chunks solid chunk/atom c_cluster nchunk every compress yes  # Says which atoms are in which chunk

# count the size of each chunk
compute size_chunks solid property/chunk clus_chunks count


# Find the maximum entry in the vector of chunk sizes
variable max_n equal max(c_size_chunks)


# Thermo style which includes this variable
# thermo_style custom step temp pe vol v_max_n

thermo ${N}  # Print the thermo information every 100 steps
thermo 1000  

# Reset the npt fix at a lower temperature (below freezing)
fix 1  all npt temp  ${temp} ${temp}  0.1  iso  5.68  5.68  0.5  mtk yes tchain  5  pchain  5
fix 1  all npt temp  0.45 ${temp}  0.1  iso  5.68  5.68  0.5  mtk yes tchain  5  pchain  5
fix 1  all npt temp  0.45 0.45  0.1  iso  5.68  5.68  0.5  mtk yes tchain  5  pchain  5

dump dmp2 all dcd ${N} traj.dcd
dump dmp2 all dcd 1000 traj.dcd


compute msd all msd com yes
variable twopoint equal c_msd[4]/6/(step*dt+1.0e-6)
fix 9 all vector 10 c_msd[4]
variable fit equal slope(f_9)/6/(10*dt)
thermo_style custom step temp pe c_msd[4] v_twopoint v_fit v_max_n

fix 1 all npt temp 1.25 ${temp} 0.1 iso 5.68 5.68 0.5 mtk yes tchain 5 pchain 5
fix 1 all npt temp 1.25 0.45 0.1 iso 5.68 5.68 0.5 mtk yes tchain 5 pchain 5
run 500000 # 5000000  # Run for this many steps
Neighbor list info ...
  update every 1 steps, delay 10 steps, check yes
  max neighbors/atom: 2000, page size: 100000
  master list distance cutoff = 3.8
  ghost atom cutoff = 3.8
  binsize = 1.9, bins = 9 9 9
  4 neighbor lists, perpetual/occasional/extra = 1 3 0
  (1) pair lj/cut, perpetual
      attributes: half, newton on
      pair build: half/bin/atomonly/newton
      stencil: half/bin/3d
      bin: standard
  (2) compute orientorder/atom, occasional
      attributes: full, newton on
      pair build: full/bin/atomonly
      stencil: full/bin/3d
      bin: standard
  (3) compute coord/atom, occasional
      attributes: full, newton on
      pair build: full/bin/atomonly
      stencil: full/bin/3d
      bin: standard
  (4) compute cluster/atom, occasional
      attributes: full, newton on
      pair build: full/bin/atomonly
      stencil: full/bin/3d
      bin: standard
Per MPI rank memory allocation (min/avg/max) = 9.738 | 9.744 | 9.750 Mbytes
Step Temp PotEng c_msd[4] v_twopoint v_fit v_max_n 
   12000    1.2617961   -6.0271163 2.0403887e-30 1.4169366e-32 8.3333333e+20            4 
   13000    1.2438355    -6.019458    0.5509592 0.0035317896  0.045562497            3 
   14000    1.2421673   -6.0256376    1.0741927  0.006394004   0.04428075            3 
   15000    1.2305465   -6.0141951    1.5839432 0.0087996843  0.043962253            2 
   16000    1.2212523   -6.0612967    2.1373984  0.011132283  0.043979113            3 
   17000    1.2489322   -6.0704303    2.7395843  0.013429334  0.044981356            3 
   18000    1.2449593   -6.0467882    3.3503894  0.015511062  0.046158229            3 
   19000    1.2249541   -6.0757889    3.8587336   0.01692427    0.0464553            5 
   20000    1.2355213    -6.005018    4.4291737   0.01845489  0.046529846            2 
   21000    1.2455483   -6.0485175    4.9154904  0.019505914  0.046324038            3 
   22000     1.230307   -6.0328381    5.4263371  0.020554307  0.045983234            6 
   23000    1.2422831   -6.0457728    5.9839428  0.021680952  0.045739439            5 
   24000    1.2274656    -6.034778    6.5861265  0.022868494  0.045661936            4 
   25000    1.2231729   -6.0842922    7.0907029  0.023635676  0.045621301            2 
   26000    1.2395492   -6.0948066    7.6224392  0.024430894  0.045513549            5 
   27000    1.2317198   -6.0339534    8.1686418  0.025211857   0.04540626            2 
   28000    1.2073682   -6.0605182    8.6835789  0.025843984  0.045394521            2 
   29000    1.2089742   -6.0969722     9.159424  0.026320183  0.045226899            4 
   30000    1.2357331   -6.0558735    9.7875716  0.027187698  0.045165214            5 
   31000    1.2116751    -6.039019    10.230952  0.027502558  0.045099173            2 
   32000       1.2075   -6.0826408    10.705039  0.027877706  0.044970394            2 
   33000    1.2221312   -6.0801093    11.347493  0.028655284  0.044893801            3 
   34000    1.1892864   -6.1047901    11.849575  0.029043076  0.044863897            3 
   35000    1.2024693    -6.059103    12.389931  0.029499835  0.044834855            3 
   36000    1.2112645   -6.0712189    12.823976   0.02968513  0.044778629            4 
   37000    1.2174081   -6.0680688    13.273812  0.029895972  0.044649806            2 
   38000    1.2255346    -6.066428     13.67915  0.029998135  0.044479725            4 
   39000    1.1954828   -6.0785884     14.19281  0.030326516  0.044265225            3 
   40000    1.1846602   -6.0922078    14.721577  0.030669952  0.044096689            3 
   41000    1.1940327   -6.0839329    15.267857   0.03103223  0.043969458            1 
   42000     1.208382   -6.0937242    15.732677  0.031215629  0.043837974            2 
   43000    1.2133858    -6.090705    15.985145  0.030978963   0.04367302            3 
   44000    1.1781137    -6.097575    16.520736  0.031289272  0.043464433            3 
   45000     1.191212   -6.1215719    16.959722  0.031406892  0.043288566            5 
   46000    1.2232783    -6.124564    17.581643  0.031850803  0.043144935            3 
   47000    1.2138795   -6.1306249    18.144417  0.032170951  0.043013742            2 
   48000    1.1870929   -6.1184624    18.547983  0.032201359  0.042913625            3 
   49000    1.2033155   -6.1570563     18.84533  0.032049881  0.042785767            3 
   50000    1.2012074   -6.1141579    19.495103  0.032491838  0.042654001            2 
   51000    1.1615717   -6.1328254    19.998354  0.032677049  0.042550468            4 
   52000    1.1812905   -6.1173826    20.282933    0.0325047  0.042433454            1 
   53000    1.1780676   -6.0983653    20.736807  0.032605042   0.04229617            2 
   54000    1.1741264   -6.1550474    21.211691   0.03273409  0.042170597            3 
   55000    1.1627153   -6.1487732    21.588688  0.032710133  0.042055025            4 
   56000    1.1956148   -6.1227797    21.967559   0.03268982  0.041908413            3 
   57000    1.2023161   -6.1235877    22.381445  0.032721411  0.041752002            2 
   58000    1.1634627   -6.1373527    23.043751  0.033108837  0.041618449           10 
   59000    1.1877327   -6.1390038    23.414602  0.033071472  0.041517438            4 
   60000    1.1699522   -6.1487059    23.939387  0.033249148  0.041414856            4 
   61000    1.1385887   -6.1275265    24.515747  0.033491458  0.041333812            5 
   62000    1.1465897   -6.1568095    24.912661  0.033484759  0.041255984            3 
   63000    1.1685581   -6.1599988    25.229785  0.033372732  0.041160955            3 
   64000    1.1732954   -6.1663966    25.723323   0.03349391  0.041075106            2 
   65000    1.1560295   -6.1810504    26.372361  0.033810719  0.040997314            3 
   66000    1.1561897   -6.1610459    26.843652    0.0338935  0.040938368            4 
   67000    1.2153995   -6.1620385    27.259887  0.033905332  0.040882471            2 
   68000    1.1531839   -6.1999734    27.733835  0.033987542    0.0408213            3 
   69000    1.1905566   -6.1632668    28.420008  0.034323681  0.040775635            3 
   70000    1.1408051   -6.2108395    28.786818  0.034270022  0.040737781            3 
   71000    1.1503748   -6.1997081    29.026066  0.034068152  0.040680362            4 
   72000    1.1792623   -6.2155984    29.423365   0.03405482  0.040613127            6 
   73000    1.1508109   -6.1909344    29.821749  0.034043092  0.040535846            6 
   74000    1.1397097   -6.1598324    30.229658  0.034042407  0.040459324            3 
   75000    1.1271387   -6.1753098    30.730917  0.034145463  0.040382857            4 
   76000     1.138723   -6.1829335    31.352202  0.034377414  0.040325577            4 
   77000    1.1578325   -6.1964102    31.719523  0.034328488  0.040264582            5 
   78000    1.1527853    -6.211759    31.939847  0.034123768  0.040193305            5 
   79000    1.1330117   -6.1963094    32.452731  0.034232839  0.040119275            4 
   80000     1.151189   -6.1882462    33.011891  0.034387386  0.040050665            4 
   81000    1.1302901   -6.2117633     33.35648  0.034317366   0.03998751            4 
   82000    1.1247642   -6.2320729    34.018347  0.034571491  0.039939329            6 
   83000    1.1341553   -6.2120685    34.623648  0.034762699  0.039902857            3 
   84000    1.1355164    -6.191159    34.886492  0.034609615  0.039868505            2 
   85000    1.1411093   -6.2261689    35.162641  0.034473177  0.039820185            4 
   86000    1.1085417   -6.2065326     35.76904  0.034659922    0.0397696            7 
   87000    1.1207632   -6.2554115    35.927075  0.034412906  0.039723608            3 
   88000    1.1397447   -6.2471262    36.526658  0.034589638  0.039671403            4 
   89000    1.0991064   -6.2001705    37.069725   0.03470948  0.039618807            6 
   90000      1.12349   -6.2699973    37.365174  0.034597384  0.039568489            5 
   91000    1.1189332   -6.2740707    38.028659  0.034824779  0.039526898            4 
   92000    1.1231773   -6.2688478    38.264688  0.034660043  0.039485535            7 
   93000    1.1239551   -6.2433794     38.62865  0.034613485  0.039430559            7 
   94000     1.119215    -6.206865    38.761276  0.034362833   0.03936135            4 
   95000     1.110282   -6.2573811    39.230114  0.034412381  0.039287325            6 
   96000    1.1329904   -6.2592329    39.955938  0.034683974  0.039229255            5 
   97000    1.1096386   -6.2953768     40.41064  0.034717044  0.039182162            3 
   98000    1.1074001   -6.2380382    40.740481  0.034643266  0.039140574            3 
   99000    1.1357527   -6.2836425    41.294385  0.034759583  0.039093002            4 
  100000    1.1304469   -6.1978629    41.706974  0.034755812  0.039048542            7 
  101000    1.1133645   -6.2734074    42.192958  0.034812671  0.039008059            3 
  102000    1.1168755   -6.2548485    42.400887  0.034641247  0.038961568            5 
  103000    1.1088516   -6.2666222    42.829567  0.034651753  0.038911946            4 
  104000    1.0772419   -6.2950763    42.959708  0.034422843  0.038851203            5 
  105000    1.0994771   -6.2892589    43.299987  0.034365069  0.038780413            4 
  106000    1.1077787    -6.276431    43.965127  0.034563779  0.038715101            2 
  107000    1.1046124   -6.2910389    44.296642  0.034498942  0.038653512            4 
  108000    1.1074916   -6.2597785    44.557872  0.034381074  0.038588463            4 
  109000     1.097813   -6.2714534    44.858329  0.034295358  0.038510822            7 
  110000    1.0822988   -6.3108538    44.891855  0.034008981  0.038432314            2 
  111000    1.0918089   -6.3063058     45.49325  0.034154091  0.038350875            9 
  112000    1.0978074   -6.2431143    46.048017  0.034261917  0.038279457            5 
  113000    1.0754765   -6.2610615    46.244663  0.034103734  0.038206637            5 
  114000    1.1359824   -6.3122412    46.530034  0.034013182   0.03813263            4 
  115000    1.0891478   -6.3095863    46.988424  0.034049583  0.038058771            9 
  116000    1.0874562   -6.2711337    47.389468  0.034044158  0.037984875            5 
  117000    1.0769038   -6.3116536     47.94343  0.034147742   0.03791317            6 
  118000    1.0852775   -6.3089515    48.186904  0.034030299  0.037841631            7 
  119000    1.0711421   -6.3394034    48.537445  0.033989807  0.037770355            3 
  120000    1.0715624   -6.2948019    49.044793  0.034058884  0.037700989            5 
  121000    1.0887003   -6.3331112    49.371656  0.034002517  0.037629414            3 
  122000    1.0794713   -6.3294046    49.554817  0.033848918  0.037559542            2 
  123000    1.0718329   -6.3537882    49.864367  0.033783446  0.037485253            3 
  124000     1.073216    -6.340464    50.273658   0.03378606  0.037410917            3 
  125000    1.0817079   -6.3493397    50.647852  0.033765235   0.03733921            5 
  126000     1.098042   -6.3197749    50.906065  0.033668032   0.03726528            3 
  127000     1.052056    -6.350825     51.18605  0.033586647  0.037189366            4 
  128000    1.0718509   -6.3357949     51.46706    0.0335072  0.037112317            7 
  129000    1.0475797   -6.3515509    51.626077  0.033350179  0.037032304            5 
  130000    1.0497975   -6.3356774    51.971909  0.033315326  0.036950104            4 
  131000    1.0770619    -6.333235    52.546501  0.033426527  0.036870859            2 
  132000    1.0296066   -6.3473058    53.060086  0.033497529  0.036794756            2 
  133000    1.0831227   -6.3564322    53.093861   0.03326683  0.036713867            5 
  134000    1.0631718   -6.3820068    53.436434  0.033231613  0.036633171            4 
  135000    1.0643916   -6.3601681    53.777728  0.033196128  0.036553376            4 
  136000    1.0329253   -6.3825407    53.979605  0.033075738  0.036470258            4 
  137000    1.0589301   -6.3698811    54.032803  0.032866668  0.036381225           11 
  138000    1.0442882   -6.3640928    54.431722  0.032869397  0.036293564            8 
  139000     1.043208   -6.3684692    54.871136  0.032896364  0.036208884            7 
  140000    1.0575525   -6.3636647     55.17429  0.032841839  0.036125574            8 
  141000     1.043191   -6.3800751    55.322773  0.032696674  0.036038722            5 
  142000     1.044341   -6.4143123     55.76495   0.03272591  0.035952703           11 
  143000    1.0345138   -6.3856677    56.175986  0.032736589  0.035868539            6 
  144000    1.0430233   -6.3804526    56.296036  0.032578724   0.03578445            3 
  145000    1.0217376   -6.4035746    56.457511  0.032446846  0.035698072            5 
  146000    1.0378179   -6.3930831    56.875639  0.032463264   0.03560804            3 
  147000    1.0368015   -6.3832108    57.161002  0.032404196  0.035520024            2 
  148000    1.0440293    -6.424749    57.193167   0.03220336  0.035433582            5 
  149000    1.0082514   -6.4049872    57.502393  0.032160175  0.035343678            9 
  150000    1.0178645   -6.4060977    57.775222  0.032097345  0.035254927            7 
  151000     1.037032   -6.4284246    58.107362  0.032068081  0.035164911            4 
  152000    1.0121051   -6.4221935    58.321606  0.031974564  0.035074254           14 
  153000    1.0327397   -6.4385546    58.409159  0.031813267  0.034982275           15 
  154000    1.0294215   -6.4415356    58.527001  0.031670455  0.034886477            2 
  155000    1.0283455   -6.4330942    58.812386  0.031619562  0.034787624           10 
  156000    1.0269289   -6.4272263     59.18478  0.031615801  0.034691502            3 
  157000    1.0396773   -6.4714086    59.504721  0.031584247  0.034595593            7 
  158000   0.99596081   -6.4580575    59.808341  0.031544484  0.034502455            4 
  159000    1.0070372   -6.4583345    60.024015  0.031459127  0.034406134            6 
  160000    1.0027975   -6.4218416    60.398129  0.031457359  0.034314292           10 
  161000     1.001068   -6.4378834    60.781295  0.031460297  0.034226408            4 
  162000    1.0138069   -6.4587493    60.880265  0.031317009  0.034137456            3 
  163000    1.0080062   -6.4703394    61.134583  0.031254899  0.034049118            2 
  164000   0.98860993   -6.4712664     61.62196  0.031311971  0.033962265            9 
  165000   0.99603983   -6.4265536    62.039551  0.031333107  0.033877367            6 
  166000    1.0306929   -6.4430061     62.19491  0.031222344  0.033793797            6 
  167000   0.97317685   -6.4461587    62.746362   0.03131056  0.033709522            3 
  168000   0.98667328   -6.4497421     62.60455  0.031053844  0.033623535            6 
  169000    1.0160495   -6.4808642    62.948711  0.031039798  0.033539266            3 
  170000    1.0106809   -6.5066382    63.036142  0.030900069  0.033452989           14 
  171000   0.99598981   -6.4662316    63.310562    0.0308531  0.033365665            4 
  172000    0.9789999   -6.4447618     63.87047  0.030944995  0.033281087            4 
  173000   0.99651005   -6.5047036     64.08051  0.030867298  0.033200318            4 
  174000   0.98030127   -6.5153469    64.247601  0.030769924  0.033117326            4 
  175000   0.98911459   -6.5061483    64.406912  0.030669958   0.03303472            6 
  176000   0.99087016    -6.483984    64.859454  0.030709969   0.03295412            7 
  177000   0.99883704   -6.4742036    65.126741  0.030662307  0.032874828            5 
  178000   0.97537009   -6.5165965    65.466122  0.030648933  0.032796687            5 
  179000   0.97793074   -6.5015264    65.743002  0.030606612  0.032720601            3 
  180000   0.98843569    -6.509153    65.945138  0.030530156  0.032642673            3 
  181000   0.98634236   -6.5069288    66.168531  0.030464333   0.03256389            8 
  182000   0.98700417   -6.5034479    66.123516  0.030276335  0.032483405            5 
  183000   0.98190226    -6.513833    66.363957  0.030220381  0.032403133            6 
  184000   0.96322097   -6.5300671    66.716173  0.030215658  0.032323571            5 
  185000   0.99656155   -6.5348879    66.984628  0.030173256  0.032245375            4 
  186000   0.96491938     -6.47651    67.536114  0.030258116  0.032168815            6 
  187000   0.97021428   -6.5039113    67.416104  0.030042827  0.032092424            4 
  188000   0.96076188   -6.4978969    67.796098  0.030051462  0.032016367            4 
  189000   0.98155152   -6.5467944    67.939675  0.029955765  0.031939102            4 
  190000   0.96436742   -6.5424974    68.356451    0.0299809  0.031862869            3 
  191000   0.97028304   -6.5516729    68.621418  0.029939536  0.031786814            3 
  192000   0.97804278   -6.5261651    68.636599   0.02979019  0.031710066            3 
  193000   0.94594037   -6.5336461    68.982408   0.02978515  0.031633901            4 
  194000   0.95766077    -6.564143    69.080661  0.029673824  0.031557749           15 
  195000   0.95932152   -6.5227281    69.182993  0.029565382  0.031480094            6 
  196000   0.93392357   -6.5720064    69.299179  0.029463937   0.03140119            7 
  197000   0.93218017   -6.5474141    69.614156  0.029447612    0.0313219            9 
  198000   0.97797688   -6.5411661    70.224038  0.029555572  0.031244916            3 
  199000   0.95552336   -6.5486851    70.063738  0.029339924  0.031168459            6 
  200000   0.96828888   -6.5485279    70.341247  0.029308853  0.031092036            4 
  201000   0.94031343   -6.5549271    70.653406  0.029292457  0.031017614            7 
  202000    0.9466217     -6.55719    71.127671  0.029343098   0.03094467           11 
  203000   0.94445759   -6.5930418    71.549901  0.029371881  0.030873798            3 
  204000   0.95486388    -6.576039    71.375172  0.029156524  0.030800331           16 
  205000   0.93318411   -6.5776458    71.455591  0.029046988  0.030725699            5 
  206000   0.94274118   -6.5654585    71.579255  0.028956009  0.030649503            5 
  207000   0.93241096   -6.5662087    71.879824  0.028937127   0.03057527            5 
  208000   0.92591212    -6.614967    71.888147  0.028801341  0.030498955            5 
  209000   0.92798882   -6.5934773    72.019957  0.028716091  0.030423071            6 
  210000   0.93479827   -6.5825119     72.35877  0.028713797   0.03034758            5 
  211000   0.91176003   -6.6083491    72.372886  0.028583288  0.030271897            8 
  212000   0.92153287    -6.588014    73.165641  0.028760079  0.030198042            4 
  213000   0.92413415   -6.6228739    73.249354  0.028657807  0.030125773           16 
  214000   0.92481444    -6.578097    73.366599  0.028569548  0.030053209            6 
  215000   0.93942245   -6.6167801    73.449643  0.028468854  0.029980021            5 
  216000   0.92760596   -6.6238604    73.522727  0.028365249  0.029905671            6 
  217000   0.92817956   -6.6052285    73.840857  0.028356704   0.02983183            8 
  218000   0.92753534   -6.6457888    74.058862  0.028309962  0.029758273            6 
  219000   0.92581635    -6.636801    74.238348  0.028248991  0.029684138            7 
  220000   0.92661819   -6.6247511      74.2043  0.028107689  0.029609662            6 
  221000   0.91608438   -6.6215143    74.554288  0.028112476   0.02953567            7 
  222000   0.89470337   -6.6297578     74.48471  0.027959726  0.029462956           10 
  223000   0.92744883   -6.6353601    74.734386  0.027927648  0.029390037            9 
  224000   0.91944769   -6.6464681    75.189611  0.027972325  0.029317541            7 
  225000   0.92695033   -6.6335581    75.082569  0.027808359  0.029245918            9 
  226000   0.88798672   -6.6239448    75.421777   0.02781039   0.02917245            9 
  227000    0.9040101   -6.6289987    75.455221  0.027700154  0.029097197            6 
  228000   0.90383629    -6.620096      75.3208  0.027529532   0.02902118           19 
  229000   0.88285294   -6.6059996    75.737925  0.027561108  0.028945442            8 
  230000   0.90369766   -6.6554174    75.853241  0.027483058  0.028869889            7 
  231000    0.9086054   -6.6251065    76.090163  0.027449554  0.028794495           13 
  232000   0.87696753   -6.6579701    76.229383  0.027381244  0.028719587           11 
  233000   0.88917384   -6.6305654     76.17621   0.02724471  0.028644662           20 
  234000   0.89169701   -6.6800565    76.393375  0.027205618  0.028568556            8 
  235000   0.87854236   -6.6478195    76.449229  0.027109656   0.02849269           10 
  236000   0.88616271   -6.7042573    76.404786  0.026979091  0.028416938            7 
  237000   0.90759151   -6.6903197    76.677667  0.026961205   0.02834061            6 
  238000   0.88216697   -6.6731468    76.811524  0.026894791  0.028263355           19 
  239000    0.8951933   -6.6523893    77.125575  0.026891762  0.028187812           11 
  240000   0.90699873   -6.6895542    77.197243  0.026804598  0.028112913            8 
  241000   0.87560724   -6.6590009    77.519001  0.026804634  0.028038618            5 
  242000   0.88546286   -6.6851522    77.645641   0.02673748  0.027964885           13 
  243000   0.85696255   -6.6823558    77.737241  0.026658862  0.027890933            6 
  244000   0.87842821   -6.6679319      77.6802  0.026530123  0.027815251            5 
  245000   0.87271774   -6.6875223    77.954897  0.026515271  0.027740117            6 
  246000   0.87358432   -6.7150486    77.795877  0.026353617  0.027665033            6 
  247000   0.87000004   -6.6933823    77.910762  0.026285682  0.027588948            7 
  248000   0.86581584   -6.6950302     78.18154  0.026270679  0.027513312            7 
  249000   0.87465363   -6.7033087    78.201976  0.026172013  0.027437213           18 
  250000   0.86309425   -6.6925793    78.257118  0.026085706  0.027360509            3 
  251000   0.85342111   -6.7190027    78.471164  0.026052843  0.027284046           10 
  252000   0.89472104   -6.7021379    78.624053  0.026000018  0.027208274            6 
  253000   0.85832709   -6.7231632    78.739668  0.025935332  0.027132176            5 
  254000   0.86607546   -6.7120662    78.825679  0.025861443  0.027056095            5 
  255000   0.87711287   -6.7158437    78.932379  0.025794895  0.026979754           15 
  256000   0.85720701    -6.743708    78.926225  0.025692131  0.026904106           12 
  257000   0.86411647   -6.7197454    79.286515  0.025708987  0.026828839            7 
  258000   0.85281381   -6.7386296    79.369118   0.02563602  0.026754125            6 
  259000   0.85667212   -6.7422015    79.649106  0.025627125  0.026680549            9 
  260000   0.85469007   -6.7411844    79.894044  0.025607065  0.026607555           10 
  261000   0.86730134    -6.766625    79.808706  0.025481707  0.026534331            8 
  262000   0.85253824   -6.7574846    79.983465  0.025440033  0.026460965            8 
  263000   0.86227185   -6.7680498    80.269214  0.025433845  0.026388142           12 
  264000   0.84355177   -6.7757086     80.19172  0.025313043  0.026316723            7 
  265000   0.84881157   -6.7534957    80.458676   0.02530147  0.026245866           10 
  266000   0.84887419   -6.8033715    80.437574  0.025199741   0.02617465            8 
  267000   0.85652564   -6.7390587    80.895139  0.025248171  0.026104856            6 
  268000   0.84550575   -6.8018859     80.99636  0.025185435  0.026034837            5 
  269000   0.86263883   -6.7814476    80.939883  0.025074313  0.025964847            7 
  270000   0.83423574   -6.7838634    81.195497  0.025060339  0.025895562            8 
  271000   0.82855973      -6.7737    81.329458  0.025009058  0.025825752            6 
  272000   0.83618434   -6.7671947    81.116797   0.02485196  0.025756349            8 
  273000   0.85711045   -6.8057433     81.38033  0.024841371  0.025687166            8 
  274000   0.82935813   -6.7919901    81.683833  0.024843015  0.025618084            7 
  275000   0.81746695   -6.8067182    81.980868  0.024842687  0.025549804           11 
  276000   0.81187827   -6.8217422    81.934202  0.024738588  0.025481734            9 
  277000   0.84054797   -6.7914264     82.00755  0.024671345  0.025413217            9 
  278000   0.84300854   -6.7890784    82.355965   0.02468704  0.025346031           15 
  279000   0.81243366   -6.8082464    82.441091  0.024623982   0.02527898           14 
  280000   0.82671458   -6.8115908    82.303471  0.024495081  0.025210813           12 
  281000   0.81217839   -6.8066675    82.348332  0.024421213  0.025142883            8 
  282000   0.81673279   -6.8175594    82.552805  0.024395037  0.025075397           19 
  283000   0.81959642   -6.8135666    82.456576  0.024280499  0.025007636           11 
  284000   0.80300687   -6.8057811    82.592035  0.024234752  0.024940124           12 
  285000   0.80787898   -6.7958419    82.826356  0.024218233  0.024872441            7 
  286000   0.80294374   -6.8180769    82.730934   0.02410575  0.024804526            8 
  287000   0.79039365   -6.8243624    82.652733  0.023999051  0.024736329           12 
  288000    0.8197014    -6.835423    82.878473   0.02398104  0.024668035            7 
  289000   0.78330371   -6.8614847    82.815887  0.023880014  0.024599616           26 
  290000   0.80953029   -6.8466966    82.829041  0.023801448  0.024531224           17 
  291000   0.81111795   -6.8554448    83.153365  0.023812533  0.024462996            9 
  292000   0.81033519   -6.8410499    83.236691  0.023754764  0.024394755           11 
  293000   0.79068612   -6.8509635    83.156686  0.023650935  0.024326434           13 
  294000   0.79701826   -6.8457008     83.55062  0.023682149  0.024258585           31 
  295000   0.79621061   -6.8321401    83.506234  0.023589332  0.024191762           13 
  296000    0.7781122   -6.8577519     83.75523  0.023579738  0.024125382           11 
  297000   0.79358673   -6.8460818    83.681129  0.023479554  0.024059198            8 
  298000   0.78799453   -6.8541289    83.856907  0.023449918  0.023992854           19 
  299000   0.79867071   -6.8642306    83.786107  0.023351758  0.023927062           28 
  300000   0.77941756   -6.8561836    84.098298  0.023360638  0.023861688            5 
  301000   0.77038032   -6.8490553    84.041328  0.023267256  0.023796727           18 
  302000   0.80378639   -6.9001672    84.112891  0.023209959  0.023731041           17 
  303000   0.78849099   -6.8674805     84.03521  0.023111994  0.023665582           13 
  304000   0.77292759   -6.9045026    84.243042  0.023092939  0.023600312           11 
  305000   0.77422739   -6.8954926    84.557525  0.023103149  0.023535777           18 
  306000    0.7678178    -6.888691    84.781562  0.023088661  0.023472112           15 
  307000   0.77291906   -6.8942634    84.738919  0.023001878  0.023408724           11 
  308000   0.77326972   -6.9081262    84.730006  0.022924785  0.023345078           10 
  309000   0.76705459    -6.916282    84.910776  0.022899346  0.023281076           34 
  310000   0.78264658   -6.9236531    84.917379  0.022827252  0.023217389           17 
  311000   0.78411624   -6.8764155    85.124507  0.022809353  0.023153603            6 
  312000   0.75670721   -6.8920949    85.043723   0.02271467  0.023089987           12 
  313000   0.76652597   -6.9222093    85.101644   0.02265752  0.023026333           14 
  314000   0.76522289    -6.916341    85.404025  0.022665612  0.022963257            9 
  315000   0.74250019   -6.9130801    85.357433  0.022581331  0.022900413            5 
  316000   0.76986426    -6.934739    85.402018  0.022521629   0.02283793            8 
  317000    0.7572331   -6.9252296    85.489085  0.022473471  0.022775296           20 
  318000   0.74899917   -6.9479738    85.655922   0.02244652  0.022713607           10 
  319000   0.75789022   -6.9357307    85.567508  0.022353058  0.022651636           19 
  320000   0.75596441   -6.9392369    85.834809  0.022352815  0.022590258           10 
  321000   0.77516544   -6.9494987    85.949999  0.022313084  0.022529743            7 
  322000   0.75472551   -6.9278273    86.293697  0.022332737   0.02246952            6 
  323000   0.73598656   -6.9291853    86.387599  0.022287822  0.022409744            9 
  324000   0.75094525   -6.9577163    86.048522  0.022131821  0.022349598           12 
  325000   0.74341487   -6.9469019    86.385316  0.022150081  0.022289744           11 
  326000   0.74574104   -6.9549772    86.565328  0.022128151   0.02222992           11 
  327000   0.74821681   -6.9661634    86.468565  0.022035822  0.022170742           12 
  328000   0.74000707   -6.9414254    86.575858  0.021995899  0.022111507           16 
  329000   0.72814449   -6.9599194    86.624132   0.02194127   0.02205275            6 
  330000   0.72738816   -6.9636969    86.965531  0.021960993   0.02199459            8 
  331000   0.73851811   -6.9615536     87.01692  0.021907583  0.021936507           21 
  332000   0.73213599   -6.9783635    86.811332  0.021789993  0.021878366           13 
  333000   0.74241246   -6.9685887    86.998486  0.021771393   0.02182058           26 
  334000   0.73871996   -6.9965607     87.06151  0.021721934  0.021762727           14 
  335000   0.75670929   -6.9576492    86.908159  0.021618945  0.021704375           32 
  336000   0.72750154   -6.9866388    87.214734  0.021630638  0.021646069           12 
  337000   0.71211754   -7.0073786     87.18157  0.021558252   0.02158771           17 
  338000    0.7361996   -6.9934821    87.400525  0.021548453  0.021529501           27 
  339000   0.72658729   -7.0200575    86.962989  0.021377333  0.021471525           21 
  340000   0.71096181   -6.9955551    87.044567  0.021334453  0.021413149           21 
  341000   0.72860388   -7.0151191    87.098623  0.021285099  0.021354853           18 
  342000   0.71964312   -7.0015049    87.160851  0.021238024  0.021296714           29 
  343000   0.72673048   -7.0136266     87.39847  0.021233836  0.021238807           22 
  344000   0.71976341   -7.0329166    87.263109  0.021139319  0.021180293           12 
  345000    0.7224457   -7.0103698    87.261233  0.021077593  0.021121871            8 
  346000   0.71333812   -6.9953377    87.367813  0.021042344  0.021063672           11 
  347000   0.71282568   -7.0395949    87.402792  0.020990104  0.021005742           25 
  348000   0.71914213   -7.0274013    87.418445  0.020933536  0.020947511           18 
  349000   0.70830483   -7.0289665    87.507277  0.020894765  0.020889303           46 
  350000   0.71818933    -7.039052    87.569569  0.020849897  0.020831197           29 
  351000   0.70021628   -7.0298038    87.476753   0.02076846  0.020773132           32 
  352000   0.71145304   -7.0257702    87.671793  0.020755633  0.020715114           25 
  353000    0.6948976   -7.0572224    87.569672  0.020672727  0.020657732           35 
  354000   0.69966169   -7.0575608    87.810647  0.020671056  0.020600154           32 
  355000   0.69705788   -7.0416688    87.529265  0.020546776  0.020542563           79 
  356000   0.69966878   -7.0513799    87.741905  0.020538835  0.020485529           80 
  357000   0.69627639   -7.0546977    87.640589  0.020457654  0.020428302           85 
  358000   0.69405461    -7.066926    87.628754  0.020397755  0.020370683           98 
  359000   0.69623227   -7.0734245    87.660995   0.02034842  0.020313039          114 
  360000   0.68735729   -7.0942295    87.762315  0.020315351  0.020255789           84 
  361000   0.68282029   -7.0890473       87.964  0.020305632  0.020198749           78 
  362000   0.69719251   -7.1153535    87.925574  0.020240694  0.020142082           66 
  363000   0.69323429   -7.1171243    87.583264  0.020106351  0.020085213           53 
  364000   0.67392751   -7.0976547    87.882579  0.020119638   0.02002872           88 
  365000   0.66129493   -7.1014977    88.091386  0.020112188  0.019972515           83 
  366000   0.70478225   -7.0899517    88.041948  0.020045981  0.019916547           94 
  367000   0.69543376   -7.0808087    88.111556  0.020007165  0.019860691          117 
  368000   0.65555917   -7.0972271    88.215852  0.019976416  0.019804875          103 
  369000   0.69098851   -7.1388169    88.181948  0.019914622   0.01974928          128 
  370000   0.67604075   -7.1339588    88.280631  0.019883025   0.01969373          117 
  371000   0.66003246   -7.0815878    88.195279   0.01981026  0.019638414          137 
  372000   0.67717457   -7.1068962    88.349361  0.019791523  0.019583045           81 
  373000   0.67204034   -7.1033902      88.2747  0.019721783  0.019527842          162 
  374000   0.68713517   -7.1076752    88.524822  0.019724782  0.019473322          165 
  375000   0.66130311   -7.1140301    88.291963  0.019620436  0.019418648           73 
  376000   0.66465094   -7.1120744    88.611337  0.019639037  0.019364208          197 
  377000   0.67418843   -7.1377826    88.196906  0.019495337  0.019309819          245 
  378000   0.66536411   -7.1395995    88.279727  0.019462021  0.019255047          219 
  379000   0.66658858   -7.1248655    88.368923  0.019430282  0.019200481          338 
  380000   0.66429553   -7.1578826    88.313359  0.019366965  0.019145892          273 
  381000   0.64966291   -7.1161558     88.56963  0.019372185  0.019091374          268 
  382000   0.65167539   -7.1244048    88.496705  0.019305564  0.019037098          301 
  383000   0.64271373   -7.1346299    88.309032  0.019214324  0.018983052          310 
  384000   0.65665413   -7.1401091    88.453644  0.019195669  0.018929021          353 
  385000   0.65532042   -7.1711653    88.477782  0.019151035  0.018874746          254 
  386000   0.65684855   -7.1714971    88.489089  0.019103862  0.018820578          227 
  387000   0.65543334   -7.1647755    88.600415   0.01907847  0.018766526          276 
  388000   0.64802577   -7.1787391      88.4331  0.018993363  0.018712676          298 
  389000   0.65644594   -7.1939901     88.40719  0.018938987  0.018658881          318 
  390000   0.63185825   -7.1992901    88.405771  0.018890122   0.01860528          251 
  391000   0.63137402   -7.1695316     88.42671  0.018846272  0.018551475          381 
  392000   0.64879314   -7.1808979     88.31406  0.018774247  0.018497923          314 
  393000   0.63505071   -7.1811345    88.670203  0.018801994  0.018444321          487 
  394000   0.63856796   -7.1869025    88.551661  0.018729201  0.018391079          324 
  395000   0.63308435    -7.201014    88.622893  0.018696813  0.018337939          341 
  396000   0.62819724   -7.1944507    88.604725  0.018645776  0.018285165          327 
  397000   0.63094245   -7.2045921    88.471079  0.018570755  0.018232309          370 
  398000   0.62060618   -7.2023239    88.640732  0.018559617  0.018179509          400 
  399000   0.64223814   -7.2171954    88.597502  0.018504073  0.018126893          432 
  400000   0.63438109   -7.2211681    88.604304   0.01845923   0.01807452          462 
  401000   0.64193136   -7.2320548    88.668843  0.018426609  0.018022119          578 
  402000   0.61100087   -7.1989914    88.746217  0.018396811  0.017969854          483 
  403000   0.63232535   -7.2240512    88.447024  0.018289294  0.017917591          616 
  404000   0.62693581   -7.2373641    88.578256  0.018271092  0.017865379          575 
  405000   0.61993646   -7.2297492    88.568315  0.018223933  0.017813394          522 
  406000   0.61898074   -7.2222613    88.605792  0.018186739  0.017761555          622 
  407000   0.62008365   -7.2312474    88.512638  0.018122981  0.017709671          587 
  408000   0.61650659   -7.2356798    88.318953  0.018039002   0.01765779          699 
  409000   0.61134812   -7.2645249    88.470232   0.01802572  0.017605913          674 
  410000   0.60755135   -7.2555369    88.500416  0.017987889    0.0175541          626 
  411000   0.61310266   -7.2629401    88.468063  0.017937563  0.017502259          755 
  412000   0.61040195   -7.2665371    88.501558    0.0179008  0.017450762          706 
  413000   0.60376214   -7.2790638    88.554674  0.017868175  0.017399591          716 
  414000   0.61750892   -7.2674827    88.658345  0.017845883  0.017348411          695 
  415000   0.60403728   -7.2557677    88.559508  0.017783034  0.017297345          518 
  416000   0.59789798   -7.2751812    88.448011  0.017717951  0.017246248          748 
  417000   0.61526843   -7.2781841    88.492489   0.01768435  0.017195246          723 
  418000   0.59360363   -7.3002305     88.47318  0.017638194  0.017144367          772 
  419000   0.60419138   -7.2968208    88.382574  0.017578077  0.017093426          677 
  420000   0.59160598   -7.2842822    88.655375  0.017590352  0.017042798          687 
  421000   0.59055238   -7.2846827    88.398857  0.017497794  0.016992246          652 
  422000   0.58990408   -7.2943044    88.367245  0.017450088  0.016941916          710 
  423000   0.59437661   -7.3051669    88.422972  0.017419813  0.016891711          714 
  424000   0.58377425   -7.3113687    88.505197  0.017394889  0.016841673          774 
  425000   0.59546617   -7.2905942    88.413242   0.01733593  0.016791606          783 
  426000    0.5864257   -7.3043725    88.547865   0.01732157  0.016741756          763 
  427000   0.59192129   -7.3013394    88.486286  0.017268986  0.016692154          828 
  428000   0.59164348   -7.3246987    88.394439  0.017210755  0.016642501          713 
  429000   0.59881528   -7.2968512    88.560429   0.01720288  0.016593173          787 
  430000   0.57805981   -7.3322049     88.46397   0.01714418  0.016543704          800 
  431000   0.57363462   -7.3384603     88.27445  0.017067759   0.01649448          760 
  432000   0.57921775   -7.3407141      88.6045  0.017091917  0.016445377          791 
  433000   0.56838571   -7.3502278    88.523089  0.017036776  0.016396486          829 
  434000     0.572709   -7.3396215    88.420795  0.016977879   0.01634754          798 
  435000   0.57468887   -7.3299382    88.313675  0.016918328  0.016298763          801 
  436000   0.56953688    -7.346989    88.294862  0.016875929  0.016250247          848 
  437000   0.57480669    -7.358141    88.297823  0.016837876  0.016201752          895 
  438000   0.56907875   -7.3483993    88.323488  0.016804317  0.016153263          859 
  439000    0.5570762    -7.348257    88.428436   0.01678596   0.01610499          947 
  440000   0.57247525   -7.3554006    88.351303  0.016733201  0.016056766          936 
  441000   0.55920839    -7.349506    88.382654  0.016701182  0.016008718          608 
  442000   0.57462759   -7.3549141    88.404372  0.016667491   0.01596065         1004 
  443000   0.55014327   -7.3486901    88.371381  0.016623661  0.015912793          934 
  444000   0.54244716   -7.3465536    88.348996  0.016582019  0.015864979          939 
  445000   0.55801516   -7.3704226    88.300348  0.016535646  0.015817403          942 
  446000   0.55983598   -7.3742642    88.310257  0.016500422  0.015769931          951 
  447000   0.54337902   -7.3571859    88.283979  0.016458609  0.015722766          933 
  448000   0.54768594   -7.3620852    88.370982  0.016438055  0.015675696          952 
  449000   0.55036008   -7.3618044    88.350035  0.016397557  0.015628694         1000 
  450000    0.5414343   -7.3711487    88.365585  0.016363997  0.015581817         1000 
  451000   0.55096622   -7.3907645    88.322295  0.016319715  0.015535141          986 
  452000   0.54727814   -7.3967206    88.334766  0.016285908  0.015488579          772 
  453000   0.54747286   -7.3906771    88.159609  0.016217735  0.015442185          960 
  454000   0.54149222   -7.3734836    88.130497   0.01617667  0.015395862         1006 
  455000   0.54569043   -7.3905691    88.224793  0.016158387  0.015349609          898 
  456000   0.53842895   -7.3934178    88.294048  0.016135608  0.015303579          957 
  457000   0.52469443   -7.3962457    88.102694  0.016065407  0.015257509          950 
  458000   0.53525782   -7.4229467    88.153538  0.016039581  0.015211618          715 
  459000   0.53777481   -7.4127412    88.107916  0.015996354  0.015165839          905 
  460000   0.52353803   -7.3949847    88.238618  0.015985257  0.015120155         1008 
  461000   0.53315508   -7.4189856    88.189573  0.015941716   0.01507464          963 
  462000   0.53497197   -7.4068939     88.10234  0.015891475  0.015029192         1014 
  463000   0.53651131   -7.4213455    88.209894  0.015876511   0.01498391          979 
  464000   0.50931823   -7.4222163    88.175383  0.015836096  0.014938735          902 
  465000   0.52579585   -7.4234312    88.055947  0.015780636  0.014893802          953 
  466000    0.5151359   -7.4200254    88.143693  0.015762463  0.014848893          876 
  467000   0.51614181    -7.420209    88.120727  0.015724612  0.014804234          918 
  468000    0.5161868   -7.4394265    88.124651  0.015691711  0.014759734          895 
  469000   0.52009353   -7.4116179    88.126358  0.015658557  0.014715372          883 
  470000   0.52169392   -7.4191333    87.925558  0.015589638  0.014671108          963 
  471000   0.52498312    -7.443766    87.907892  0.015553413  0.014627053          918 
  472000   0.50787218   -7.4504852    88.037249    0.0155433  0.014583154         1005 
  473000   0.51026135   -7.4429804     88.12676  0.015526209  0.014539361         1008 
  474000    0.5059978   -7.4549515    88.195388  0.015505518   0.01449571         1009 
  475000   0.51284096   -7.4449821     87.99341   0.01543744  0.014452249         1029 
  476000    0.5134025   -7.4529045    88.045132  0.015414064  0.014408839         1008 
  477000    0.4992925   -7.4493122    87.896909  0.015355854  0.014365468         1039 
  478000   0.51449869   -7.4420887     88.02974  0.015346886  0.014322308         1021 
  479000   0.50852263   -7.4605551    88.008842  0.015311211  0.014279228          986 
  480000   0.49978429   -7.4509644    87.966453  0.015271954   0.01423641         1040 
  481000   0.51142569   -7.4515775    88.038107  0.015252617  0.014193599          969 
  482000   0.50234643   -7.4496856    88.006715  0.015215545   0.01415104          986 
  483000   0.49865254   -7.4827112     87.98597  0.015180464  0.014108505         1036 
  484000   0.49725885   -7.4676431    87.894759  0.015133395  0.014066182         1001 
  485000   0.49155262   -7.4835148    87.928005  0.015107905  0.014023933         1012 
  486000   0.48110019   -7.4672398    87.891516  0.015070562  0.013981945         1010 
  487000   0.49161542   -7.4699754    87.915082  0.015043648  0.013940005         1000 
  488000   0.49628405   -7.4920541    87.941328  0.015017303  0.013898231         1032 
  489000    0.4775148   -7.5018423    87.968192  0.014991171  0.013856524         1018 
  490000   0.48291122   -7.4912213    87.983082  0.014963109  0.013815088         1103 
  491000   0.47294362   -7.4969472    87.876112  0.014914479  0.013773771         1027 
  492000   0.48627419   -7.4704556    87.867018  0.014882625  0.013732552         1051 
  493000     0.481994   -7.5027867    87.913066  0.014860221  0.013691398         1067 
  494000   0.47553085   -7.5050283    87.685688  0.014791783  0.013650328         1120 
  495000   0.48512157   -7.4945791    87.746204  0.014772088  0.013609396         1072 
  496000   0.47301231   -7.4975964    87.819707  0.014754655  0.013568656         1045 
  497000    0.4638954   -7.5168155    87.700574  0.014704992  0.013528017         1058 
  498000   0.46959891   -7.5140844     87.86322  0.014702681  0.013487565         1074 
  499000   0.46962213    -7.518153    87.864626  0.014673451  0.013447268         1028 
  500000   0.46974446   -7.5035655    87.767981  0.014627997  0.013407041          976 
  501000    0.4642816   -7.5260584    87.733202  0.014593014  0.013366943         1074 
  502000   0.47461493   -7.5220923    87.673693  0.014554066   0.01332697         1049 
  503000   0.47687525   -7.5159046    87.768152  0.014540781  0.013287189         1086 
  504000   0.46058587   -7.5161585    87.745221  0.014508138  0.013247554         1072 
  505000   0.45772742   -7.5153326    87.585408  0.014453038  0.013207964         1060 
  506000   0.45871158    -7.547416    87.632291  0.014432195  0.013168587         1052 
  507000   0.46227843   -7.5275627    87.750131  0.014423098  0.013129302         1102 
  508000   0.45291135   -7.5395087    87.680594    0.0143833   0.01309015         1107 
  509000   0.44705891   -7.5346637    87.573805  0.014337558  0.013051053         1097 
  510000   0.45400713   -7.5351523    87.602569  0.014314145  0.013012131         1117 
  511000   0.45785749   -7.5323283    87.639152  0.014292099  0.012973379         1100 
  512000   0.44236128   -7.5357401    87.704363  0.014274799  0.012934739         1064 
Loop time of 1067.7 on 48 procs for 500000 steps with 4000 atoms

Performance: 80921.440 tau/day, 468.295 timesteps/s
99.4% CPU use with 48 MPI tasks x no OpenMP threads

MPI task timing breakdown:
Section |  min time  |  avg time  |  max time  |%varavg| %total
---------------------------------------------------------------
Pair    | 65.849     | 69.144     | 73.028     |  18.5 |  6.48
Neigh   | 6.6303     | 6.8069     | 6.9676     |   3.0 |  0.64
Comm    | 58.793     | 63.829     | 69.782     |  27.8 |  5.98
Output  | 0.87815    | 0.87864    | 0.88706    |   0.1 |  0.08
Modify  | 907.14     | 914.12     | 918.84     |   9.4 | 85.62
Other   |            | 12.93      |            |       |  1.21

Nlocal:        83.3333 ave          90 max          77 min
Histogram: 4 1 3 11 10 5 5 2 3 4
Nghost:        1759.60 ave        1779 max        1737 min
Histogram: 1 1 5 2 9 15 5 5 2 3
Neighs:        10676.1 ave       11744 max        9766 min
Histogram: 3 3 6 8 12 6 1 3 3 3
FullNghs:      21350.6 ave       23125 max       19594 min
Histogram: 5 0 3 7 13 8 2 2 4 4

Total # of neighbors = 1024827
Ave neighs/atom = 256.20675
Neighbor list builds = 26985
Dangerous builds = 1

#clear
#
#next RN
#
#jump SELF
Total wall time: 0:17:50
