
units lj                  # Use reduced LJ style units
atom_style atomic         # Uncharged point particles
atom_modify map hash      # Needed for indexing of clusters etc
                          # Used to be able to find where atoms are in relation to each other.

# Define a lattice with which to populate the simulation cell. With units
# set to 'lj' the second argument to the lattice command is the reduced
# density rho* and the spacings are multiples of that required to acheive
# that density. Also define a simulation cell called 'box' in lattice units
# and fill it with atoms. Here we're creating a box which is ten lattice
# constants in each direction.
lattice fcc 1.0 spacing 1 1 1                 # All equal sizes - gives the right reduced density.
Lattice spacing in x,y,z = 1.5874011 1.5874011 1.5874011

region box block 0 10 0 10 0 10 units lattice # Defines a region, "box", in lattice units
create_box 1 box                              # Creates a simulation box as specified above,
Created orthogonal box = (0.0000000 0.0000000 0.0000000) to (15.874011 15.874011 15.874011)
  3 by 4 by 4 MPI processor grid
                                              # with one type of atom
create_atoms 1 box                            # Creates particles on lattice points
Created 4000 atoms
  using lattice units in orthogonal box = (0.0000000 0.0000000 0.0000000) to (15.874011 15.874011 15.874011)
  create_atoms CPU = 0.002 seconds


# Set the mass of the first (and only) atom type.
mass 1 1.0

# Lennard-Jones interactions between particles, 3.5 sigma cut-off. Apply
# long range tail corrections to energy and pressure and set all coefficients
# to unity since we work in reduced units here. Note that this doesn't shift
# the potential such that it goes to zero at the cutoff. That would require
# pair_modify('shift', 'yes').
pair_style lj/cut  3.5      # non-GPU version
pair_modify tail  yes
pair_coeff 1  1  1.0  1.0   # Intearaction between 1 and 1 set with epsilon = 1 and sigma = 1

write_data data.*
System init for write_data ...
Neighbor list info ...
  update every 1 steps, delay 10 steps, check yes
  max neighbors/atom: 2000, page size: 100000
  master list distance cutoff = 3.8
  ghost atom cutoff = 3.8
  binsize = 1.9, bins = 9 9 9
  1 neighbor lists, perpetual/occasional/extra = 1 0 0
  (1) pair lj/cut, perpetual
      attributes: half, newton on
      pair build: half/bin/atomonly/newton
      stencil: half/bin/3d
      bin: standard

#############################
#   M E L T   S Y S T E M   #
#############################

velocity all create 2.4 9580093 mom yes dist gaussian # Assign velocities
                                                    # Temperature 2.4, random number seed, zero linear momentum
						                                                        # Gaussian distribution

timestep 0.002   # simulation timestep
thermo 1000       # output thermodynamic data every 1000 steps

# Define a fix  in this case with index 1 applied to all
# particles in the simulation. This fix is for simulations
# in the anisotropic NPT ensemble. Note that we use the MTK
# correction.
fix 1 all npt temp 2.4 2.4 0.1 iso 5.68 5.68 0.5 mtk yes tchain 5 pchain 5 # Use NPT ensemble
                                                                         # Set temperature and pressure and damping
                                                                         # Numbers of thermostats in chain and in barostat
run 1000         # run for 10000 steps
Per MPI rank memory allocation (min/avg/max) = 3.642 | 3.644 | 3.648 Mbytes
Step Temp E_pair E_mol TotEng Press Volume 
       0          2.4   -8.3859253            0   -4.7868253   -2.2405722         4000 
    1000    2.3310961   -4.4126417            0  -0.91687173     5.740376    5176.6007 
Loop time of 0.228422 on 48 procs for 1000 steps with 4000 atoms

Performance: 756494.502 tau/day, 4377.862 timesteps/s
99.5% CPU use with 48 MPI tasks x no OpenMP threads

MPI task timing breakdown:
Section |  min time  |  avg time  |  max time  |%varavg| %total
---------------------------------------------------------------
Pair    | 0.090808   | 0.10018    | 0.1209     |   1.4 | 43.86
Neigh   | 0.01803    | 0.018855   | 0.022703   |   0.5 |  8.25
Comm    | 0.065024   | 0.080606   | 0.097491   |   2.8 | 35.29
Output  | 2.4684e-05 | 2.5603e-05 | 3.3852e-05 |   0.0 |  0.01
Modify  | 0.018219   | 0.027199   | 0.036341   |   4.1 | 11.91
Other   |            | 0.001555   |            |       |  0.68

Nlocal:        83.3333 ave          94 max          75 min
Histogram: 3 1 4 14 9 10 3 2 0 2
Nghost:        1387.96 ave        1410 max        1370 min
Histogram: 7 5 5 3 9 4 1 6 5 3
Neighs:        7369.90 ave        8711 max        6410 min
Histogram: 1 4 8 11 10 6 5 2 0 1

Total # of neighbors = 353755
Ave neighs/atom = 88.438750
Neighbor list builds = 87
Dangerous builds = 20

# Equilibrate just above the melting temperature to avoid step fn in T

fix 1 all npt temp 1.25 1.25 0.1 iso 5.68 5.68 0.5 mtk yes tchain 5 pchain 5
run 1000
Per MPI rank memory allocation (min/avg/max) = 3.642 | 3.644 | 3.648 Mbytes
Step Temp E_pair E_mol TotEng Press Volume 
    1000    2.3310961   -4.4126417            0  -0.91687173     5.740376    5176.6007 
    2000    1.2492981   -5.8103729            0   -3.9368942    5.8537892    4340.8265 
Loop time of 0.214574 on 48 procs for 1000 steps with 4000 atoms

Performance: 805316.849 tau/day, 4660.398 timesteps/s
99.7% CPU use with 48 MPI tasks x no OpenMP threads

MPI task timing breakdown:
Section |  min time  |  avg time  |  max time  |%varavg| %total
---------------------------------------------------------------
Pair    | 0.094199   | 0.099586   | 0.10596    |   0.7 | 46.41
Neigh   | 0.015444   | 0.01613    | 0.016929   |   0.2 |  7.52
Comm    | 0.068137   | 0.07362    | 0.082798   |   1.1 | 34.31
Output  | 2.3144e-05 | 2.3958e-05 | 3.0229e-05 |   0.0 |  0.01
Modify  | 0.018827   | 0.023238   | 0.026605   |   1.4 | 10.83
Other   |            | 0.001975   |            |       |  0.92

Nlocal:        83.3333 ave          91 max          76 min
Histogram: 2 0 5 3 17 6 10 1 2 2
Nghost:        1556.00 ave        1579 max        1538 min
Histogram: 4 6 4 6 8 9 5 3 2 1
Neighs:        8770.42 ave        9624 max        7882 min
Histogram: 2 2 3 6 9 11 6 6 2 1

Total # of neighbors = 420980
Ave neighs/atom = 105.24500
Neighbor list builds = 74
Dangerous builds = 7


# Small amount of linear quench

fix 1 all npt temp 1.25 ${temp} 0.1 iso 5.68 5.68 0.5 mtk yes tchain 5 pchain 5
fix 1 all npt temp 1.25 2 0.1 iso 5.68 5.68 0.5 mtk yes tchain 5 pchain 5
run 2000
Per MPI rank memory allocation (min/avg/max) = 3.643 | 3.645 | 3.648 Mbytes
Step Temp E_pair E_mol TotEng Press Volume 
    2000    1.2492981   -5.8103729            0   -3.9368942    5.8537892    4340.8265 
    3000    1.6289449    -5.415769            0   -2.9729626    5.4846988    4582.9933 
    4000    1.9718177   -4.8733097            0   -1.9163227    5.5302719    4889.0083 
Loop time of 0.441706 on 48 procs for 2000 steps with 4000 atoms

Performance: 782420.826 tau/day, 4527.898 timesteps/s
99.7% CPU use with 48 MPI tasks x no OpenMP threads

MPI task timing breakdown:
Section |  min time  |  avg time  |  max time  |%varavg| %total
---------------------------------------------------------------
Pair    | 0.18396    | 0.19906    | 0.22815    |   1.7 | 45.07
Neigh   | 0.032093   | 0.033335   | 0.038204   |   0.6 |  7.55
Comm    | 0.13308    | 0.15563    | 0.18414    |   2.8 | 35.23
Output  | 5.0964e-05 | 5.2375e-05 | 6.4945e-05 |   0.0 |  0.01
Modify  | 0.035659   | 0.049708   | 0.064319   |   3.9 | 11.25
Other   |            | 0.003918   |            |       |  0.89

Nlocal:        83.3333 ave          90 max          75 min
Histogram: 3 1 2 5 7 6 11 1 8 4
Nghost:        1438.04 ave        1459 max        1425 min
Histogram: 7 7 6 7 4 7 3 5 1 1
Neighs:        7773.54 ave        8479 max        6960 min
Histogram: 2 3 3 4 7 11 6 5 4 3

Total # of neighbors = 373130
Ave neighs/atom = 93.282500
Neighbor list builds = 151
Dangerous builds = 2

#############################
# F R E E Z E  S Y S T E M  #
#############################

# Define solid atoms. This closely follows ten Wolde  Ruiz-Montero and Frenkel  Faraday Discuss  1996  104  93-110
# Compute components of the per-atom q6 vector
compute q6 all orientorder/atom degrees 1 6 components 6 nnn NULL cutoff 1.3 # compute the Q6 parameter.
                                                                             # Use all neighbours within 1.3 unit cell.

# get number of connections
compute coord_number all coord/atom orientorder q6 0.5

# An atom is solid if it has 8 or more connections (of a possible 14)
variable is_solid atom c_coord_number>=8
group solid dynamic all var is_solid    # Must be dynamic to update
dynamic group solid defined

# do clustering
compute cluster solid cluster/atom 1.3 # Create a cluster where all atoms within are solid and max 1.3 units from another member

# define chunks one chunk per cluster
compute clus_chunks solid chunk/atom c_cluster nchunk every compress yes  # Says which atoms are in which chunk

# count the size of each chunk
compute size_chunks solid property/chunk clus_chunks count


# Find the maximum entry in the vector of chunk sizes
variable max_n equal max(c_size_chunks)


# Thermo style which includes this variable
thermo_style custom step temp pe vol v_max_n

thermo ${N}  # Print the thermo information every 100 steps
thermo 1000  

# Reset the npt fix at a lower temperature (below freezing)
fix 1  all npt temp  ${temp} ${temp}  0.1  iso  5.68  5.68  0.5  mtk yes tchain  5  pchain  5
fix 1  all npt temp  2 ${temp}  0.1  iso  5.68  5.68  0.5  mtk yes tchain  5  pchain  5
fix 1  all npt temp  2 2  0.1  iso  5.68  5.68  0.5  mtk yes tchain  5  pchain  5

dump dmp2 all dcd ${N} traj_${rand}.dcd
dump dmp2 all dcd 1000 traj_${rand}.dcd
dump dmp2 all dcd 1000 traj_462431.dcd


# fix rnuntil all halt ${N} v_max_n >= 3980 error soft message no   # Stop when solidified


run 1000000 # 5000000  # Run for this many steps
Neighbor list info ...
  update every 1 steps, delay 10 steps, check yes
  max neighbors/atom: 2000, page size: 100000
  master list distance cutoff = 3.8
  ghost atom cutoff = 3.8
  binsize = 1.9, bins = 9 9 9
  4 neighbor lists, perpetual/occasional/extra = 1 3 0
  (1) pair lj/cut, perpetual
      attributes: half, newton on
      pair build: half/bin/atomonly/newton
      stencil: half/bin/3d
      bin: standard
  (2) compute orientorder/atom, occasional
      attributes: full, newton on
      pair build: full/bin/atomonly
      stencil: full/bin/3d
      bin: standard
  (3) compute coord/atom, occasional
      attributes: full, newton on
      pair build: full/bin/atomonly
      stencil: full/bin/3d
      bin: standard
  (4) compute cluster/atom, occasional
      attributes: full, newton on
      pair build: full/bin/atomonly
      stencil: full/bin/3d
      bin: standard
Per MPI rank memory allocation (min/avg/max) = 9.326 | 9.330 | 9.336 Mbytes
Step Temp PotEng Volume v_max_n 
    4000    1.9718177   -4.8733097    4889.0083            1 
    5000    2.0130832   -4.8030076    4922.8642            1 
    6000    1.9851994   -4.7799802    4953.1731            1 
    7000    1.9974741   -4.7662597     4936.965            1 
    8000    1.9710848   -4.8099841    4911.4944            3 
    9000    1.9926384   -4.8057446    4952.1671            2 
   10000    1.9980614   -4.7725559    4944.1332            1 
   11000     1.959838   -4.8334102    4867.0535            1 
   12000    1.9836048   -4.7586337    4974.6424            1 
   13000    2.0287819   -4.8152602    4929.7297            1 
   14000    2.0085884    -4.811631    4919.5467            1 
   15000    2.0560587   -4.8216992    4894.5538            1 
   16000    1.9862387   -4.7682167    4956.3292            1 
   17000    1.9872459   -4.8170235    4956.6384            1 
   18000    2.0013345   -4.7758499    4909.4913            1 
   19000    1.9950176   -4.7508232    4943.2685            2 
   20000    2.0318482   -4.7785825    4993.3971            3 
   21000    1.9961943   -4.7977881    4951.4151            1 
   22000    1.9831706   -4.7801313    4925.1276            1 
   23000    2.0015166   -4.8039269    4923.5254            1 
   24000    1.9696898   -4.8363193     4893.184            1 
   25000    1.9947067   -4.8114925    4930.2203            1 
   26000    1.9985371    -4.782873    4934.0257            2 
   27000    2.0363773   -4.7166809    4918.6574       -1e+20 
   28000    1.9502268   -4.7206014     4949.141            1 
   29000    1.9967077   -4.8245594    4915.6994            3 
   30000    2.0458127   -4.8081928    4904.3719            1 
   31000    1.9952365   -4.8185433    4912.2621            2 
   32000    1.9739211   -4.7977523    4916.0682       -1e+20 
   33000    1.9753274   -4.8428707    4893.6514            1 
   34000    1.9753314   -4.8311562    4912.6272            1 
   35000    2.0018134   -4.8210927    4897.4495            1 
   36000      2.02787   -4.8116455    4927.6252            2 
   37000     1.988688   -4.7326093    4932.4243            2 
   38000     1.998901       -4.809    4921.8104            1 
   39000    1.9685799   -4.8435534    4934.0713            1 
   40000    2.0049219   -4.8148713     4921.026            1 
   41000    2.0164573   -4.8185243    4915.9734       -1e+20 
   42000     2.047243   -4.7973231    4916.5004       -1e+20 
   43000     1.956412   -4.7870363    4917.0214            1 
   44000    2.0038224   -4.7779481    4908.7612            1 
   45000     1.967825   -4.8570232    4946.5815            1 
   46000    2.0075367   -4.8099361    4933.4063            1 
   47000    2.0216421   -4.8042709    4959.0826            2 
   48000    1.9798058   -4.7961771    4933.1315            1 
   49000    2.0202931   -4.7578805    4951.1076            1 
   50000      1.96936   -4.7860287    4892.3347            1 
   51000    2.0077986   -4.7748505    4965.7529            1 
   52000    2.0032887   -4.7960175    4905.5242            1 
   53000    1.9861452   -4.7397187    4946.8512       -1e+20 
   54000    1.9900584   -4.7797657    4967.4746       -1e+20 
   55000    2.0256974   -4.7961067    4922.2093            1 
   56000    2.0040662   -4.7947041    4916.2805            1 
   57000    1.9690598    -4.752546    4925.4953       -1e+20 
   58000     1.991876   -4.7867653    4951.6041            2 
   59000    2.0359799   -4.7901296    4904.9403            1 
   60000    2.0312728   -4.8078267    4950.2379            1 
   61000    2.0199723   -4.7709394     4900.994            1 
   62000    1.9741364   -4.7725108    4948.2858            1 
   63000    2.0093376   -4.8011525    4927.8551       -1e+20 
   64000    2.0164018   -4.7904929    4905.5223            1 
   65000    2.0600723   -4.7734428    4949.3249            1 
   66000    2.0109355   -4.7748142    4927.1583            2 
   67000    1.9962905   -4.8131312    4908.3532            1 
   68000    2.0158427   -4.7953726    4901.6627            3 
   69000    2.0025471   -4.7955941    4915.6159            1 
   70000    1.9919895   -4.8002434     4919.619            1 
   71000    2.0032526   -4.7984074    4940.5395       -1e+20 
   72000     1.979218   -4.8213824    4930.8851            2 
   73000     2.001064   -4.8285535    4905.0935            2 
   74000    1.9949614   -4.7501544    4920.2616            1 
   75000    1.9943915   -4.8432784    4915.6379            1 
   76000     1.935407   -4.8668493     4924.009            1 
   77000    1.9985936   -4.8226175    4906.7034            2 
   78000    2.0147195   -4.8008588    4914.1968            1 
   79000    2.0019961   -4.8487616    4910.3308            1 
   80000    1.9747661   -4.7687354    4948.1646            1 
   81000    1.9847374   -4.8217681    4905.3829            1 
   82000    2.0431489   -4.8223184     4888.216            2 
   83000     2.008258   -4.7933949    4935.9065            1 
   84000    2.0000059   -4.8620252    4901.0954            1 
   85000    1.9965634   -4.8111115    4915.5112       -1e+20 
   86000     1.979962   -4.8164057      4917.14            4 
   87000    2.0109319   -4.8572645    4900.5419            1 
   88000     2.002571   -4.7858671    4930.2606            2 
   89000    2.0363311   -4.8064182    4922.5139       -1e+20 
   90000    2.0202056   -4.7973498     4911.983            1 
   91000    1.9933225   -4.8084794    4911.3582            1 
   92000    1.9916017   -4.7501319    4937.0546            1 
   93000    1.9611931   -4.7665134    4903.1533            1 
   94000    2.0078656   -4.7763797    4928.9865            1 
   95000    1.9250988   -4.8218181    4933.8694            1 
   96000    2.0310508   -4.7587883    4931.0189            1 
   97000    2.0265712   -4.8124611    4947.8157            1 
   98000     2.002499   -4.7952557    4926.6795            1 
   99000    1.9765501   -4.7553017    4930.2865       -1e+20 
  100000    1.9703758   -4.7663176    4921.3964            1 
  101000    1.9180554    -4.763947    4952.8919            1 
  102000    2.0425469   -4.8208463    4947.6892            1 
  103000     1.963984    -4.788967    4898.2607            2 
  104000    1.9994961   -4.7729816     4895.399            2 
  105000    2.0312191   -4.8251149    4908.5225            1 
  106000    1.9878151    -4.821573    4946.7554            1 
  107000    2.0386054   -4.7899674    4910.2965            1 
  108000    1.9906682   -4.7715032    4883.4659            1 
  109000    1.9823743   -4.8077983    4920.5995            1 
  110000    2.0094785   -4.7607891    4942.3854       -1e+20 
  111000    2.0267502   -4.8386424     4917.064       -1e+20 
  112000    1.9956544   -4.8020255    4901.2366            1 
  113000    1.9925628   -4.7925067    4959.9489            1 
  114000    2.0257031    -4.835582    4902.6934       -1e+20 
  115000    1.9592315   -4.7759911    4955.2756            1 
  116000    1.9921558   -4.8342232    4933.1942            2 
  117000    1.9949331   -4.7873363    4921.8931            1 
  118000    1.9650155   -4.8222749    4895.2442            1 
  119000    2.0215914    -4.789593    4917.0621            1 
  120000    2.0040678   -4.7635161    4921.2685            1 
  121000     1.979614   -4.8509118    4909.9897            1 
  122000    1.9910493   -4.8064679    4922.2016            1 
  123000    2.0021118   -4.8507092    4893.4088            1 
  124000    1.9917785    -4.761719    4947.0737            1 
  125000    2.0325318   -4.8158639     4922.185       -1e+20 
  126000    2.0185381   -4.7709976    4933.9093            1 
  127000    1.9763115   -4.8013293    4944.2756       -1e+20 
  128000    2.0250794   -4.7920173    4930.7441            1 
  129000    1.9852032   -4.8817273    4872.1112            2 
  130000     1.999626   -4.8269227    4910.4125            2 
  131000    2.0000699   -4.7165621     4937.844       -1e+20 
  132000    2.0203914   -4.8146551    4926.6742            1 
  133000    1.9779094   -4.8023022    4935.8427       -1e+20 
  134000      2.03504   -4.7911657    4918.5569       -1e+20 
  135000    2.0165868   -4.8285264      4896.95            2 
  136000     2.042751   -4.8431048    4877.7072            1 
  137000    2.0055197   -4.8044918    4916.4994            1 
  138000    1.9698205   -4.8136268    4933.3805            1 
  139000    2.0165477   -4.7984248    4921.0987            1 
  140000     1.953736   -4.8080114    4933.0962            1 
  141000    2.0086021   -4.8125484     4891.546            1 
  142000    2.0485744   -4.8250067    4924.7849            2 
  143000    1.9747606   -4.8122194    4950.7014            1 
  144000    2.0017835   -4.8046829     4893.054            2 
  145000    2.0117712   -4.8434451    4885.4138            1 
  146000    2.0657361   -4.8208652    4925.7218            1 
  147000    2.0256873   -4.8023669    4889.9795            1 
  148000    1.9992512   -4.7548942    4919.9525            1 
  149000    2.0006699   -4.8291349    4875.7871            1 
  150000    2.0137969   -4.7643442    4959.8786            1 
  151000    1.9744201   -4.8072418    4903.2401       -1e+20 
  152000    1.9982986   -4.8125014    4901.9843            1 
  153000    2.0194038   -4.7955782    4942.5821            1 
  154000    2.0347181   -4.8008506    4926.9791            1 
  155000    1.9799719   -4.7978058    4921.9551            1 
  156000    1.9317553   -4.7923012    4952.9111       -1e+20 
  157000    1.9774319   -4.7917584    4925.3246            1 
  158000    2.0432827   -4.7755727    4913.5908            2 
  159000    1.9990946    -4.785616    4909.4092            1 
  160000     1.993324   -4.7567101    4951.8468            1 
  161000    1.9951682   -4.8201648    4920.8859            1 
  162000    1.9954894    -4.810529    4900.2379            1 
  163000    1.9597694   -4.8161489    4906.5869       -1e+20 
  164000    2.0171476   -4.8019863    4927.5475            2 
  165000    2.0165944   -4.7518578    4939.1004            1 
  166000     1.940182   -4.8056124     4904.199            1 
  167000     2.006505   -4.7969402    4927.3397            1 
  168000    2.0639006   -4.8253134     4910.923            1 
  169000    1.9969534   -4.8042926    4925.9984            1 
  170000    2.0019817   -4.8060513    4921.7802            1 
  171000    2.0074477     -4.80433    4899.5412            1 
  172000    1.9839073   -4.8226952    4921.1757            1 
  173000    1.9977334   -4.8239653    4880.7795            1 
  174000    2.0209354   -4.8208256    4927.0295            2 
  175000    1.9903638   -4.8392324    4888.7445            2 
  176000    2.0382289   -4.8051621    4924.7856            1 
  177000    2.0221569   -4.8317234    4884.4732            1 
  178000    2.0320839    -4.855553    4943.5232            1 
  179000    2.0444508   -4.7908686    4907.2437            1 
  180000    1.9798201   -4.8045276    4928.0771       -1e+20 
  181000    2.0080796   -4.8015563    4915.9465            1 
  182000    2.0060901    -4.770227    4938.1464            2 
  183000    2.0337902   -4.7551498    4934.6754            1 
  184000    1.9891006   -4.8152885    4933.4072            1 
  185000    1.9988762   -4.8099082    4927.4415            1 
  186000    1.9854845   -4.7849599    4944.6865            1 
  187000    1.9667589   -4.8047566    4912.5166            1 
  188000    2.0273916   -4.7677663    4916.7343            1 
  189000     1.961662   -4.8374016    4918.4801            1 
  190000    1.9956835   -4.8060782     4916.602       -1e+20 
  191000    1.9741858   -4.8321889    4912.9181            1 
  192000    2.0419033   -4.7567144    4921.5031            1 
  193000    1.9544751    -4.829376    4889.3926            2 
  194000    2.0024708   -4.7819178    4930.5378       -1e+20 
  195000    2.0205539   -4.7965997    4955.7667            1 
  196000    2.0538796   -4.8002335    4930.6233            1 
  197000    1.9801822   -4.7521777    4939.8818            1 
  198000    1.9709039   -4.8297736    4938.0667            3 
  199000    1.9961255   -4.8180198    4942.9384       -1e+20 
  200000    1.9873334   -4.8205472    4920.5501            1 
  201000    2.0217038   -4.8231989    4922.4576       -1e+20 
  202000    2.0651916   -4.8428046    4887.0176            1 
  203000    2.0279896   -4.8221139    4917.9476            1 
  204000    1.9510443   -4.8715166     4905.374            1 
  205000    2.0194926   -4.7680239     4948.117            2 
  206000    2.0047707   -4.7676456    4928.2903       -1e+20 
  207000    2.0203886   -4.8122945    4923.5429            1 
  208000    1.9630758   -4.8104114    4924.6695            1 
  209000    2.0318696   -4.8090889    4925.1937       -1e+20 
  210000    2.0393099    -4.768956    4930.1868            1 
  211000    1.9859459   -4.7706747    4944.2016            1 
  212000    2.0180492   -4.8519324    4878.6227       -1e+20 
  213000    1.9853197   -4.8373594    4923.0927            1 
  214000    1.9796333   -4.7875381      4922.29            1 
  215000    2.0099891   -4.8632423    4883.5181            1 
  216000    1.9938384   -4.7902025    4909.9494            1 
  217000    2.0126067   -4.7939505    4895.6671            1 
  218000     1.993393   -4.7110716    4949.3903            1 
  219000    1.9826246   -4.8139327     4929.208            1 
  220000      1.99364   -4.7932124    4927.7696            1 
  221000    1.9824621   -4.8054567    4937.8182       -1e+20 
  222000     1.999169   -4.8102908    4899.7734            1 
  223000    1.9983674   -4.7651156    4902.0341            2 
  224000    2.0210638   -4.8118543    4913.9705       -1e+20 
  225000    2.0201602   -4.7514245    4915.5939            1 
  226000     2.020592   -4.8239701      4923.43       -1e+20 
  227000    2.0085777   -4.8229713    4914.5833            1 
  228000    1.9996296   -4.8191851    4895.1798            1 
  229000    2.0003736   -4.7794232    4926.1833            1 
  230000    2.0343237   -4.8713429    4917.2176            1 
  231000     1.976204   -4.7813655     4923.133            1 
  232000    2.0054749   -4.8232661    4920.6204       -1e+20 
  233000    2.0068649    -4.824781    4886.9911            2 
  234000    1.9823574   -4.8441692    4905.4915            1 
  235000    1.9706714   -4.8393954    4911.7896            1 
  236000    1.9743534   -4.8096723    4915.4038       -1e+20 
  237000    2.0892976   -4.8247048    4891.6509            1 
  238000    2.0119096   -4.8416414    4962.3816            1 
  239000    2.0572326   -4.8486257    4894.2251            3 
  240000    1.9995332   -4.8227989    4918.5972            1 
  241000    1.9830103   -4.8300593    4936.3605            1 
  242000    1.9502146   -4.7622936    4919.2349            1 
  243000    1.9619286   -4.7735421    4901.6166            1 
  244000    2.0276343   -4.8402983    4949.4312       -1e+20 
  245000    2.0061045   -4.8066664    4924.5015            3 
  246000    2.0412672   -4.7856754    4936.7143            1 
  247000    2.0082995   -4.8443724     4897.773            1 
  248000    2.0248874   -4.7652621    4932.5332            1 
  249000    1.9816324   -4.8118717    4910.4723            1 
  250000    1.9897416   -4.8298738     4908.212            1 
  251000    2.0115441   -4.8341422    4912.3124            1 
  252000    2.0182926   -4.7914313    4929.5327       -1e+20 
  253000     2.032717   -4.8091612     4933.286            2 
  254000    1.9532751   -4.7920588    4883.6142            1 
  255000    1.9955154   -4.8214617    4896.6141            1 
  256000    1.9938548   -4.7893127    4916.0252            1 
  257000     1.999707   -4.7459329    4943.8449            1 
  258000    2.0110258   -4.8041842    4885.3919            2 
  259000    2.0384521    -4.833297    4912.7081            2 
  260000    2.0351174   -4.8137602    4952.4195            1 
  261000    1.9871584   -4.8139527    4923.0821            2 
  262000    2.0122451   -4.7802879    4941.7603       -1e+20 
  263000    2.0025558   -4.7657475    4933.8401            1 
  264000    1.9689161   -4.7758822    4931.5509            2 
  265000    1.9858525   -4.7701161    4946.2934            1 
  266000    1.9962089   -4.7845596    4954.8675            1 
  267000    2.0478838   -4.7614871    4943.5003       -1e+20 
  268000    1.9692864   -4.7345071    4930.1133            1 
  269000    1.9388945   -4.8139076    4933.5673            1 
  270000    2.0067046   -4.7571049    4946.1735            1 
  271000     2.011257   -4.8088189    4922.5847            1 
  272000     2.032429   -4.8303998    4903.7969            1 
  273000    1.9321641   -4.7704935    4897.5762            2 
  274000    2.0227432   -4.7800584    4940.4136            2 
  275000    1.9862835   -4.7877787    4934.1796            1 
  276000    1.9482674   -4.7977795    4939.1498            1 
  277000    1.9960031   -4.8615888    4959.6658            1 
  278000     1.999746   -4.7771463    4915.7472            1 
  279000    2.0104014   -4.7758805    4880.4733       -1e+20 
  280000    1.9879375   -4.7974996    4908.2192            2 
  281000    1.9772525   -4.8456467    4889.0712            1 
  282000    2.0050428   -4.8041223    4900.6152            1 
  283000    1.9548826   -4.7148409     4894.316       -1e+20 
  284000    1.9622571   -4.8232604    4883.4026            1 
  285000    1.9861723   -4.7928393    4884.6864       -1e+20 
  286000    1.9798815   -4.8487214    4903.9397            1 
  287000    2.0131387   -4.8140952      4922.13            1 
  288000    2.0248764   -4.8267224    4893.4606            1 
  289000    2.0024547   -4.8018923    4890.5475            1 
  290000    2.0222304   -4.8231723    4924.6112            1 
  291000    2.0080646   -4.7941378    4941.2891            1 
  292000    2.0034453    -4.735373    4929.1285       -1e+20 
  293000    2.0575643   -4.8045734     4900.268            1 
  294000    2.0130843   -4.8333783    4905.9198            1 
  295000    2.0279816   -4.8183524    4941.1503            1 
  296000    1.9972416   -4.8126353    4890.7981            2 
  297000     2.010835   -4.7706191    4944.5527            1 
  298000    1.9744623   -4.8789218    4898.4508       -1e+20 
  299000    2.0350081   -4.7628442    4941.6884            1 
  300000    2.0172187   -4.8273999    4912.8599            1 
  301000    2.0334801   -4.7891411    4905.5806            1 
  302000    1.9899394   -4.7634358    4915.4405            1 
  303000    1.9843049   -4.8197883    4935.5584            1 
  304000    1.9950195   -4.7889788    4887.2451       -1e+20 
  305000     1.989645   -4.8407268    4882.1379            1 
  306000    1.9764313   -4.7769923    4921.2688            1 
  307000    2.0826401   -4.8429248    4924.3961            1 
  308000    1.9795755   -4.8578515     4894.438            2 
  309000    1.9667208   -4.7550871    4923.2202       -1e+20 
  310000    1.9651833   -4.8186012    4915.9358            1 
  311000     2.064123   -4.8333847     4922.281            1 
  312000    2.0071706   -4.8206301    4922.6366            1 
  313000    1.9917923   -4.8538775    4902.4713            1 
  314000    2.0142951   -4.7854909    4897.5676       -1e+20 
  315000    1.9975757   -4.7761714    4906.4825            1 
  316000    2.0230611   -4.8060473    4926.0955            1 
  317000    1.9801962   -4.8013407    4903.6945            2 
  318000     1.992108   -4.8217732    4885.7321            1 
  319000    1.9798125   -4.8159342    4869.1787            1 
  320000     1.995432   -4.7335467    4926.9211            1 
  321000    2.0323457   -4.8379173    4895.8814            1 
  322000    2.0198024   -4.7982593     4908.311            1 
  323000    1.9846154   -4.7666982    4929.3965            1 
  324000    2.0032499   -4.7929485    4924.1537            1 
  325000    2.0266164   -4.8394303    4898.3944            1 
  326000    1.9824992   -4.7787314    4927.0727            1 
  327000    1.9936589   -4.7854456    4970.2665            1 
  328000    2.0036645   -4.8631407    4884.5064            1 
  329000    2.0054274   -4.8332555    4882.1145            1 
  330000    1.9861297   -4.8425567    4915.3353            1 
  331000    1.9981082   -4.8147509    4895.8023            1 
  332000    1.9953826   -4.8576261    4920.5778            2 
  333000    1.9805775   -4.7811837     4904.495            1 
  334000    1.9783364    -4.822728    4925.5931            1 
  335000    2.0116066   -4.7509604    4944.2944            1 
  336000    2.0229605   -4.7690242    4932.7885       -1e+20 
  337000    1.9854658   -4.8517098    4910.6453            1 
  338000    2.0248091   -4.8322889    4892.1381            1 
  339000     2.015664   -4.7848943    4952.1143       -1e+20 
  340000    2.0470389   -4.7966658    4921.3094            1 
  341000     2.055446   -4.8336236    4922.5054            2 
  342000    1.9515881   -4.8167215    4933.2745            1 
  343000    1.9625087   -4.7977755    4891.7924            2 
  344000    1.9818243   -4.7544386    4957.4592            1 
  345000    1.9632847   -4.7931918    4935.1373            1 
  346000    1.9997361   -4.7887962    4924.8513            1 
  347000    1.9899852   -4.8220579    4917.1712            1 
  348000    2.0082686   -4.7685354    4920.9947            1 
  349000    1.9931065   -4.8270033    4933.2754            1 
  350000    1.9871177   -4.8558574    4908.8866            1 
  351000    2.0047119   -4.8138491    4922.3963            1 
  352000    2.0276289   -4.7773335    4901.6735            1 
  353000    1.9979279   -4.7831197    4939.7862            1 
  354000    2.0432613   -4.7872552    4941.5423            1 
  355000    1.9814256   -4.7680548    4929.3219            1 
  356000     2.002039   -4.7676717    4932.5385            1 
  357000    2.0086828   -4.7883373    4934.0316            1 
  358000    2.0230281   -4.8557006     4904.233       -1e+20 
  359000    2.0279103   -4.8410505     4928.113            1 
  360000    2.0072634   -4.7796504     4941.381            2 
  361000    2.0163838   -4.8619729    4932.8717            2 
  362000     2.014087   -4.7914285    4943.3603            1 
  363000    1.9869775   -4.7908654    4927.7633       -1e+20 
  364000    1.9872476   -4.7653652    4917.8047            1 
  365000    1.9523033   -4.7977207     4947.663       -1e+20 
  366000      2.01221   -4.8368318    4916.3425            1 
  367000     1.992622   -4.7515773    4908.3272            1 
  368000    2.0158735   -4.8016903    4938.6111            1 
  369000    1.9350159    -4.772546    4933.1746            1 
  370000    2.0021063   -4.7393401    4940.4591            1 
  371000    1.9913045   -4.7524879    4947.5789            1 
  372000      2.00005   -4.7467109    4896.0538       -1e+20 
  373000    1.9693229   -4.8223518    4913.2085            1 
  374000    2.0049107   -4.8005771    4927.1266       -1e+20 
  375000     2.005038    -4.783504    4935.2138       -1e+20 
  376000    2.0171906   -4.7712425    4923.5524            1 
  377000    2.0136513   -4.7487061    4940.2193            1 
  378000    2.0291122   -4.7858229    4947.2034       -1e+20 
  379000    2.0304977   -4.8127692    4943.1367            1 
  380000    1.9855312   -4.8081319     4923.293            1 
  381000    2.0456686   -4.8053072    4914.9831            1 
  382000    1.9971746   -4.8061945    4925.0397       -1e+20 
  383000    2.0430606   -4.7694547    4938.4905            2 
  384000    2.0150397   -4.8022665    4952.8354            1 
  385000     1.990371   -4.8555874    4915.3658            2 
  386000    2.0015332   -4.8000402    4935.8321            1 
  387000    1.9825794   -4.8006432     4904.175            1 
  388000       2.0267   -4.7929615    4894.8785            1 
  389000    1.9363546   -4.7323632    4938.9443            1 
  390000    2.0501421   -4.7624783    4900.6272            1 
  391000    1.9937563   -4.7581328    4930.6983            1 
  392000    2.0280975   -4.8042521    4920.7923            1 
  393000    1.9905645    -4.819991    4887.3314            2 
  394000    1.9902988   -4.8221343    4891.4991            2 
  395000    2.0071218   -4.8112667    4904.0011            1 
  396000    2.0308316    -4.802878    4891.7408            1 
  397000    1.9972629   -4.8029457     4922.262            2 
  398000    2.0042196   -4.8558625    4879.0324            1 
  399000    1.9945191   -4.8340612    4887.7612       -1e+20 
  400000     1.983409   -4.8024574      4911.72            1 
  401000    2.0056623   -4.7568299    4948.7324            1 
  402000    1.9818357   -4.8060595    4885.0131            1 
  403000    1.9905053   -4.8201694    4937.7108            1 
  404000    1.9575671   -4.7085903    4978.0439            1 
  405000    1.9815054   -4.8194233     4919.668            1 
  406000     1.989399   -4.7682522      4959.67            1 
  407000    2.0011609   -4.8061605    4916.4036       -1e+20 
  408000    2.0277821   -4.8229009     4920.142            1 
  409000    1.9756037   -4.7648303    4886.0583            2 
  410000    2.0027418   -4.7643769    4936.0902            1 
  411000     2.016319   -4.7957142    4944.7197            1 
  412000    2.0378678   -4.7585063    4919.2489            1 
  413000    1.9975515   -4.8154437     4936.767            1 
  414000    2.0259007   -4.8724172    4911.1023            1 
  415000    1.9626702   -4.8315172    4931.5117            1 
  416000    1.9958567   -4.8447799     4926.726            1 
  417000    2.0035245   -4.7771151    4929.0782            2 
  418000    2.0134312   -4.7838051    4898.7133            1 
  419000    2.0239683   -4.7859644    4910.6291            1 
  420000    1.9970677   -4.7790188    4940.3235       -1e+20 
  421000    2.0192017   -4.7531212    4959.0701       -1e+20 
  422000    1.9892293   -4.8156599    4939.0531       -1e+20 
  423000    1.9711559   -4.7810819    4869.3605            1 
  424000    2.0272922   -4.8095803    4908.4262            1 
  425000    1.9743184   -4.8213082    4902.5669            1 
  426000    2.0006591   -4.7887049     4945.062            1 
  427000    2.0062822   -4.7572591    4941.3917            2 
  428000    2.0119525   -4.8243426    4899.8887            1 
  429000     2.024668   -4.8432148    4905.9633            1 
  430000    1.9982801   -4.7565835    4951.2727            1 
  431000     1.981134   -4.8202058    4963.0572            3 
  432000    1.9903697   -4.7776356    4939.2069            1 
  433000    1.9581361   -4.7799412    4956.0256            1 
  434000    1.9592653   -4.7382871    4927.9965            1 
  435000    2.0049117   -4.8217221    4902.8873            1 
  436000    1.9641464   -4.8073813    4906.1244            2 
  437000     2.020668   -4.8176107    4909.3829            2 
  438000    2.0080756   -4.8084457    4924.9077            1 
  439000    2.0099641   -4.7579205    4932.5889            1 
  440000    1.9690791   -4.8038526    4950.2973            1 
  441000    2.0364103   -4.8253623    4939.5417            1 
  442000     2.022444   -4.8715009    4897.5083            1 
  443000    2.0141518   -4.8068456    4938.9997            1 
  444000    1.9930796   -4.7829016    4924.8673            1 
  445000    1.9870018   -4.7999575    4938.1087            1 
  446000    2.0361397   -4.8074703    4912.4497            1 
  447000    2.0000932    -4.783393    4930.7219            1 
  448000    1.9709981   -4.7649708    4935.1192            1 
  449000    1.9904586   -4.7282031    4950.4948       -1e+20 
  450000    2.0228502   -4.8167233    4906.0278       -1e+20 
  451000    2.0131598   -4.7741357    4949.2864       -1e+20 
  452000    2.0409716   -4.8684327    4904.3659            2 
  453000    1.9648112   -4.8086682    4929.4442            1 
  454000    2.0031455   -4.8459273    4948.2686            1 
  455000     2.006715    -4.821828    4918.8763            1 
  456000    1.9890191   -4.8072641     4919.505            1 
  457000     2.012447   -4.7871708    4914.1677       -1e+20 
  458000    2.0080476   -4.7969973    4886.7154            1 
  459000    1.9555369   -4.7844351    4930.1373            1 
  460000    2.0277993   -4.8218664    4906.6351            1 
  461000    2.0395378   -4.8119727    4901.2961            1 
  462000    1.9970607   -4.7646069     4935.903            1 
  463000    1.9884779   -4.7906006    4887.1919       -1e+20 
  464000    1.9700598   -4.7784582    4936.7818            1 
  465000    1.9984616   -4.7977064    4912.7542            1 
  466000    1.9428071   -4.7733158    4914.4143            2 
  467000    1.9703737   -4.8328877      4915.54            3 
  468000    2.0227463   -4.7631369    4951.0332       -1e+20 
  469000    2.0114697   -4.8058691    4907.1948            1 
  470000    2.0150071   -4.8189126     4897.111            1 
  471000    1.9870479   -4.8064769    4965.5343            2 
  472000    1.9908686   -4.8086202    4893.1426            1 
  473000    1.9945256   -4.8458984    4890.7724       -1e+20 
  474000    1.9896759   -4.7970216    4909.2692            3 
  475000    1.9767634     -4.82301    4898.8257            1 
  476000    2.0312744   -4.7819791    4906.9557            1 
  477000    1.9588389   -4.8201636    4920.1603            1 
  478000    2.0160651   -4.7907841    4920.9539            1 
  479000    2.0519072   -4.7124931    4935.7574            1 
  480000     1.997503   -4.8276182    4916.8137            1 
  481000     1.972564   -4.7741812    4933.8937       -1e+20 
  482000    1.9825805   -4.8262672    4898.9303            1 
  483000    1.9602234   -4.8067473    4910.8578       -1e+20 
  484000    2.0204778   -4.7760755    4922.9273       -1e+20 
  485000    2.0167505   -4.8225066    4900.6948            1 
  486000    1.9897683   -4.7978483    4910.7904            1 
  487000    2.0361431   -4.7616049    4929.2555            1 
  488000    2.0006905   -4.7854447    4942.8319       -1e+20 
  489000    2.0159441   -4.7648225    4954.2293       -1e+20 
  490000    1.9970479   -4.7862856    4949.3499            1 
  491000    1.9583836   -4.7654303    4975.3396            1 
  492000    2.0885888   -4.7929827    4926.9136            1 
  493000    2.0040453   -4.7800574    4937.6312            1 
  494000    2.0636322   -4.8147803    4906.1644            1 
  495000    1.9623366   -4.7844696    4943.0835       -1e+20 
  496000    1.9820661    -4.786362    4948.7181            1 
  497000    2.0100418   -4.7435713    4928.9767       -1e+20 
  498000    1.9650151   -4.7678027    4926.3264            1 
  499000    1.9634057   -4.7557966    4908.1982            1 
  500000    1.9782195   -4.8118101    4938.5744            1 
  501000    2.0585847   -4.8419844    4932.9663            1 
  502000     2.009137   -4.8120106    4918.2148            1 
  503000     2.017394   -4.7981249    4925.4831            1 
  504000    2.0036705   -4.7785642    4934.8043            2 
  505000    2.0238731    -4.811928    4916.6341            1 
  506000    1.9847674    -4.756123    4966.5058            1 
  507000    1.9745504   -4.8064181    4921.9033            1 
  508000    2.0136631   -4.7449811    4945.7869            1 
  509000    2.0579916   -4.8166261    4877.5118            1 
  510000    2.0010122   -4.7956516    4913.9176            1 
  511000    2.0327519   -4.8287514    4926.2451            1 
  512000    1.9966451   -4.7933593     4920.392            1 
  513000    2.0176144   -4.7885175    4893.7604            1 
  514000    1.9821743   -4.8535958    4941.5429            2 
  515000    1.9932779   -4.8241505    4904.9433            1 
  516000    1.9921158   -4.7616327     4937.537            1 
  517000    1.9903802   -4.7535398     4931.799       -1e+20 
  518000    1.9838216   -4.8297555    4895.8453            1 
  519000    1.9801121   -4.8374258    4912.4659       -1e+20 
  520000    2.0140391    -4.770388    4927.4569            1 
  521000    2.0211283   -4.7869445    4922.4144            2 
  522000    1.9743964   -4.7651808    4968.7107       -1e+20 
  523000    2.0055921   -4.7728921    4935.8116            1 
  524000    2.0032346   -4.8106473    4919.8485            1 
  525000    1.9993153   -4.8191329    4950.4885            1 
  526000    1.9953803   -4.8340529    4908.3095            1 
  527000    1.9779843   -4.7505924    4937.7211            1 
  528000    1.9837496   -4.7717358    4917.9044            1 
  529000    1.9859125   -4.8477213    4857.8887            1 
  530000    1.9731282   -4.8199203    4900.3794            1 
  531000     2.011241   -4.8797137     4891.251       -1e+20 
  532000    2.0060008   -4.8067466     4928.228            1 
  533000    2.0206932   -4.7863966    4919.6816            1 
  534000    2.0041269   -4.8157879    4932.0302            1 
  535000    2.0101902   -4.8585768    4883.1958       -1e+20 
  536000    2.0477651   -4.8600953    4904.1876            1 
  537000    2.0137506   -4.7788671    4886.6445       -1e+20 
  538000    2.0148668   -4.8041656    4943.1841            1 
  539000    2.0467654   -4.7823982    4934.0197            1 
  540000    2.0033927   -4.8223481    4915.9349            2 
  541000    1.9678311   -4.8006467    4920.6365            1 
  542000    2.0401599   -4.7855997    4949.0877            2 
  543000    1.9642217   -4.7919196    4924.7912            1 
  544000    1.9711752   -4.8109153    4897.5595            2 
  545000    1.9862521   -4.7668337    4961.6712            1 
  546000    1.9962418   -4.8024959    4914.2254            1 
  547000    2.0390185   -4.7829637      4900.88            1 
  548000    2.0077978   -4.7878793    4935.8021            1 
  549000    2.0138478   -4.8004135    4911.9384            1 
  550000    2.0379164    -4.821188    4919.6878       -1e+20 
  551000    2.0309454   -4.7672468    4943.7606            1 
  552000    1.9767927   -4.7954926    4933.1036            1 
  553000     1.965705   -4.7583043    4910.0319            1 
  554000    1.9827397    -4.820241    4907.6776            1 
  555000    2.0066678   -4.7708638    4903.6339       -1e+20 
  556000    1.9445598   -4.7968099    4914.8311       -1e+20 
  557000    1.9906683   -4.8009852    4924.4844            1 
  558000    2.0409091   -4.7901237    4928.6744            1 
  559000    1.9224182   -4.8057093    4921.8984            2 
  560000    1.9724738   -4.8360937    4923.4983            1 
  561000    1.9929256   -4.7732443     4940.701            1 
  562000    2.0589623   -4.7878841    4892.9323            1 
  563000    2.0169931   -4.8172218    4922.3388            1 
  564000    1.9828164    -4.770459    4942.4442       -1e+20 
  565000    2.0019082   -4.7924174    4910.6598            1 
  566000    2.0182933    -4.733063    4922.6287            1 
  567000    1.9515558   -4.8207202    4885.9597            1 
  568000    2.0017106   -4.8130218    4929.4805            1 
  569000    1.9941441   -4.8322372    4892.2052            1 
  570000    2.0065983   -4.8084757    4900.1869            1 
  571000    2.0225999   -4.8158556    4922.9478            1 
  572000    1.9831684   -4.8352944    4927.5938            2 
  573000    2.0044885   -4.7809956    4922.2236            2 
  574000    2.0089527   -4.8030364    4929.3591       -1e+20 
  575000    1.9824048   -4.8120529    4921.5242            1 
  576000    2.0286171   -4.8222297    4915.3288            1 
  577000    2.0343207   -4.8367986    4878.2039       -1e+20 
  578000    1.9925225   -4.8013085    4906.7068            1 
  579000    2.0118746   -4.7949863    4902.5779            1 
  580000    2.0192113   -4.8015645    4924.3187            1 
  581000    2.0472487   -4.8320189    4898.8501            1 
  582000    2.0031596   -4.7846046    4953.7947            1 
  583000    1.9928272   -4.8091445    4901.2343            2 
  584000    2.0081195   -4.7720075    4933.9827            1 
  585000    1.9818276   -4.7638643    4922.9441            1 
  586000    2.0030109   -4.7708875    4921.2909            1 
  587000    1.9852245   -4.8059827    4925.6378            1 
  588000    2.0216905   -4.7993347    4893.4202            1 
  589000     1.994391   -4.8133107    4975.9428            1 
  590000    2.0022654   -4.8246245     4881.268            1 
  591000    2.0063687   -4.7839933    4919.4959            1 
  592000    1.9621291   -4.8520241    4909.5432            1 
  593000     1.997484    -4.775597    4922.3401            1 
  594000    1.9823564     -4.78748    4933.1142            1 
  595000    1.9742068   -4.7936958    4898.1029            1 
  596000    2.0077443     -4.81394    4925.8955            1 
  597000    2.0104616   -4.8026544    4931.8413            2 
  598000    2.0032243   -4.7768123    4930.6224            1 
  599000    1.9668641   -4.7741874    4942.1012            1 
  600000    2.0099846   -4.8140685    4880.9889            1 
  601000    2.0275117   -4.8464718     4922.242            1 
  602000     1.989537   -4.7775906    4917.1115            2 
  603000    1.9788759   -4.7548254    4925.0159            1 
  604000    1.9708008   -4.7748519     4925.027            1 
  605000    1.9725699   -4.7790288    4916.0485            3 
  606000    1.9914668   -4.7759389    4909.0364            1 
  607000     2.027068   -4.7718602    4941.9007            2 
  608000    2.0317282   -4.8255031    4886.2271            2 
  609000    1.9759906   -4.8305283    4912.1376            1 
  610000    2.0634622   -4.8056415    4933.0246            1 
  611000    2.0554733   -4.7803007    4921.2438       -1e+20 
  612000    2.0329672   -4.7687956    4936.8433            1 
  613000     1.988151   -4.7701925    4917.2227            1 
  614000    2.0162501   -4.8072009     4903.947            1 
  615000    2.0068326   -4.8173218    4916.8792            1 
  616000    1.9895251   -4.8336839    4915.3025            1 
  617000     2.017685   -4.8350759    4898.7799            2 
  618000    1.9993205   -4.7563142    4929.8089            1 
  619000    1.9936698   -4.7742813    4899.4002            2 
  620000    2.0593276   -4.7748391    4886.8294            2 
  621000    2.0081615    -4.807073    4924.4006       -1e+20 
  622000    2.0062193   -4.8296973    4925.7559            1 
  623000    2.0241474   -4.8491311    4913.2293            1 
  624000    2.0062446   -4.7977277    4904.6139            1 
  625000    1.9936987   -4.8152021    4934.4242            1 
  626000    2.0294152   -4.7866095    4917.1972            1 
  627000    1.9319825   -4.7706633    4903.6496            1 
  628000    1.9861088   -4.7667586    4959.6316            1 
  629000    2.0213475   -4.7825695    4884.0679       -1e+20 
  630000    1.9914092   -4.8168885    4909.2568            1 
  631000    2.0478269   -4.7682699    4923.0753            1 
  632000    2.0155831   -4.7929344    4907.6246       -1e+20 
  633000    1.9933568   -4.7865917    4921.9486            1 
  634000    1.9707237   -4.7914513    4966.2126       -1e+20 
  635000    2.0278137   -4.7986862    4912.6917            3 
  636000    2.0083769   -4.7801185    4946.1029            1 
  637000    1.9652161   -4.8219824    4919.1647            1 
  638000    2.0192197    -4.795687     4943.497            1 
  639000    1.9877627   -4.8534612    4903.2541       -1e+20 
  640000    2.0204333   -4.7725061    4931.8841            1 
  641000    1.9958992   -4.8097312    4908.1127       -1e+20 
  642000    2.0169339   -4.8166752    4900.9541            2 
  643000    1.9779811   -4.7944368    4932.5679            1 
  644000    1.9969966   -4.7639107    4915.6044            1 
  645000    1.9810195   -4.8223355    4942.6015            1 
  646000    1.9832105   -4.7976314    4910.6189            1 
  647000    1.9657197   -4.8438786    4909.6238            2 
  648000    1.9740716   -4.7331635    4939.0592            1 
  649000    2.0193861   -4.8246707    4914.8558            1 
  650000    2.0093528   -4.7976824    4935.4386       -1e+20 
  651000    2.0243319   -4.7713354    4914.4154            1 
  652000    2.0024008   -4.8434714    4896.2549            1 
  653000    1.9964452   -4.7845762    4932.4178            1 
  654000    2.0093825   -4.8111081    4918.3931            1 
  655000    1.9964888   -4.8042546    4927.0793            1 
  656000    1.9850378   -4.7924283    4897.1203            1 
  657000    1.9873377   -4.8230474    4940.2075            1 
  658000    2.0044448   -4.8506433    4940.7834            2 
  659000    2.0058059   -4.7409397     4964.887            1 
  660000    2.0320851   -4.8159767    4916.5877            1 
  661000    2.0022993   -4.8532679    4927.3974            1 
  662000    2.0395626   -4.8068477    4923.2551            1 
  663000    2.0215781    -4.767951    4926.3242            1 
  664000    1.9737042   -4.7686202    4930.6676       -1e+20 
  665000    1.9947691   -4.8011715    4898.6964            2 
  666000    2.0010327   -4.7972482    4930.2401            1 
  667000    1.9597745   -4.7818505    4953.5175            1 
  668000    1.9799723   -4.8044061    4919.9223            1 
  669000    2.0347981   -4.7843841    4931.8802            1 
  670000     2.014767   -4.8314535    4910.4487            1 
  671000    1.9828822    -4.858596    4879.5304            1 
  672000    1.9894866   -4.8120575    4895.5298            1 
  673000    2.0130511   -4.8488452    4924.4594            1 
  674000    1.9931693   -4.8420082    4885.4976       -1e+20 
  675000    1.9636485   -4.8006309    4913.5971            1 
  676000    1.9863365   -4.7623548    4952.4509            1 
  677000    2.0044462   -4.8602725    4901.4827            1 
  678000    2.0170703   -4.8084759    4909.8406            2 
  679000    2.0401168   -4.8131241    4927.4967            1 
  680000    2.0088333   -4.7927897    4921.3105       -1e+20 
  681000    1.9590546   -4.7975418    4901.1967            1 
  682000    1.9605297   -4.7795612     4922.033            1 
  683000    1.9569894   -4.7863004    4900.4074            1 
  684000    1.9756001    -4.816879    4939.6652       -1e+20 
  685000    2.0066286   -4.8049272    4938.2536            1 
  686000     1.992329     -4.76959     4920.877            4 
  687000    1.9580466   -4.8318254    4918.1437            1 
  688000    1.9873779   -4.7854437    4925.7816       -1e+20 
  689000    2.0071686   -4.8169684    4942.3177            1 
  690000    2.0132505   -4.7989046    4933.9621            1 
  691000    2.0029797   -4.7943418    4935.1454       -1e+20 
  692000    1.9380468   -4.8506538    4891.4104            1 
  693000     2.038605    -4.803171    4942.9866            1 
  694000    1.9998565   -4.8133567    4912.4041            1 
  695000    2.0181239   -4.8265904    4914.8122            1 
  696000    1.9500724   -4.8037796      4925.13            1 
  697000    1.9848507   -4.8057879    4927.3339            1 
  698000    1.9913616   -4.8495954    4896.0054            1 
  699000    1.9939375   -4.7664367    4964.5977            1 
  700000    1.9833239   -4.8372529      4899.36            1 
  701000    1.9777957   -4.7971747    4926.5919            1 
  702000     1.971694   -4.7727105     4925.593            2 
  703000    1.9488691   -4.7953609    4948.9719            2 
  704000    1.9946369   -4.7873677    4941.7869            1 
  705000      2.02756   -4.7693027    4924.9243            1 
  706000    1.9772603   -4.8259292    4913.7056            1 
  707000        1.967   -4.7459132    4907.8374            1 
  708000    2.0143385   -4.7993257    4934.1075            1 
  709000    2.0006326   -4.8251403    4948.4308            2 
  710000    1.9801463   -4.7756956    4948.9106       -1e+20 
  711000    2.0243685   -4.7789526    4905.3701            1 
  712000    2.0338474   -4.8104417    4904.1483            2 
  713000     2.004537   -4.8475789    4918.8973            1 
  714000    1.9624063   -4.8142172    4923.5065            1 
  715000    2.0022948   -4.8095224    4923.3878            1 
  716000    2.0034795   -4.7968372    4933.9454            1 
  717000    1.9868464   -4.7849655    4910.7777       -1e+20 
  718000    1.9900988   -4.8112222    4914.4015            1 
  719000    2.0362861   -4.7976879    4921.9012            2 
  720000    2.0068564   -4.8012256    4890.0868            1 
  721000    1.9972003   -4.7659587    4911.4116            2 
  722000     1.955082   -4.7834365    4939.5859            1 
  723000    1.9879019   -4.8070036    4922.3431            2 
  724000     2.009785   -4.8160082    4930.3049            1 
  725000    2.0091278   -4.8140663    4902.0833            1 
  726000    2.0568891   -4.7866314    4943.7232       -1e+20 
  727000    1.9822571   -4.7983002    4915.2921       -1e+20 
  728000    2.0146543   -4.8000468    4929.0794            2 
  729000    2.0475912    -4.795813    4909.7026       -1e+20 
  730000    1.9965613   -4.7746333    4942.9955            1 
  731000    1.9850831   -4.7588315    4937.2748            2 
  732000    2.0297055   -4.7761456    4924.0634            1 
  733000    2.0064757   -4.8419888    4877.1158            1 
  734000    2.0343769   -4.7753764    4893.0136            1 
  735000    2.0467292   -4.7863013    4920.8102            1 
  736000    2.0005202   -4.7987382    4922.4827            1 
  737000    2.0027809   -4.7870049    4966.6042       -1e+20 
  738000    2.0427996   -4.8164171    4894.4131            1 
  739000    1.9810779   -4.7768014    4935.2439            1 
  740000    2.0082368   -4.8452919    4894.1547            1 
  741000     1.980234    -4.766014    4926.3859            1 
  742000    2.0253543   -4.7507344    4933.1229            1 
  743000    2.0228744   -4.8185561    4940.4921            1 
  744000     1.998846     -4.81628    4915.5986       -1e+20 
  745000    2.0297688   -4.7678668    4907.5637            1 
  746000    2.0631519   -4.8461542     4925.041            1 
  747000    2.0375888   -4.7901488    4891.7084            1 
  748000    1.9571607   -4.8158556    4940.8747            1 
  749000    2.0082901   -4.8183295    4918.0414       -1e+20 
  750000    1.9823152   -4.7457042    4946.7235       -1e+20 
  751000    2.0433796   -4.8218549    4915.4485       -1e+20 
  752000     1.989464   -4.7783415    4942.1901            1 
  753000    1.9961188   -4.7992127    4888.8338            1 
  754000    1.9802962   -4.7901196    4908.6198       -1e+20 
  755000    1.9660628   -4.7779703    4914.9666            1 
  756000     2.030136   -4.7704179    4881.8774            1 
  757000    2.0174067   -4.7303049    4963.3252            1 
  758000    2.0024135   -4.7954028    4936.4641            1 
  759000    2.0140154    -4.809637    4907.3322       -1e+20 
  760000    2.0056305   -4.7700075    4925.3291            1 
  761000    2.0021221   -4.8041591    4891.3674            1 
  762000    1.9863583   -4.7961168    4921.0197            1 
  763000    1.9891314   -4.7852698    4926.7632            1 
  764000    2.0150348   -4.7642552    4922.3368            1 
  765000    2.0162242   -4.7491285    4923.1663            1 
  766000    2.0249947   -4.8167034     4925.294            2 
  767000     1.963831   -4.7933267    4958.4665       -1e+20 
  768000    2.0207836    -4.811814    4908.5766            1 
  769000    1.9758847   -4.8214006    4931.9671            1 
  770000    2.0169132   -4.8053649     4923.388            1 
  771000    2.0253908   -4.7655864    4927.0552            2 
  772000       1.9657   -4.7805827    4933.8508            1 
  773000    1.9697655   -4.7706586    4900.4875            1 
  774000    1.9914284    -4.823757    4917.6936            1 
  775000    2.0099161   -4.7685018    4920.8687            2 
  776000    2.0124876   -4.8297596    4944.0543            1 
  777000    1.9962042   -4.7640612    4934.3842            1 
  778000    2.0518474   -4.7801198    4916.4903            1 
  779000    2.0208218   -4.8230151    4913.7912            1 
  780000    1.9927635   -4.8050662    4909.2403            1 
  781000    2.0422699   -4.7743129    4917.3116            1 
  782000    2.0051418   -4.8142479    4916.5857            1 
  783000    1.9867327   -4.8298594    4944.5859            1 
  784000    1.9525554   -4.8245474    4913.9041            1 
  785000    1.9912281   -4.8133428    4914.5691            1 
  786000    1.9903543   -4.7504639    4925.9007            1 
  787000    1.9712873   -4.8674084    4905.8306            1 
  788000    1.9866591   -4.7148278    4928.4483            2 
  789000     2.010544   -4.8078539    4909.5917            1 
  790000    1.9833338   -4.7504215    4921.2571            1 
  791000    1.9932116   -4.8167505    4921.8695            1 
  792000    2.0161655   -4.8051926    4890.5322            2 
  793000    2.0306571   -4.7823716    4925.1987            1 
  794000    2.0068058   -4.8303617    4939.0035            1 
  795000    1.9873089   -4.8902276    4896.1618            1 
  796000    2.0004273    -4.793201     4925.309            1 
  797000    2.0023909    -4.781685    4928.3793            2 
  798000    1.9698549   -4.7962015    4923.8646            1 
  799000     2.003692   -4.7932297    4907.3433            1 
  800000    2.0019712   -4.7807298     4935.077            1 
  801000    2.0012059   -4.8213837    4904.2885            1 
  802000    1.9949949   -4.8004415    4923.7481            1 
  803000    1.9832823   -4.8166236    4894.3448            1 
  804000    1.9990194   -4.8371414    4908.5335            1 
  805000    2.0048737   -4.8058981     4902.993            3 
  806000     1.975311   -4.8290501    4892.9304       -1e+20 
  807000    1.9838615   -4.8111196     4908.263            1 
  808000    2.0353157   -4.7700576    4945.0218            1 
  809000    2.0167603   -4.8187597    4928.8774            1 
  810000    2.0212794   -4.7908982    4925.4161            2 
  811000    1.9538719   -4.7984185    4934.9832            1 
  812000     2.011905   -4.7798148    4942.0604            1 
  813000    1.9888168   -4.7911436    4886.2862            1 
  814000    1.9815317   -4.7748248    4908.3369            1 
  815000    2.0072903   -4.7293148    4963.8699            1 
  816000    2.0119692   -4.8480843    4911.3878            1 
  817000    1.9614779   -4.7737875    4925.1301            1 
  818000    1.9967404   -4.7908162    4941.3809            1 
  819000    1.9694839   -4.8071353    4947.7714            1 
  820000    2.0019756   -4.8414721    4891.8867            1 
  821000    1.9941798    -4.795999    4886.5003            1 
  822000    1.9955219    -4.802308    4913.9979            1 
  823000     2.047853   -4.7859488    4920.5603            1 
  824000    1.9829017    -4.783686    4918.6984       -1e+20 
  825000     1.976755   -4.7612678    4933.5316            1 
  826000    2.0326642   -4.8194164    4904.0828            1 
  827000    2.0079555   -4.8215965    4952.8862            1 
  828000    2.0185721   -4.7916314    4943.3219            1 
  829000    1.9657335   -4.8307895    4897.5472            1 
  830000    1.9821219   -4.8110242    4916.4134            1 
  831000    1.9954317   -4.7653665    4941.7788            1 
  832000    2.0345162    -4.768495    4954.7275            1 
  833000    1.9830578   -4.8455152    4940.4734            2 
  834000    1.9798388   -4.8089412    4894.3622       -1e+20 
  835000    2.0403367   -4.8411625    4909.4028            3 
  836000    2.0167645   -4.8518684    4916.7207       -1e+20 
  837000    2.0072934   -4.8424216    4903.8776            1 
  838000    2.0495635   -4.8208184    4947.6032            1 
  839000    1.9991396   -4.8354336     4891.819            1 
  840000    2.0034123    -4.842109    4902.0252            1 
  841000    1.9897773   -4.7963965    4945.1767            1 
  842000    2.0126287   -4.7884692    4931.3749            1 
  843000    2.0479702   -4.7983253    4911.8111            2 
  844000    2.0031948   -4.8764003    4886.7274            1 
  845000    2.0212378   -4.7617506    4913.5048            1 
  846000    1.9771521     -4.82702    4960.0752            1 
  847000    1.9945258   -4.8397537    4927.4816            1 
  848000    2.0107376   -4.7371661    4928.8695            1 
  849000    2.0159305   -4.8001598    4922.3937            1 
  850000    1.9636027   -4.7714072    4901.4792            1 
  851000    1.9827269   -4.7882728    4947.9525            1 
  852000    1.9747672   -4.7790664    4912.8907            3 
  853000    1.9767349   -4.8211711    4934.6077       -1e+20 
  854000    1.9993975   -4.8566541    4914.8727            1 
  855000    1.9881603   -4.8050094    4916.0078       -1e+20 
  856000    2.0071841   -4.8108367    4913.3902            1 
  857000    2.0045938   -4.7622799    4943.1869       -1e+20 
  858000    1.9667104   -4.8204097    4900.8669            2 
  859000    1.9894174   -4.8079726    4893.3672            2 
  860000    1.9767747   -4.7894161    4944.7842            1 
  861000    2.0231182   -4.8211195     4933.972            3 
  862000    2.0015015     -4.79858    4937.6239            1 
  863000    2.0217741   -4.8309091    4896.8788            1 
  864000    1.9697971   -4.8463409    4932.1712            1 
  865000    2.0374602   -4.7994005    4929.7802            1 
  866000    1.9778996   -4.8054641    4945.9266            2 
  867000    1.9963854   -4.8104314    4897.5553       -1e+20 
  868000    2.0431057   -4.8029452    4905.6741            1 
  869000    2.0138854    -4.802925     4895.076            1 
  870000     1.979244   -4.8180762    4906.2428            1 
  871000    1.9947255   -4.7734265    4967.7244            1 
  872000    1.9956333    -4.792095    4911.1557            1 
  873000    2.0028194   -4.8435176    4899.9406            1 
  874000    2.0318251   -4.7287983    4930.8952            1 
  875000    1.9894414   -4.8045412    4920.7252            1 
  876000    2.0201639   -4.8214677    4903.4182            1 
  877000    1.9894345   -4.7869414    4915.5294            1 
  878000    2.0061777   -4.8214824    4934.2472            1 
  879000    2.0148807   -4.8288878    4920.0195            1 
  880000    1.9895634   -4.8192302    4898.0785            1 
  881000    1.9573876   -4.7928478    4931.4784            1 
  882000    1.9733252   -4.7815219    4912.4804            1 
  883000    2.0330319    -4.804362    4906.3916            1 
  884000    2.0247653   -4.7768804    4915.2931            1 
  885000    2.0114373   -4.7793579    4932.2726            1 
  886000    2.0143445   -4.8353588    4911.8798            2 
  887000    1.9823965   -4.7903002    4877.9583            1 
  888000     2.013088   -4.7991541    4894.7348            1 
  889000    1.9565967   -4.8516169    4929.5229            2 
  890000    1.9837519   -4.8351049    4933.4774            1 
  891000    1.9585869    -4.774633    4929.0013       -1e+20 
  892000     1.994256   -4.8291137     4934.662            1 
  893000    2.0023075   -4.7729233    4902.0442            1 
  894000    1.9999414   -4.7338698    4928.0748       -1e+20 
  895000    2.0056979   -4.7719524    4998.9714            1 
  896000    1.9942185    -4.818321    4948.1081            1 
  897000    1.9740504   -4.7947951    4916.7763            1 
  898000    1.9908239   -4.7811278    4911.8496            1 
  899000    2.0251809    -4.740971    4981.1762            1 
  900000    2.0340896   -4.7878052    4948.4413            1 
  901000    1.9714608   -4.8081475    4882.3239            1 
  902000    1.9837767   -4.7350575    4898.8913            1 
  903000    1.9954239   -4.8081798    4925.7271            1 
  904000    1.9626089    -4.767301    4944.7725       -1e+20 
  905000    1.9996534   -4.8649658    4895.5265            2 
  906000    2.0167569   -4.7246796    4946.6168            1 
  907000    1.9949519   -4.8652325    4902.9117            2 
  908000    1.9472213   -4.8171913    4911.6556            1 
  909000    2.0056701   -4.8025446    4947.2849       -1e+20 
  910000    2.0161499   -4.7925498    4915.2364            1 
  911000    2.0070681   -4.7975545    4913.7643            1 
  912000    1.9961604   -4.7495245    4904.1672            1 
  913000    2.0411058   -4.7975579    4911.9488            1 
  914000    2.0234083   -4.8062183    4921.9563            1 
  915000    1.9881922   -4.8003383    4937.6227       -1e+20 
  916000      2.02006   -4.8308067    4935.8255       -1e+20 
  917000    2.0160675     -4.79976    4906.4089            1 
  918000    2.0017547   -4.8203878     4905.236            1 
  919000    1.9975545   -4.7703404    4923.9877            1 
  920000    1.9642598   -4.7698408    4957.7686            1 
  921000    2.0428982   -4.8079782    4922.0216            1 
  922000    2.0072381   -4.7781567    4961.2733            1 
  923000    1.9686133   -4.7879304    4927.6156            1 
  924000    2.0002136   -4.7887993    4926.0109            1 
  925000     2.015924   -4.8252405    4918.5201       -1e+20 
  926000    1.9900212   -4.7394856     4928.809            1 
  927000    1.9501103    -4.820957     4948.799            1 
  928000    1.9886596   -4.8430202     4898.843            1 
  929000    1.9994724    -4.801698     4911.799            1 
  930000     1.970894   -4.7727928    4934.8057       -1e+20 
  931000    1.9849687   -4.7860248    4923.8576            1 
  932000    2.0252341   -4.7777622    4915.7187            1 
  933000    2.0223801   -4.8504982    4902.4648            1 
  934000    2.0257676   -4.7794517    4914.7109            1 
  935000    2.0119886   -4.7592785    4920.1685            1 
  936000    2.0103823   -4.8290437    4910.0764            1 
  937000    2.0101943   -4.8436858    4936.8751            1 
  938000    1.9879059   -4.7668805    4968.8017            1 
  939000    2.0097906   -4.7782997    4932.1757       -1e+20 
  940000    2.0085963   -4.7743616    4913.2495            1 
  941000    1.9671049   -4.8351049    4935.9249            1 
  942000    2.0329688   -4.8154986    4906.7264            2 
  943000    1.9902686    -4.763602    4974.9805            1 
  944000     2.028875   -4.7895497    4944.3525            1 
  945000    2.0058376   -4.7734437      4906.63            2 
  946000    1.9949363   -4.8471941    4943.7461            1 
  947000    1.9942818   -4.8208729    4893.2765            1 
  948000    1.9850284   -4.8175042     4921.629            1 
  949000    1.9694088   -4.7711629    4944.1529            1 
  950000    1.9664724    -4.791632    4932.6721            1 
  951000    1.9637986    -4.800782    4875.1536       -1e+20 
  952000    2.0185034   -4.7576612     4905.128            2 
  953000    2.0821374   -4.7370247    4980.8981            1 
  954000    2.0288992   -4.7922062    4945.2977            2 
  955000    2.0044934   -4.7863499    4954.1268            1 
  956000    1.9821594   -4.7968971    4962.5415            1 
  957000    2.0470129    -4.783479    4916.9915            1 
  958000    1.9543114   -4.8184483    4910.8834            2 
  959000    2.0451477   -4.7820766    4913.4646            1 
  960000    2.0327715   -4.8094881    4891.1904            1 
  961000    1.9907692   -4.8349203    4907.8425            1 
  962000    2.0589693   -4.7619031    4923.6189            1 
  963000    2.0055626   -4.8354514    4904.2287            1 
  964000    1.9608409   -4.8001507     4900.412            1 
  965000    1.9936533   -4.7960761    4923.7522            2 
  966000    1.9989462   -4.8084592    4907.1234       -1e+20 
  967000     2.018575   -4.7924102    4943.3002            1 
  968000    1.9961748   -4.8596144    4928.5275       -1e+20 
  969000    1.9916069     -4.74644    4944.8537            1 
  970000      2.02153   -4.8095064    4910.2985            2 
  971000    1.9453076   -4.7728273    4918.4166            1 
  972000    1.9927988   -4.7747287    4913.8643            1 
  973000    2.0095399   -4.8501686    4919.9404            1 
  974000    2.0194888   -4.8000411    4894.3623            2 
  975000    1.9978223    -4.773422    4925.9081            2 
  976000    2.0007546   -4.7697623    4901.7935            1 
  977000    2.0501006   -4.8299512    4949.4953            1 
  978000    1.9994154   -4.7712122    4927.9413            1 
  979000    1.9716561   -4.8069421    4891.4771            1 
  980000    1.9754946   -4.7700949    4933.0288            2 
  981000    2.0037227   -4.7366796    4927.6738            3 
  982000    2.0139348   -4.7628736    4942.1215            1 
  983000     1.988576   -4.7671217    4934.4199       -1e+20 
  984000       1.9677   -4.7918402    4952.5461            1 
  985000    2.0159806   -4.8196794    4896.8929            1 
  986000    1.9421837   -4.7764124    4936.9368            1 
  987000    1.9955126   -4.8116108    4926.8075            1 
  988000    2.0069264   -4.7553001    4922.2816            1 
  989000    1.9856129   -4.8248374    4896.3285            1 
  990000    1.9603389   -4.8467253    4873.5535            1 
  991000     1.987855   -4.8509426    4901.2638            1 
  992000    2.0208861   -4.8159324    4876.5149            1 
  993000    1.9906157   -4.7898914    4910.0208            1 
  994000    2.0037931   -4.7941908    4928.9967            1 
  995000    1.9824222   -4.7493794    4952.6727            2 
  996000    2.0015158   -4.8120076    4883.0258            2 
  997000    1.9912866   -4.7420185    4949.1441            2 
  998000    2.0075695   -4.8120608    4919.8678            1 
  999000    2.0278261   -4.7752778    4915.0492            1 
 1000000    1.9468747   -4.8444981    4926.8444            1 
 1001000    2.0129967   -4.8033403    4932.6413            1 
 1002000     2.003069   -4.7820978    4929.0638            1 
 1003000    2.0244755   -4.7875007    4917.2251            1 
 1004000    2.0424923   -4.8268317    4929.2927            1 
Loop time of 1964.4 on 48 procs for 1000000 steps with 4000 atoms

Performance: 87965.831 tau/day, 509.062 timesteps/s
99.4% CPU use with 48 MPI tasks x no OpenMP threads

MPI task timing breakdown:
Section |  min time  |  avg time  |  max time  |%varavg| %total
---------------------------------------------------------------
Pair    | 103.26     | 110.43     | 116.51     |  30.6 |  5.62
Neigh   | 20.293     | 20.538     | 20.752     |   2.7 |  1.05
Comm    | 110.86     | 115.59     | 120.19     |  24.9 |  5.88
Output  | 1.1554     | 1.1561     | 1.1737     |   0.2 |  0.06
Modify  | 1699.1     | 1705.6     | 1714.1     |   8.4 | 86.83
Other   |            | 11.06      |            |       |  0.56

Nlocal:        83.3333 ave          91 max          76 min
Histogram: 4 4 3 2 9 6 12 3 3 2
Nghost:        1430.42 ave        1464 max        1406 min
Histogram: 1 2 8 10 13 9 4 0 0 1
Neighs:        7720.21 ave        8548 max        6742 min
Histogram: 1 3 3 5 4 11 12 3 4 2
FullNghs:      15441.6 ave       16956 max       13983 min
Histogram: 5 3 4 2 8 10 7 6 1 2

Total # of neighbors = 741196
Ave neighs/atom = 185.29900
Neighbor list builds = 83487
Dangerous builds = 3071

#clear
#
#next RN
#
#jump SELF
Total wall time: 0:32:45
