
units lj                  # Use reduced LJ style units
atom_style atomic         # Uncharged point particles
atom_modify map hash      # Needed for indexing of clusters etc
                          # Used to be able to find where atoms are in relation to each other.

# Define a lattice with which to populate the simulation cell. With units
# set to 'lj' the second argument to the lattice command is the reduced
# density rho* and the spacings are multiples of that required to acheive
# that density. Also define a simulation cell called 'box' in lattice units
# and fill it with atoms. Here we're creating a box which is ten lattice
# constants in each direction.
lattice fcc 1.0 spacing 1 1 1                 # All equal sizes - gives the right reduced density.
Lattice spacing in x,y,z = 1.5874011 1.5874011 1.5874011

region box block 0 10 0 10 0 10 units lattice # Defines a region, "box", in lattice units
create_box 1 box                              # Creates a simulation box as specified above,
Created orthogonal box = (0.0000000 0.0000000 0.0000000) to (15.874011 15.874011 15.874011)
  2 by 2 by 7 MPI processor grid
                                              # with one type of atom
create_atoms 1 box                            # Creates particles on lattice points
Created 4000 atoms
  using lattice units in orthogonal box = (0.0000000 0.0000000 0.0000000) to (15.874011 15.874011 15.874011)
  create_atoms CPU = 0.002 seconds


# Set the mass of the first (and only) atom type.
mass 1 1.0

# Lennard-Jones interactions between particles, 3.5 sigma cut-off. Apply
# long range tail corrections to energy and pressure and set all coefficients
# to unity since we work in reduced units here. Note that this doesn't shift
# the potential such that it goes to zero at the cutoff. That would require
# pair_modify('shift', 'yes').
pair_style lj/cut  3.5      # non-GPU version
pair_modify tail  yes
pair_coeff 1  1  1.0  1.0   # Intearaction between 1 and 1 set with epsilon = 1 and sigma = 1

write_data data.*
System init for write_data ...
Neighbor list info ...
  update every 1 steps, delay 10 steps, check yes
  max neighbors/atom: 2000, page size: 100000
  master list distance cutoff = 3.8
  ghost atom cutoff = 3.8
  binsize = 1.9, bins = 9 9 9
  1 neighbor lists, perpetual/occasional/extra = 1 0 0
  (1) pair lj/cut, perpetual
      attributes: half, newton on
      pair build: half/bin/atomonly/newton
      stencil: half/bin/3d
      bin: standard

#############################
#   M E L T   S Y S T E M   #
#############################

velocity all create 2.4 9622624 mom yes dist gaussian # Assign velocities
                                                    # Temperature 2.4, random number seed, zero linear momentum
						                                                        # Gaussian distribution

timestep 0.002   # simulation timestep
thermo 100       # output thermodynamic data every 100 steps

# Define a fix  in this case with index 1 applied to all
# particles in the simulation. This fix is for simulations
# in the anisotropic NPT ensemble. Note that we use the MTK
# correction.
fix 1 all npt temp 2.4 2.4 0.1 iso 5.68 5.68 0.5 mtk yes tchain 5 pchain 5 # Use NPT ensemble
                                                                         # Set temperature and pressure and damping
                                                                         # Numbers of thermostats in chain and in barostat
run 1000         # run for 10000 steps
Per MPI rank memory allocation (min/avg/max) = 3.642 | 3.654 | 3.657 Mbytes
Step Temp E_pair E_mol TotEng Press Volume 
       0          2.4   -8.3859253            0   -4.7868253   -2.2405722         4000 
     100     1.256502   -6.5137603            0   -4.6294785    5.5061441    4089.3939 
     200    1.4710413   -6.2962202            0   -4.0902099    6.1259073    4136.4974 
     300    1.5753793   -6.0048156            0   -3.6423375    5.8881655    4269.3275 
     400     1.695533   -5.7167441            0   -3.1740804    5.9576171    4396.1624 
     500    1.7977703    -5.422775            0   -2.7267936    5.9233545    4540.2438 
     600    1.8751095    -5.133639            0   -2.3216778    5.8305819    4705.3349 
     700    2.0067687   -4.9044304            0   -1.8950299    5.8181833    4845.3775 
     800    2.1683387   -4.7479596            0   -1.4962646    5.6703181    4968.6147 
     900    2.2591539   -4.5766532            0   -1.1887696    5.5447205    5099.1514 
    1000    2.3772702    -4.449968            0  -0.88495416    5.8567059    5140.3387 
Loop time of 0.323673 on 28 procs for 1000 steps with 4000 atoms

Performance: 533871.394 tau/day, 3089.534 timesteps/s
99.4% CPU use with 28 MPI tasks x no OpenMP threads

MPI task timing breakdown:
Section |  min time  |  avg time  |  max time  |%varavg| %total
---------------------------------------------------------------
Pair    | 0.1469     | 0.16134    | 0.17652    |   1.9 | 49.85
Neigh   | 0.028879   | 0.030227   | 0.032121   |   0.5 |  9.34
Comm    | 0.08914    | 0.10499    | 0.12115    |   2.5 | 32.44
Output  | 0.00022114 | 0.00022627 | 0.00027804 |   0.0 |  0.07
Modify  | 0.020478   | 0.024681   | 0.032097   |   2.2 |  7.63
Other   |            | 0.002208   |            |       |  0.68

Nlocal:        142.857 ave         155 max         133 min
Histogram: 2 2 0 6 5 9 1 1 1 1
Nghost:        1918.21 ave        1934 max        1902 min
Histogram: 1 1 4 4 5 4 1 4 1 3
Neighs:        12690.1 ave       13892 max       11313 min
Histogram: 1 1 2 4 5 5 3 3 2 2

Total # of neighbors = 355324
Ave neighs/atom = 88.831000
Neighbor list builds = 87
Dangerous builds = 18

# Equilibrate just above the melting temperature to avoid step fn in T

fix 1 all npt temp 1.25 1.25 0.1 iso 5.68 5.68 0.5 mtk yes tchain 5 pchain 5
run 1000
Per MPI rank memory allocation (min/avg/max) = 3.643 | 3.655 | 3.658 Mbytes
Step Temp E_pair E_mol TotEng Press Volume 
    1000    2.3772702    -4.449968            0  -0.88495416    5.8567059    5140.3387 
    1100    1.9123587   -4.6299409            0     -1.76212    5.7356352    5010.0317 
    1200     1.748463   -4.9742749            0   -2.3522361    5.6314428    4809.1156 
    1300    1.5839166   -5.2240149            0    -2.848734     5.537847    4676.3458 
    1400    1.4493602   -5.3637066            0   -3.1902097    5.9258711    4553.5937 
    1500    1.3475159   -5.4905275            0   -3.4697589    5.8595912    4492.3019 
    1600    1.3105851   -5.6398502            0   -3.6744639     5.695843    4436.2068 
    1700    1.2621862   -5.7135111            0   -3.8207051    5.6775847    4398.9832 
    1800    1.2554554   -5.7810045            0   -3.8982922     5.797944     4358.617 
    1900    1.2634776   -5.8544833            0   -3.9597407    5.6933777     4339.129 
    2000    1.2398732   -5.8281233            0   -3.9687785    5.8601907    4332.3676 
Loop time of 0.312663 on 28 procs for 1000 steps with 4000 atoms

Performance: 552671.122 tau/day, 3198.328 timesteps/s
99.7% CPU use with 28 MPI tasks x no OpenMP threads

MPI task timing breakdown:
Section |  min time  |  avg time  |  max time  |%varavg| %total
---------------------------------------------------------------
Pair    | 0.15221    | 0.16132    | 0.16943    |   1.1 | 51.60
Neigh   | 0.025735   | 0.02649    | 0.027229   |   0.3 |  8.47
Comm    | 0.090907   | 0.099408   | 0.11193    |   1.7 | 31.79
Output  | 0.00020363 | 0.00020936 | 0.00026223 |   0.0 |  0.07
Modify  | 0.019431   | 0.022707   | 0.02549    |   1.5 |  7.26
Other   |            | 0.002528   |            |       |  0.81

Nlocal:        142.857 ave         151 max         135 min
Histogram: 2 2 0 6 4 4 5 3 1 1
Nghost:        2132.14 ave        2154 max        2113 min
Histogram: 3 1 3 2 7 5 3 1 2 1
Neighs:        15062.4 ave       16238 max       13803 min
Histogram: 1 1 3 3 6 5 3 3 1 2

Total # of neighbors = 421746
Ave neighs/atom = 105.43650
Neighbor list builds = 76
Dangerous builds = 11


# Small amount of linear quench

fix 1 all npt temp 1.25 ${temp} 0.1 iso 5.68 5.68 0.5 mtk yes tchain 5 pchain 5
fix 1 all npt temp 1.25 1 0.1 iso 5.68 5.68 0.5 mtk yes tchain 5 pchain 5
run 2000
Per MPI rank memory allocation (min/avg/max) = 3.644 | 3.655 | 3.658 Mbytes
Step Temp E_pair E_mol TotEng Press Volume 
    2000    1.2398732   -5.8281233            0   -3.9687785    5.8601907    4332.3676 
    2100     1.290619    -5.865656            0   -3.9302114    5.6689922    4339.9947 
    2200    1.2560861    -5.889464            0   -4.0058059    5.7664954    4316.2727 
    2300    1.2214038   -5.9144736            0   -4.0828259    5.6154319    4318.4251 
    2400    1.1920718   -5.9222833            0   -4.1346226    5.5643199    4314.2335 
    2500    1.1873186   -5.9569284            0   -4.1763957    5.5630294    4298.9489 
    2600    1.1570439   -5.9574383            0   -4.2223063    5.6714066      4285.81 
    2700    1.1373156   -5.9995985            0   -4.2940516    5.6569991    4270.9531 
    2800    1.1820761   -6.0005051            0   -4.2278342    5.5886823    4278.8114 
    2900    1.1482723   -5.9894716            0   -4.2674938    5.6642882    4275.6268 
    3000    1.1360755   -6.0254601            0   -4.3217729     5.520063    4270.6215 
    3100    1.1125164   -6.0438159            0   -4.3754584    5.6399953    4249.3564 
    3200    1.1083501   -6.0854568            0   -4.4233472    5.4270139    4252.7602 
    3300    1.0810287   -6.1086409            0   -4.4875032    5.3973626    4242.9534 
    3400     1.076266   -6.1161556            0   -4.5021602     5.450643    4236.2422 
    3500    1.0688277   -6.1434242            0   -4.5405834    5.6637839    4208.3379 
    3600    1.0556433   -6.1307658            0   -4.5476968     5.672409    4211.7813 
    3700    1.0468991   -6.1710026            0   -4.6010466     5.604155    4201.6531 
    3800    1.0151217   -6.1677289            0   -4.6454271    5.6276179    4198.4621 
    3900    1.0319936   -6.2333864            0    -4.685783    5.5691584    4176.7291 
    4000    1.0026671   -6.2412563            0   -4.7376317    5.4863719    4180.0841 
Loop time of 0.650932 on 28 procs for 2000 steps with 4000 atoms

Performance: 530931.408 tau/day, 3072.520 timesteps/s
99.7% CPU use with 28 MPI tasks x no OpenMP threads

MPI task timing breakdown:
Section |  min time  |  avg time  |  max time  |%varavg| %total
---------------------------------------------------------------
Pair    | 0.323      | 0.3455     | 0.36547    |   1.6 | 53.08
Neigh   | 0.043372   | 0.044425   | 0.046377   |   0.3 |  6.82
Comm    | 0.19137    | 0.20722    | 0.2398     |   2.8 | 31.83
Output  | 0.00041006 | 0.00042196 | 0.00053878 |   0.0 |  0.06
Modify  | 0.036741   | 0.047401   | 0.056187   |   2.8 |  7.28
Other   |            | 0.005961   |            |       |  0.92

Nlocal:        142.857 ave         150 max         134 min
Histogram: 2 1 1 5 1 3 8 1 5 1
Nghost:        2181.61 ave        2204 max        2158 min
Histogram: 1 3 1 4 2 6 7 1 2 1
Neighs:        15655.1 ave       17190 max       14805 min
Histogram: 6 4 2 6 3 4 0 0 1 2

Total # of neighbors = 438342
Ave neighs/atom = 109.58550
Neighbor list builds = 123
Dangerous builds = 0

#############################
# F R E E Z E  S Y S T E M  #
#############################

# Define solid atoms. This closely follows ten Wolde  Ruiz-Montero and Frenkel  Faraday Discuss  1996  104  93-110
# Compute components of the per-atom q6 vector
compute q6 all orientorder/atom degrees 1 6 components 6 nnn NULL cutoff 1.3 # compute the Q6 parameter.
                                                                             # Use all neighbours within 1.3 unit cell.

# get number of connections
compute coord_number all coord/atom orientorder q6 0.5

# An atom is solid if it has 8 or more connections (of a possible 14)
variable is_solid atom c_coord_number>=8
group solid dynamic all var is_solid    # Must be dynamic to update
dynamic group solid defined

# do clustering
compute cluster solid cluster/atom 1.3 # Create a cluster where all atoms within are solid and max 1.3 units from another member

# define chunks one chunk per cluster
compute clus_chunks solid chunk/atom c_cluster nchunk every compress yes  # Says which atoms are in which chunk

# count the size of each chunk
compute size_chunks solid property/chunk clus_chunks count


# Find the maximum entry in the vector of chunk sizes
variable max_n equal max(c_size_chunks)


# Thermo style which includes this variable
thermo_style custom step temp pe vol v_max_n

thermo ${N}  # Print the thermo information every 100 steps
thermo 100  

# Reset the npt fix at a lower temperature (below freezing)
fix 1  all npt temp  ${temp} ${temp}  0.1  iso  5.68  5.68  0.5  mtk yes tchain  5  pchain  5
fix 1  all npt temp  1 ${temp}  0.1  iso  5.68  5.68  0.5  mtk yes tchain  5  pchain  5
fix 1  all npt temp  1 1  0.1  iso  5.68  5.68  0.5  mtk yes tchain  5  pchain  5

dump dmp2 all dcd ${N} traj_${rand}.dcd
dump dmp2 all dcd 100 traj_${rand}.dcd
dump dmp2 all dcd 100 traj_462431.dcd


# fix rnuntil all halt ${N} v_max_n >= 3980 error soft message no   # Stop when solidified


run 100000 # 5000000  # Run for this many steps
Neighbor list info ...
  update every 1 steps, delay 10 steps, check yes
  max neighbors/atom: 2000, page size: 100000
  master list distance cutoff = 3.8
  ghost atom cutoff = 3.8
  binsize = 1.9, bins = 9 9 9
  4 neighbor lists, perpetual/occasional/extra = 1 3 0
  (1) pair lj/cut, perpetual
      attributes: half, newton on
      pair build: half/bin/atomonly/newton
      stencil: half/bin/3d
      bin: standard
  (2) compute orientorder/atom, occasional
      attributes: full, newton on
      pair build: full/bin/atomonly
      stencil: full/bin/3d
      bin: standard
  (3) compute coord/atom, occasional
      attributes: full, newton on
      pair build: full/bin/atomonly
      stencil: full/bin/3d
      bin: standard
  (4) compute cluster/atom, occasional
      attributes: full, newton on
      pair build: full/bin/atomonly
      stencil: full/bin/3d
      bin: standard
Per MPI rank memory allocation (min/avg/max) = 9.377 | 9.381 | 9.384 Mbytes
Step Temp PotEng Volume v_max_n 
    4000    1.0026671   -6.2412563    4180.0841            7 
    4100   0.98257477   -6.2516254    4170.7116            9 
    4200   0.98763629   -6.2695814    4172.7253            5 
    4300    1.0102346   -6.2726808    4173.1329            3 
    4400   0.97956937   -6.2716591    4159.9612            4 
    4500   0.99394031   -6.2458879    4161.5622           10 
    4600    1.0124084   -6.2598425    4167.0583            7 
    4700    1.0036106   -6.2903498    4146.8314            5 
    4800    1.0085121   -6.2674039    4160.4838            7 
    4900    1.0023656   -6.2702146    4159.6459            4 
    5000   0.99475611   -6.3054838    4152.1259            4 
    5100    1.0080952   -6.2848431    4158.7787            8 
    5200   0.99845444   -6.2559787    4165.6993            3 
    5300    1.0324719   -6.2653358    4182.1485            5 
    5400     1.009502   -6.2744956    4169.7934            9 
    5500   0.98451111   -6.2547138    4156.9526            4 
    5600   0.97212082   -6.2641922    4159.3194            6 
    5700    1.0058068   -6.2561516    4160.2497            4 
    5800    1.0035089    -6.293746    4162.7483            4 
    5900   0.99926192   -6.3119637    4155.4425            7 
    6000   0.97651828   -6.2608561    4152.4498           10 
    6100   0.99881741   -6.2633748    4165.6064            7 
    6200   0.98953054   -6.2783063    4153.7327            6 
    6300    0.9780422   -6.2989653    4154.4709            7 
    6400   0.99045915   -6.2617438    4152.3153            5 
    6500   0.99862991   -6.2692711    4155.4554            9 
    6600    1.0154247   -6.2694835    4154.2383            8 
    6700   0.97736696   -6.2631351     4142.857           15 
    6800     1.003228   -6.2597512    4149.6407            5 
    6900    1.0150002   -6.2709076    4151.5888            9 
    7000   0.98397982   -6.2729896    4143.0405           11 
    7100   0.99162429   -6.2963981    4137.3571            6 
    7200    0.9969157   -6.3167317    4149.4861            5 
    7300   0.98751418   -6.2743293    4157.4918           13 
    7400    1.0205606    -6.301746    4156.8295            9 
    7500   0.98648841   -6.2814407    4148.4557           10 
    7600     1.002145   -6.2744413    4162.1242            5 
    7700     1.005929   -6.2690064    4156.6573            6 
    7800   0.98074455   -6.2769929    4147.5434            8 
    7900   0.98917445   -6.2802513    4140.0617            7 
    8000    1.0053566   -6.2719513    4146.6518            5 
    8100     1.016338   -6.2523969    4159.4701            3 
    8200    1.0017648   -6.2588397    4157.4204            7 
    8300    0.9830407   -6.2821681    4151.9344            9 
    8400    0.9999515   -6.2670893    4160.1005            6 
    8500   0.98725595   -6.2752723    4158.4114            5 
    8600   0.97150671   -6.2702775     4151.968            7 
    8700    1.0099823   -6.2641132    4152.6042            7 
    8800    1.0093855   -6.2632187    4159.1649            5 
    8900   0.99728276   -6.2431415     4166.647            5 
    9000    0.9999026   -6.2303503    4165.9432            8 
    9100   0.98783347    -6.252302    4164.0873            5 
    9200   0.99027878   -6.2499568    4168.5564            6 
    9300    1.0236051   -6.2633066    4168.8054            5 
    9400   0.99174024   -6.2476954    4160.6174            5 
    9500     1.004919   -6.2754395    4163.7547            8 
    9600   0.99070278   -6.2723277    4165.3686            6 
    9700   0.97773808   -6.2775163    4159.3244            9 
    9800    1.0200152   -6.2924138    4155.8482            6 
    9900   0.99232791     -6.27319    4155.2452            4 
   10000    1.0041471    -6.228462    4171.9959            9 
   10100    1.0099041   -6.2731977    4155.3131           10 
   10200    1.0139809    -6.291505    4153.0594            5 
   10300   0.97554596   -6.2829643    4149.6866            7 
   10400    1.0268719   -6.2978193    4152.7716            7 
   10500    0.9793799   -6.2717588     4167.446            6 
   10600   0.98628566   -6.2694443    4165.0816            4 
   10700   0.99165356   -6.2834648    4156.4697            7 
   10800   0.98587579   -6.3096949    4144.1514           15 
   10900    0.9990702   -6.2706072    4151.5945           10 
   11000    1.0003628   -6.2893245    4149.9765           30 
   11100   0.98224596   -6.2830894     4146.224           12 
   11200    1.0050965   -6.2626999    4155.2927           11 
   11300    1.0236241   -6.2829538    4150.9483           17 
   11400    1.0060162   -6.3073783    4145.0038            8 
   11500    0.9990809   -6.3012858    4148.2843            7 
   11600    1.0160589   -6.2687705    4155.1948            9 
   11700   0.99448816   -6.2779157    4145.2151            5 
   11800    1.0175573   -6.3054396    4144.6932           23 
   11900   0.99665249   -6.2649978    4148.8303           15 
   12000    1.0023948    -6.284009    4153.5674           11 
   12100   0.98905741   -6.2742799    4145.4247            7 
   12200   0.98589058   -6.2737948    4149.8491            7 
   12300     0.994548   -6.2498183    4166.4946           13 
   12400    1.0123982   -6.2600425    4158.8341            6 
   12500   0.99178354   -6.2499663    4149.8991            3 
   12600    1.0009472   -6.2789124    4149.8183            6 
   12700    1.0029845   -6.2951441    4140.4585            4 
   12800    1.0145771   -6.2709875    4159.7948            4 
   12900    1.0068028   -6.2675552    4152.6837            2 
   13000   0.99365037    -6.266746     4147.945            3 
   13100    1.0064586   -6.2608992    4145.3355            7 
   13200    1.0125145   -6.2534458    4146.4452            4 
   13300    0.9960574   -6.2414649    4157.9919            5 
   13400    1.0035428   -6.2804562    4138.1678            8 
   13500    1.0028009   -6.2807411    4143.4684            8 
   13600    1.0040188   -6.2322922    4152.6096            7 
   13700   0.99562036   -6.2586696    4151.4421            6 
   13800   0.98312785   -6.2687124    4146.0601           12 
   13900    1.0045211   -6.2732221    4155.8584            5 
   14000   0.99976274   -6.2640524    4158.7748            6 
   14100   0.98767229   -6.2862945    4152.0769            4 
   14200    1.0126601   -6.2832086    4153.7397            4 
   14300     1.012749   -6.2754159    4152.3896            5 
   14400    1.0028212   -6.2711028    4136.8442           10 
   14500   0.97898117   -6.2455213    4143.7683            5 
   14600    1.0117484   -6.2537175    4154.1304            6 
   14700    0.9818234   -6.2489188    4158.3643            5 
   14800    1.0041365   -6.2761018    4155.0333            9 
   14900   0.97260828   -6.2857842    4144.3381            7 
   15000    1.0017527   -6.3020465    4144.5113            5 
   15100    0.9986715   -6.2552129    4137.6028            5 
   15200    1.0042663    -6.258733    4135.6002            8 
   15300   0.97688708   -6.2600787    4134.8093            9 
   15400    1.0100633   -6.2574893    4141.4267            5 
   15500    1.0229191   -6.2766728    4142.9084            9 
   15600    1.0064919   -6.2680132     4140.751            5 
   15700    1.0212735   -6.2463005    4148.7061            2 
   15800     1.003168   -6.2815428    4142.2246            4 
   15900   0.97880776    -6.279606    4146.3931            7 
   16000    1.0150456   -6.2938127    4149.2905            4 
   16100    1.0025174   -6.2763288    4154.5917            5 
   16200    1.0033964   -6.2640343    4165.8385            5 
   16300    1.0064812   -6.2527831    4171.8596            5 
   16400    1.0003954   -6.2864269    4170.8664            8 
   16500   0.98745178   -6.2724709    4163.1709            6 
   16600    1.0047179   -6.2594073    4165.0065            6 
   16700   0.98374247   -6.2662978    4157.1904            5 
   16800    1.0014694   -6.2624697    4148.3821            5 
   16900    1.0218026   -6.2617348     4154.636            3 
   17000   0.97790604   -6.2535383    4160.8771            7 
   17100   0.98348478   -6.2957646    4160.9855            5 
   17200   0.99651458   -6.2863634    4155.5436            6 
   17300    1.0187164   -6.2979149    4156.3626            5 
   17400    0.9846591   -6.2894325    4152.9888            7 
   17500    1.0075745   -6.2919406    4156.3296            3 
   17600    1.0208212   -6.2886258    4164.1583            6 
   17700    1.0066245   -6.2899946    4157.7475            6 
   17800   0.97908974    -6.293705     4159.352            5 
   17900   0.99801947   -6.2887069    4162.0756            8 
   18000   0.99530921     -6.31869    4143.7969            7 
   18100   0.98960831   -6.3061848    4146.0052            3 
   18200    1.0013206   -6.2781339    4157.7238            3 
   18300   0.97966658   -6.2711347    4173.6327            6 
   18400   0.99361084    -6.255759     4173.488            3 
   18500    1.0032658   -6.2887617    4165.2009            5 
   18600   0.99735794   -6.2889724    4161.9254            4 
   18700    1.0169577   -6.2820331    4175.4505           19 
   18800    1.0030862   -6.2773472    4162.7462            8 
   18900   0.99378359   -6.2763922    4158.9181            7 
   19000   0.97729119   -6.2751328    4158.3739            7 
   19100   0.99589812   -6.2867652    4142.5661            8 
   19200   0.99989221   -6.2865373    4146.2718            4 
   19300   0.99728566   -6.2611554    4157.4459            8 
   19400   0.99997978   -6.2915779    4151.8399            5 
   19500    0.9826798   -6.2719525    4152.0777            6 
   19600    1.0014688   -6.2628382    4145.8068            5 
   19700    1.0111079   -6.2778474    4139.4941            8 
   19800   0.98438208   -6.2624659    4127.9743            8 
   19900    1.0158017   -6.2878727     4133.927            7 
   20000    0.9911582   -6.2423879    4143.5256            9 
   20100    1.0146403   -6.2789254    4141.2045           13 
   20200   0.98969325   -6.2857942    4129.3057            6 
   20300   0.99996053   -6.3167539    4132.3297            6 
   20400    1.0108108   -6.2865433    4144.1722            6 
   20500    1.0177863   -6.2832969    4141.8642            3 
   20600   0.99574872   -6.3051727     4137.386           10 
   20700    1.0118375   -6.2949257    4147.9737           20 
   20800    1.0008567   -6.2997516    4148.4425            8 
   20900   0.99449404   -6.2811591    4149.6109            6 
   21000    1.0230517   -6.2648591    4151.0492            6 
   21100    0.9941517   -6.2554012    4151.9102            5 
   21200   0.99721361   -6.2915871    4149.1016            9 
   21300   0.98422608   -6.2724389    4147.1816            6 
   21400    1.0039356   -6.2718096    4144.2393            6 
   21500    1.0207795   -6.3100426    4138.5854            9 
   21600   0.99233367   -6.2989349    4133.3917           13 
   21700    1.0013461   -6.2717962    4154.2058            6 
   21800   0.98915932    -6.249642     4153.707            5 
   21900    1.0125664    -6.265517    4156.1487            4 
   22000   0.99725716   -6.2550012    4152.3012            8 
   22100   0.98538145   -6.2622896    4149.8398           17 
   22200    1.0152882   -6.2524065    4143.3475            8 
   22300     1.002069   -6.2602762    4149.4439            8 
   22400   0.99115668   -6.2596736    4149.0759            7 
   22500   0.98887403   -6.2781253    4142.5128            5 
   22600    1.0073956   -6.2652998    4149.9128            5 
   22700   0.99122105   -6.2770545    4144.5279            5 
   22800    1.0051825   -6.2654485    4151.3429            9 
   22900   0.99635517   -6.2680252    4169.0709            6 
   23000    1.0070458   -6.2695622    4163.7815            8 
   23100   0.99058735   -6.2740092    4157.5099            7 
   23200   0.97969865   -6.2517599     4154.308            8 
   23300    1.0103434   -6.2527365    4147.7064            9 
   23400    1.0140064    -6.272928    4144.2249            8 
   23500   0.97506543    -6.260442    4148.5702            4 
   23600    1.0106343   -6.2737662    4148.6655            8 
   23700    1.0068665   -6.2858771    4150.5275            8 
   23800    1.0040732   -6.2544236    4143.2369            8 
   23900   0.99893423    -6.291539    4139.3145           10 
   24000   0.99626555   -6.2851546    4149.7351           12 
   24100   0.97775874     -6.24018    4150.3571            9 
   24200       1.0125   -6.2645034    4145.4094            6 
   24300    0.9970901   -6.3134868    4135.5631           11 
   24400    1.0135193   -6.2929862    4138.2038            6 
   24500    1.0146498   -6.2745069    4142.5514            9 
   24600   0.99203426   -6.2688653     4145.822            4 
   24700    1.0081561   -6.2797012    4141.6818           13 
   24800    1.0023132   -6.2562376    4148.6848            6 
   24900    1.0092735   -6.2705509    4157.4196            4 
   25000   0.98616856   -6.2854593    4147.1469           10 
   25100    1.0089875   -6.2969647     4153.498            9 
   25200   0.98321026    -6.253567    4159.9707            5 
   25300   0.98923748   -6.2435012    4159.1892            5 
   25400   0.98846704   -6.2722123    4158.6571            9 
   25500    1.0020806   -6.2782028    4172.7113            7 
   25600    1.0082696   -6.2637224    4180.2167            9 
   25700   0.99600209   -6.2547842     4162.295            6 
   25800   0.98439138   -6.2603867    4161.3602            8 
   25900    1.0120429   -6.2617611    4163.3278            6 
   26000    1.0065152   -6.2509295    4159.1591            8 
   26100    1.0079509   -6.2500984     4166.844            6 
   26200   0.99208271   -6.2226552    4162.1635            9 
   26300    0.9980462   -6.2691395    4153.8767           13 
   26400    0.9983542   -6.2578507    4152.1897            6 
   26500    1.0119634   -6.2710144    4149.6008            5 
   26600   0.98546228   -6.2839278    4147.7621            4 
   26700   0.99249486   -6.2647892    4162.3813            9 
   26800   0.99582882   -6.2560086    4169.4178            6 
   26900    1.0150495   -6.2265001    4161.3397           10 
   27000     1.000423   -6.2558352    4156.9035            5 
   27100   0.99227122   -6.2642147    4151.4534            8 
   27200    1.0088248   -6.2355769    4155.3656            7 
   27300   0.99575714   -6.2222647    4155.8513            7 
   27400    1.0089181   -6.2619417    4159.1834            4 
   27500   0.98776576   -6.2869618    4152.6633            3 
   27600    1.0022399   -6.2775534    4151.8984            9 
   27700   0.99440164   -6.2593409    4161.8148            7 
   27800   0.99031469    -6.241616    4167.6721            5 
   27900    1.0024025   -6.2787085    4147.2313            7 
   28000   0.99335481   -6.2881379    4142.0123            6 
   28100    1.0153342   -6.2760391    4146.8704            7 
   28200    0.9959366   -6.2698268    4145.1948            8 
   28300    1.0131165   -6.2906129    4154.6819            6 
   28400    1.0022213   -6.2595633    4164.7662            9 
   28500     1.023947   -6.2447055    4159.8175            4 
   28600    1.0055615   -6.2663682    4152.0768            3 
   28700   0.99245078   -6.2685002    4152.2721            6 
   28800    1.0113754   -6.2574392    4161.3382            5 
   28900   0.99566658   -6.2404473    4151.7595            6 
   29000    1.0125253   -6.2705098    4147.3922            5 
   29100    0.9942213   -6.2894107    4143.7002            4 
   29200    1.0066206   -6.2592586    4151.0255            4 
   29300    1.0007552   -6.2520085     4156.621            6 
   29400   0.99626516   -6.2984536    4154.6473            5 
   29500    1.0083063   -6.3296386    4144.5167            3 
   29600   0.98957524   -6.3184329    4149.9714            8 
   29700   0.99411004   -6.2859978    4147.9757            3 
   29800    1.0355031   -6.3046344    4143.9113            5 
   29900   0.99536738   -6.2693537    4141.1334           10 
   30000    1.0142947   -6.2966116    4143.5503            6 
   30100   0.98236121   -6.3012355    4149.2703            7 
   30200   0.99025928   -6.2764253    4152.3226            6 
   30300   0.99765397   -6.2713843    4161.7825           10 
   30400   0.97970055   -6.2926631    4172.8384           11 
   30500   0.96811686   -6.2920049    4161.3484            5 
   30600    1.0010418   -6.2966483    4158.9411           10 
   30700    1.0052563   -6.2953974    4152.4319            9 
   30800   0.97740725   -6.2946542    4145.7167            5 
   30900    1.0032791   -6.2823096    4163.4908            5 
   31000    1.0151189   -6.2574976     4163.817            6 
   31100    1.0386256   -6.2487098    4157.0046            6 
   31200    1.0018467   -6.2494745    4147.7018            6 
   31300   0.98878247   -6.2754944    4152.0625           19 
   31400    1.0048234   -6.2873007     4166.746            4 
   31500   0.98614375    -6.273936    4178.0346            4 
   31600   0.99650176   -6.2480402    4173.6343            6 
   31700   0.99014388   -6.2772847    4166.2906           13 
   31800    1.0081408   -6.3039723    4147.0654            5 
   31900    1.0002003   -6.3149929    4140.5437            8 
   32000    1.0168496   -6.3099437    4144.1724            5 
   32100    1.0259523    -6.267888    4149.2497           11 
   32200    1.0022326   -6.2749416     4138.219            9 
   32300    1.0101609   -6.2918291    4139.2587            8 
   32400    1.0020848   -6.2557113     4160.734            8 
   32500   0.98358969   -6.2366813    4162.3191            5 
   32600   0.98775841   -6.2814797    4142.4136            5 
   32700     1.000034   -6.2647888    4155.5016            5 
   32800   0.99425902   -6.2347141    4163.8958            5 
   32900   0.98563656      -6.2806    4169.2302            3 
   33000   0.98513821   -6.2653767    4169.0036            3 
   33100    1.0165994   -6.2920409    4176.7587            5 
   33200   0.98428675   -6.2693682    4160.5256            4 
   33300   0.97246333   -6.2590409    4162.5664            4 
   33400    1.0017889   -6.2647135    4168.1905            3 
   33500    1.0058206   -6.2661329    4167.8142            3 
   33600   0.99453185   -6.2481448    4159.7065            4 
   33700   0.98496523   -6.2659755    4155.8144            3 
   33800    1.0114346   -6.2584812    4156.5693            5 
   33900    0.9968374   -6.2804042    4154.8535            6 
   34000   0.99624602   -6.2882054    4151.5749            5 
   34100   0.98383743   -6.3000661    4145.7206            4 
   34200    0.9977722   -6.2817555    4154.1117            5 
   34300    1.0197303   -6.2736562    4164.7145            3 
   34400    1.0073738   -6.2711173     4156.183            5 
   34500   0.99964842    -6.294444    4147.1142            4 
   34600   0.98694439   -6.2397999    4151.2538            8 
   34700    1.0069593   -6.2669979    4155.4417           10 
   34800   0.99082827   -6.2498999    4155.7835           11 
   34900   0.99683202   -6.2592148    4162.1476            4 
   35000    1.0110134   -6.2960559     4154.896            4 
   35100    1.0101226   -6.3046963    4151.1766            6 
   35200    1.0163626   -6.2979343    4146.7773           14 
   35300    0.9982851     -6.32516    4140.3869            7 
   35400   0.99472093   -6.2927928    4158.7304            5 
   35500   0.99494166   -6.2530557    4154.7095           17 
   35600    1.0154164   -6.2432007    4149.7826            7 
   35700   0.98837625   -6.2542954    4147.5282           13 
   35800    1.0112221   -6.2712777    4156.1919            9 
   35900    1.0052241   -6.2538386    4149.9347            5 
   36000   0.99639518   -6.2518399    4140.1635            4 
   36100    1.0096547    -6.242411     4160.525            2 
   36200   0.99486853   -6.2582018    4160.6695            5 
   36300    0.9983325   -6.2612074    4156.2137            4 
   36400   0.99589624   -6.2651042     4162.558            5 
   36500    1.0017613   -6.2489643    4181.3155            3 
   36600    1.0061142    -6.272327    4172.0745            4 
   36700   0.99802639   -6.2920049    4165.5846            6 
   36800     1.039902   -6.2642133    4166.6618            6 
   36900    1.0196636   -6.2703069    4154.9991            4 
   37000   0.99157277   -6.2358708    4160.5328            5 
   37100    1.0157168   -6.2580115    4164.1018            4 
   37200   0.99717631   -6.2625934    4155.3126            5 
   37300    1.0006791   -6.2654704    4158.5682            2 
   37400   0.99679134   -6.2538165    4168.5742            4 
   37500    0.9807497   -6.2820235    4150.4018            9 
   37600    1.0050725   -6.2835819    4156.3708            8 
   37700   0.99642624   -6.2853372    4156.4121            6 
   37800     0.989049   -6.3091884    4136.0262            5 
   37900    1.0060087   -6.3011514    4145.0042            3 
   38000     1.004447   -6.2711274    4150.7403            3 
   38100     1.013411   -6.2681929     4161.067            5 
   38200   0.99996771   -6.2607136    4163.6482           12 
   38300   0.98699734    -6.254555    4148.7486            8 
   38400    1.0139061   -6.2614951    4166.7364            5 
   38500   0.98191601   -6.2389114    4164.3334            8 
   38600    1.0009685   -6.2906663    4161.5349            7 
   38700   0.98048549   -6.2944438    4149.1274            6 
   38800    1.0006891   -6.2778839    4156.4755            5 
   38900   0.99035446   -6.2986864    4156.7573            5 
   39000     1.006213   -6.2939818    4148.9846            5 
   39100   0.99250395   -6.2512999    4165.2369            5 
   39200    1.0074988   -6.2663074    4161.2062            5 
   39300    1.0143403   -6.2696932    4149.3141            8 
   39400   0.98324827   -6.2594554    4149.2445            7 
   39500    1.0171217   -6.2516417    4160.3586            6 
   39600   0.99449628    -6.260222    4157.8889            4 
   39700    1.0177989   -6.2813233    4165.1782            5 
   39800    1.0013742   -6.2581833    4161.3704            6 
   39900   0.98695168   -6.2716664    4159.3053            8 
   40000   0.99486005   -6.2735479    4155.0686            7 
   40100    1.0091269   -6.2799139    4157.3043            4 
   40200    1.0152868   -6.2360414    4155.1749            7 
   40300   0.99731689   -6.2661483    4139.7487            8 
   40400    1.0037037   -6.2730865     4135.694            7 
   40500    1.0014925    -6.287367    4141.0854           15 
   40600    1.0070447    -6.273021    4152.6323            8 
   40700   0.98782898   -6.2579628    4157.5625           10 
   40800   0.96770903   -6.2835541    4147.9653            8 
   40900   0.99599027   -6.2911792    4159.5906           10 
   41000   0.98989063    -6.258926    4161.1519           20 
   41100    1.0063817   -6.2685526    4159.5224           15 
   41200   0.98531955   -6.2891106    4157.7679           13 
   41300    1.0067916   -6.2780611    4145.3426            5 
   41400    1.0020399   -6.2503162    4144.2623            6 
   41500    1.0296184   -6.2676914    4153.9487            8 
   41600    1.0242476   -6.2495848    4166.6516           10 
   41700   0.99162942   -6.2466403    4152.1616            6 
   41800    1.0153278   -6.2840427    4151.3332            5 
   41900   0.97635645    -6.253836    4144.3037            4 
   42000    1.0209064   -6.2657925    4150.4167            7 
   42100    1.0028464   -6.2904951    4143.1975            6 
   42200   0.99351789   -6.2643238    4146.3843            4 
   42300    1.0052967   -6.2526264    4158.1335            9 
   42400    1.0055342   -6.2652089    4162.0771            5 
   42500    0.9836249   -6.2807537    4157.0957           15 
   42600    1.0066136    -6.266515    4159.6855            4 
   42700    1.0214193   -6.2639295    4165.7753            5 
   42800    1.0078943   -6.2378358    4168.1577            3 
   42900   0.99988844   -6.2754539    4146.2918            5 
   43000   0.98812565   -6.2942601    4145.1943            5 
   43100   0.98032763   -6.2674002     4159.151            6 
   43200   0.98623163   -6.2479958    4158.1331            7 
   43300   0.99179153    -6.206702    4163.5218            6 
   43400    1.0104976   -6.2462058    4165.9799           11 
   43500    1.0034167   -6.2666445    4152.6063           12 
   43600    1.0070379   -6.2650293    4156.4677            8 
   43700    1.0074988    -6.251496    4162.2389            9 
   43800   0.99576317   -6.2665575    4147.4022            7 
   43900    1.0059581   -6.3027496    4129.0771            6 
   44000    1.0045497   -6.2763333    4127.0178            5 
   44100    1.0051012   -6.2579451    4135.9521            3 
   44200   0.99738212   -6.2325143    4151.4509            6 
   44300    1.0286266   -6.2644601    4157.9427           11 
   44400   0.99733977   -6.2718106    4155.7946            7 
   44500   0.99028019    -6.262813    4149.5214            5 
   44600   0.99819278    -6.312483    4138.6354           11 
   44700    1.0207084   -6.3184969    4136.0271           11 
   44800   0.98548711   -6.3047684    4131.0738           12 
   44900    1.0005735   -6.2719566    4151.5134           10 
   45000     1.002385    -6.292652    4146.0644            4 
   45100    0.9813313   -6.2935023    4123.7306           11 
   45200    0.9944569   -6.2720785    4134.8816           13 
   45300    1.0001105   -6.2686209    4138.9585           10 
   45400    1.0219392   -6.2959467    4141.1287           14 
   45500   0.98553809   -6.2886641    4146.2394           14 
   45600    1.0040919   -6.2723316    4154.8175            7 
   45700    1.0269195   -6.2957902     4158.905            3 
   45800    0.9919399   -6.2921314     4147.346            4 
   45900   0.98472702   -6.2750246    4152.2296            8 
   46000   0.98830292   -6.2541587    4161.6191            7 
   46100    1.0187348   -6.2680453    4161.4188            5 
   46200    1.0054997   -6.2672431    4157.6438            8 
   46300   0.99543057   -6.2933202    4150.9658            9 
   46400    1.0132427   -6.2649033    4150.5179            6 
   46500    1.0005978    -6.253018    4148.9693            3 
   46600    0.9769289   -6.2668099    4147.3085           10 
   46700     1.014776   -6.2790276    4148.6584            3 
   46800   0.99476034   -6.2636517    4152.7137            7 
   46900    1.0037572   -6.2597757    4164.8744            4 
   47000   0.99487794   -6.2624626    4171.4087           13 
   47100    1.0059429    -6.293622    4171.5954            5 
   47200     1.002782   -6.2355756    4171.7525            3 
   47300    1.0081343   -6.2626897    4171.4093            8 
   47400   0.99870686   -6.2808137    4152.0532            7 
   47500    0.9969987   -6.2763259    4147.2651            7 
   47600    1.0063786   -6.2391924    4153.9636           10 
   47700    1.0135946    -6.307566    4146.9063            4 
   47800    1.0015324   -6.2985355    4142.0692           11 
   47900   0.96684001    -6.272392     4147.364            9 
   48000   0.99777457   -6.2751512    4154.9891           10 
   48100   0.99538106   -6.3136113    4154.0274            9 
   48200   0.95679736   -6.3053981    4153.0838            5 
   48300   0.98594385    -6.296454    4165.1061            7 
   48400    1.0025357   -6.3005668    4159.7556            4 
   48500     1.003346   -6.2874541    4153.0497            4 
   48600    1.0204819   -6.2776512    4158.7893            6 
   48700    0.9844548   -6.2700987    4150.2835            7 
   48800   0.99395134   -6.3101557    4132.0635           14 
   48900   0.99682338   -6.2798996    4137.9922            9 
   49000    1.0186014   -6.2616804     4145.043            5 
   49100   0.99155767   -6.2445068    4152.6866            5 
   49200   0.98067474   -6.2479852    4157.1908            6 
   49300    1.0258248   -6.2791945    4150.9963            9 
   49400    1.0081146   -6.2703271    4151.0154            9 
   49500   0.99168775   -6.2719647    4141.7198            5 
   49600   0.98220846   -6.2650705    4151.9508            8 
   49700     1.002119    -6.241634    4148.8655            9 
   49800    1.0191817   -6.2438789     4150.664            8 
   49900    1.0017401   -6.2118841    4155.9427            6 
   50000    1.0018403   -6.2633078    4146.0949            5 
   50100    1.0079012   -6.2891449      4154.23            8 
   50200     1.024379   -6.2581741    4160.1358           10 
   50300   0.99606701   -6.2751053    4159.9853            4 
   50400   0.98511283   -6.2771283    4165.4299            4 
   50500    1.0033726   -6.2830256    4170.2055            5 
   50600   0.98444714   -6.3042965     4154.143            6 
   50700    1.0132661   -6.2874098    4149.5008            4 
   50800   0.99466715   -6.2696997    4161.9032            4 
   50900    1.0008055   -6.2402465    4170.9523            7 
   51000    1.0166286   -6.2738155    4180.0527            4 
   51100   0.97672164   -6.2692937    4160.4475            5 
   51200     1.002789    -6.269182     4155.819           11 
   51300    1.0110344   -6.2561673    4154.9545            7 
   51400   0.99765659   -6.2727809    4147.4655            5 
   51500   0.99537796   -6.2884394    4144.6094            4 
   51600    1.0192232   -6.2698389    4164.5673            8 
   51700    1.0058221   -6.2749411    4161.1046           12 
   51800   0.99344034   -6.2861058    4160.9829           13 
   51900    0.9843782    -6.280915    4149.1371            4 
   52000     1.001272    -6.292155    4147.2544            5 
   52100    1.0255066   -6.2712117    4159.3419            5 
   52200    0.9988609   -6.2601199    4156.8089            4 
   52300   0.97609971    -6.286735    4165.0296            3 
   52400    1.0003954   -6.2859055     4165.107            5 
   52500   0.98405206    -6.246684    4177.3234            2 
   52600    1.0013442   -6.2636292    4174.2418            6 
   52700    1.0009261   -6.2890782    4152.5704           11 
   52800    0.9903302   -6.2577722    4154.3295            5 
   52900    1.0065311   -6.2505091    4157.9848            5 
   53000   0.99530847    -6.283619    4155.1091            3 
   53100    1.0047129   -6.2752387    4153.4204            3 
   53200   0.98156258   -6.2589673    4156.4577            5 
   53300   0.99043744   -6.2546906    4148.7447            5 
   53400    1.0040449   -6.2411867    4147.2216           12 
   53500     1.023303   -6.2547492    4155.1242            8 
   53600    1.0088302   -6.2836593    4146.3633            3 
   53700    1.0129405   -6.2861217    4154.9795            5 
   53800   0.99017323   -6.2447974    4163.9111            4 
   53900     1.011863   -6.2548109    4172.0401            6 
   54000   0.98943074   -6.2362707    4175.3615            6 
   54100   0.98761334   -6.2528855    4155.2786           11 
   54200    1.0099931   -6.2774272    4157.6933            4 
   54300    1.0249774   -6.2433543    4153.9088            4 
   54400    1.0071867   -6.2751387     4150.482            3 
   54500    0.9928609    -6.271574    4143.1128            7 
   54600   0.99735643     -6.31067    4143.7523            6 
   54700   0.98981943   -6.2903282    4143.1505            4 
   54800   0.99541874   -6.2584775    4150.2798           10 
   54900    1.0172406   -6.2922507    4154.2148            6 
   55000   0.98539109   -6.2728523    4147.8557            4 
   55100   0.97243474   -6.2828049    4149.0024            7 
   55200    1.0113646   -6.2975783    4161.8192            5 
   55300    1.0029373   -6.2645808    4156.7745            4 
   55400   0.98573246   -6.2719402    4151.9932            4 
   55500   0.99267296   -6.2567241    4152.7349            4 
   55600    1.0180139   -6.2635927    4158.9727            6 
   55700   0.99475179   -6.2745403    4143.7888            2 
   55800   0.97621588   -6.2948059    4146.8502            5 
   55900    1.0024526   -6.2552848    4142.5532            4 
   56000    1.0052935   -6.2506832    4141.5052            5 
   56100    1.0112136   -6.2720373    4154.1175            5 
   56200    1.0012867   -6.2491863    4157.2889           10 
   56300   0.99102717   -6.2464824    4152.8904           11 
   56400   0.98210314   -6.2781221    4140.6616            5 
   56500    1.0021163    -6.285524    4149.6302           16 
   56600   0.99085233   -6.2896774    4165.1623            7 
   56700   0.97938385   -6.2810373    4167.6568           10 
   56800   0.99856574   -6.2945407    4153.4454           14 
   56900    1.0083806   -6.2631343    4163.6832            8 
   57000     1.007078   -6.2391234    4165.3266            5 
   57100   0.98434773   -6.2647594    4156.0537            8 
   57200   0.99240039   -6.2566604    4163.7703            6 
   57300     1.000528   -6.2462864    4166.6949            6 
   57400      1.00548   -6.2331968    4157.0547            3 
   57500    1.0021637   -6.2661833      4145.76            5 
   57600   0.98722037   -6.2875389    4151.6932           11 
   57700   0.99769841   -6.2570402    4170.5502           12 
   57800    1.0056853   -6.2637095    4156.3097            5 
   57900   0.99824536   -6.2634552    4145.8711            8 
   58000    1.0161239   -6.2471252    4158.4163            9 
   58100    1.0056584   -6.2387983    4155.3915            6 
   58200    1.0039752   -6.2526492    4142.8313            6 
   58300    1.0034287   -6.2778663    4138.1415            5 
   58400    1.0112769   -6.2737507    4135.1891            6 
   58500    1.0189762   -6.2502421    4150.9062            5 
   58600    1.0157452   -6.2536962    4151.5776            7 
   58700     1.001423    -6.274318    4151.9031            6 
   58800    1.0119473   -6.2649649    4151.6857            5 
   58900    1.0011113   -6.2272033    4151.6427            4 
   59000   0.99335108   -6.2554255    4141.9689            7 
   59100   0.98948761   -6.2557996    4142.2389            3 
   59200   0.99207493   -6.2775154    4140.5364            8 
   59300   0.99048744   -6.3104665     4136.435            6 
   59400   0.99835316   -6.3001399    4145.1441            7 
   59500     1.013606   -6.2779019    4147.8137            4 
   59600    1.0171988   -6.2561696    4160.5483            6 
   59700    1.0060902     -6.27093    4146.8721            7 
   59800    1.0161569   -6.3049258    4142.9157           17 
   59900    0.9698976   -6.2780731     4133.456           19 
   60000    1.0053016   -6.2857778    4139.0204            7 
   60100   0.99102898    -6.242438    4143.9753            4 
   60200   0.98780319    -6.259507    4147.7934            5 
   60300    1.0046247   -6.2849346    4135.2053            5 
   60400    1.0139019   -6.2670375    4149.5332            5 
   60500    1.0017018   -6.2693347    4142.4709           16 
   60600   0.99352212   -6.2975608      4142.25            8 
   60700   0.97933071   -6.3079449    4155.1235            6 
   60800   0.99738755   -6.3058562    4158.9883            9 
   60900    1.0027466   -6.2743162    4158.1416           11 
   61000   0.98259881   -6.2714521    4161.3459            5 
   61100    1.0110451   -6.2600886     4160.946            8 
   61200    1.0145956   -6.2639525    4155.2703            5 
   61300    1.0062923   -6.2371935    4147.2285            3 
   61400   0.99396479   -6.2653974    4136.6209            8 
   61500     1.006918   -6.2836572    4143.7693            4 
   61600   0.99153513   -6.2454123    4161.8222            5 
   61700   0.98315411   -6.2608667    4163.7727            6 
   61800   0.97209301   -6.2780913    4162.1369            7 
   61900   0.98915684     -6.29208    4155.9828            5 
   62000    1.0155338    -6.276363     4157.531           16 
   62100     1.009391   -6.3025833    4149.0562           13 
   62200    1.0105685   -6.3086474     4144.769            8 
   62300    1.0205636   -6.2814966    4146.3369           10 
   62400   0.98193053   -6.2674881    4140.8014           10 
   62500    1.0188487   -6.2866856    4147.6638            4 
   62600    1.0053404   -6.2922987    4137.4494            2 
   62700    1.0033533   -6.2908918    4134.9121            6 
   62800    1.0190902    -6.297818    4151.0736            4 
   62900    1.0220484   -6.2546374    4154.0031            7 
   63000   0.99525883   -6.2617595    4152.3618            9 
   63100   0.98749385   -6.2539057    4150.2426            8 
   63200    1.0091966   -6.2558978    4161.8823            9 
   63300     0.993765   -6.2286514    4164.6615            4 
   63400    1.0058511   -6.2622225    4156.7875            9 
   63500   0.98940629   -6.2818187    4149.2157           12 
   63600    1.0154362   -6.2975296    4146.8606            8 
   63700    1.0025348   -6.2762213    4149.9315            9 
   63800    1.0262745   -6.2615587    4162.7039            9 
   63900    1.0020001   -6.2506073    4160.6398            2 
   64000   0.98986962   -6.2681464    4144.2654            3 
   64100   0.99486221   -6.2570704    4146.5044            4 
   64200    1.0189038    -6.296153    4139.4381            4 
   64300   0.98445256   -6.2691715    4130.2685            9 
   64400    1.0017659   -6.2692242    4136.4091            4 
   64500   0.99875552   -6.2610707    4137.0202            3 
   64600    1.0192369   -6.2550822    4149.0926            6 
   64700    1.0120953   -6.2777513    4151.6887            8 
   64800   0.99153339    -6.265975    4155.3067            3 
   64900   0.97777789   -6.2362133    4160.0055            5 
   65000    1.0168206   -6.2428402    4157.9006            6 
   65100    1.0023881   -6.2656559     4151.761            5 
   65200    1.0081984   -6.2790853    4149.1647           10 
   65300   0.99386075   -6.2394276    4142.8744            5 
   65400    0.9953659   -6.2620562    4143.0676            7 
   65500    1.0134084   -6.2788883    4142.8279            4 
   65600   0.98641373   -6.2311965    4155.5836            8 
   65700    1.0172088   -6.2394906    4161.9634           16 
   65800    1.0039931    -6.275089    4152.3431           18 
   65900    1.0017481   -6.2574987    4145.7377            8 
   66000    1.0143833   -6.2541377    4156.1031           12 
   66100    1.0169967   -6.2377263    4155.9849            8 
   66200   0.99831945   -6.2655077    4145.5026            5 
   66300   0.99792519   -6.2320388     4152.383            8 
   66400    1.0166255    -6.254219    4151.2732            8 
   66500    0.9907101   -6.2478512    4155.9479            8 
   66600   0.99897035   -6.2720932     4165.158           10 
   66700   0.98366407    -6.278916    4152.4198           16 
   66800    1.0133123   -6.2711999    4145.6031            5 
   66900   0.98591051   -6.2788135    4159.8091            6 
   67000   0.99729501   -6.2628614    4171.2857            5 
   67100   0.98006971   -6.2422136    4174.1436            6 
   67200   0.98997154   -6.2773448    4161.5593            4 
   67300   0.99881186    -6.295654    4153.5586            5 
   67400    1.0043938   -6.2667321    4162.2968           10 
   67500   0.99854161   -6.2583323    4172.5643            7 
   67600   0.98330797    -6.283752    4160.7967            3 
   67700     1.003771   -6.2816661    4160.1227            4 
   67800    1.0274739   -6.2675199    4164.1261            9 
   67900   0.98463541   -6.2705029    4161.5417            9 
   68000   0.99983749     -6.27875    4160.0077            9 
   68100   0.97624835   -6.2797139    4152.4317            6 
   68200   0.99662374   -6.2646753    4147.0286            4 
   68300    1.0248826   -6.2732344    4154.1685            4 
   68400    1.0158404    -6.287904    4148.8651            5 
   68500    1.0153316   -6.2700479    4137.0897            6 
   68600    1.0165483   -6.2614952    4135.7839            8 
   68700   0.99672004    -6.282947    4146.2289            4 
   68800    1.0072405   -6.2586797     4148.619            3 
   68900    1.0033042   -6.2405097    4147.2791            8 
   69000   0.99966634   -6.2629378    4133.6378            8 
   69100    1.0333324   -6.2880038    4138.9992           10 
   69200   0.98947192   -6.2687619    4145.6934            5 
   69300   0.98596546   -6.3039982    4140.3848            4 
   69400     1.009454   -6.3015554    4152.5164           10 
   69500   0.99272812   -6.2497891    4160.3341            5 
   69600    1.0031464   -6.2715926    4161.9869            5 
   69700   0.99901433   -6.2582987    4159.8151            5 
   69800   0.97763387   -6.2768806    4159.9429            7 
   69900   0.99954327   -6.2839552    4156.6191            7 
   70000    1.0183703   -6.2751347    4152.7506            7 
   70100    1.0104819    -6.274389    4152.8898           11 
   70200   0.98553416    -6.293676    4142.4981            6 
   70300   0.99921558   -6.2994098    4152.5988            4 
   70400    1.0010103   -6.2778381    4160.4782            5 
   70500   0.97822376   -6.2900475    4172.2902            7 
   70600   0.99320118    -6.267623    4169.4219            4 
   70700   0.98668683   -6.2834075     4170.164            8 
   70800   0.99884191   -6.3036707     4161.552            4 
   70900   0.99107787   -6.2767935    4152.7741            5 
   71000    1.0126183   -6.2698875    4155.1945            7 
   71100   0.97705753   -6.2574577    4148.6402           16 
   71200    1.0080523    -6.257002     4146.795           12 
   71300   0.99804902   -6.2742053    4147.7193            4 
   71400   0.97754979   -6.2826174    4145.9201            4 
   71500    1.0011424    -6.277231    4153.2408            4 
   71600   0.99554059   -6.2474582    4153.5182            4 
   71700   0.98863727   -6.2821245    4141.3017           10 
   71800    1.0012109   -6.2635188    4148.4435            5 
   71900   0.98291954   -6.2575758    4158.6076            6 
   72000    1.0103188   -6.2893243    4154.2518            4 
   72100    1.0027386   -6.2650292    4156.3269           10 
   72200    1.0073947   -6.2725514    4150.9535           14 
   72300   0.98907015    -6.299439    4141.4601            8 
   72400   0.97407714   -6.2489506     4151.162            4 
   72500    1.0133384   -6.2663301    4146.3559            5 
   72600    0.9815354   -6.2453547    4144.0148            4 
   72700    1.0299034   -6.2650901    4145.4845            8 
   72800   0.99365114   -6.2610127    4146.0023            4 
   72900    1.0111319   -6.2479318    4164.7213            4 
   73000   0.99493032   -6.2396352    4159.3185            4 
   73100    1.0022572   -6.2543515    4148.9388           11 
   73200   0.99871614   -6.2556707    4141.2927           15 
   73300    1.0042487   -6.2581967    4151.1299            5 
   73400   0.99309799    -6.258314    4151.3033            5 
   73500   0.97164197   -6.2773866     4160.278            5 
   73600   0.98030641   -6.2549489    4167.3052            4 
   73700   0.97379191   -6.2430549    4176.1909            8 
   73800   0.99036439   -6.2497271     4172.775            5 
   73900    0.9917885    -6.259548    4158.8927           10 
   74000    1.0206692   -6.2779439    4151.9358           15 
   74100    1.0022827   -6.2937244    4133.5185            6 
   74200    1.0026675   -6.2847691    4135.7866            5 
   74300   0.99546951   -6.2702211    4142.4805            9 
   74400    1.0216207   -6.2497091    4155.3433            5 
   74500    1.0119254   -6.2703592    4147.0222            5 
   74600    1.0137675     -6.28734    4141.5751            7 
   74700   0.97326637   -6.2719782    4138.3948            5 
   74800    0.9994023   -6.2655923    4154.9627            9 
   74900    1.0119711   -6.2717585    4143.3973            6 
   75000     0.998616   -6.2868458    4150.1623            4 
   75100    1.0031306   -6.2759069    4157.2209            5 
   75200    1.0392258   -6.2692855    4162.7857            5 
   75300   0.99384682   -6.2443245    4160.5082            5 
   75400    1.0144671   -6.2637662    4160.5584            4 
   75500   0.99368103   -6.2445292    4144.3846            9 
   75600    1.0042397   -6.2699973    4139.2954            4 
   75700   0.98612694   -6.2909494    4134.1653            6 
   75800    1.0020335   -6.3002705    4143.9159            3 
   75900   0.99187538   -6.2535025    4149.1269            4 
   76000    1.0042433   -6.2360173     4162.224            7 
   76100    1.0051741   -6.2446585    4160.4795            4 
   76200    1.0014958   -6.2990369    4152.4662            6 
   76300   0.97332508   -6.2779299    4154.2227            9 
   76400    1.0243879   -6.2835015    4159.6599           10 
   76500   0.98670671   -6.2647797    4152.8512           12 
   76600    1.0289597   -6.2729982    4155.2813            7 
   76700    0.9879119   -6.2560906    4161.7918            5 
   76800    1.0092943   -6.2728177    4161.0726            5 
   76900   0.99393018   -6.2970283    4149.5512            5 
   77000   0.96938823   -6.2863862    4147.7428            4 
   77100    0.9945679   -6.3358799    4144.5943            4 
   77200   0.98951189   -6.2728663    4152.1061            6 
   77300   0.98812114   -6.2692695    4149.6905            5 
   77400    1.0079636   -6.2794531    4149.2031            6 
   77500    1.0249068   -6.2645902    4146.0232            4 
   77600    1.0122998   -6.2800757    4153.0591            5 
   77700   0.98837957   -6.2591891    4154.1995            5 
   77800    0.9921789   -6.2727884    4149.9826            6 
   77900     1.006715   -6.2618447    4145.7201            6 
   78000    1.0106381   -6.2489621    4166.5021            9 
   78100    1.0122609   -6.2640795     4159.817            4 
   78200   0.99357314   -6.2510549    4167.0128            3 
   78300    1.0024515   -6.2891816    4168.3957            4 
   78400   0.98849992   -6.3038001     4168.048            7 
   78500    1.0069387   -6.3005866    4163.7513           11 
   78600   0.98967934   -6.2463952    4164.6304           11 
   78700   0.98740864    -6.287326    4153.2637            7 
   78800   0.99960689   -6.2731896    4151.7601           13 
   78900   0.98714555   -6.2380154    4157.1237           10 
   79000    1.0282985   -6.2598995    4157.6829            6 
   79100    1.0098293     -6.25721    4163.0123            6 
   79200   0.97687648   -6.2576326    4158.5208           11 
   79300    1.0042255    -6.267184    4155.2701            5 
   79400   0.99818408   -6.2693538    4154.1459            7 
   79500   0.99871736   -6.2395451    4165.4447           12 
   79600    1.0105188   -6.2288869    4175.3054            8 
   79700    1.0058711   -6.2466929     4156.785            7 
   79800   0.99192053    -6.253557    4159.4989            3 
   79900   0.99866154   -6.2564358    4157.6299            6 
   80000    1.0051248   -6.2794397    4155.8699            9 
   80100   0.99977284   -6.2727737    4154.4459            7 
   80200   0.97878848   -6.2822424    4148.6062            5 
   80300    1.0154895    -6.277748    4142.6072            5 
   80400    1.0044039   -6.2753912    4145.9722            8 
   80500    1.0241398   -6.2532256    4158.7775            6 
   80600   0.99642719   -6.2444359    4156.6864           11 
   80700    1.0230442   -6.2799061     4146.012            7 
   80800    1.0123927   -6.2470876    4153.2069            7 
   80900   0.99563254   -6.2595785    4140.0376            9 
   81000    1.0047101   -6.3008805    4143.7097            5 
   81100   0.99310273    -6.261411    4150.2501            4 
   81200    1.0129524   -6.2719699    4154.0105            4 
   81300   0.99481638   -6.2510239    4155.1044            5 
   81400    1.0215238   -6.2673401    4147.3651            6 
   81500   0.98987541   -6.2655803    4148.7101           11 
   81600   0.99622764   -6.2662003    4156.7801            9 
   81700    1.0007058   -6.2832515    4155.1714            5 
   81800    1.0160784   -6.2917131    4139.5371            7 
   81900    1.0014314   -6.2839858    4138.9589            8 
   82000    1.0137346   -6.2768469    4162.1383            5 
   82100    1.0210455   -6.2670217    4163.1586            6 
   82200    0.9945002     -6.27894    4156.1056            4 
   82300   0.98756907   -6.2732281    4161.4614            3 
   82400    1.0069229    -6.250647    4166.8844            4 
   82500   0.99238878   -6.2667902    4157.3867            7 
   82600    1.0129594   -6.2450318    4148.2989            7 
   82700    1.0090595   -6.2282956    4149.6632            5 
   82800   0.98941932   -6.2611886    4147.7467            5 
   82900    1.0027152   -6.2402457    4148.9018            4 
   83000   0.99813497   -6.2475067    4146.4504            4 
   83100    1.0236842   -6.2822238    4151.0335            9 
   83200   0.99042141   -6.2749863    4144.9795            8 
   83300    1.0002616   -6.2893884    4138.2624            6 
   83400    1.0067233   -6.2495299     4152.488           11 
   83500   0.98732992   -6.2551999    4145.5055            6 
   83600   0.99470618   -6.2655328    4143.0766            7 
   83700    1.0157353   -6.2887412     4139.154            9 
   83800   0.98308274     -6.27204    4133.9958            3 
   83900    1.0029269    -6.255975    4155.8066            5 
   84000    1.0148336   -6.2610434    4150.9505            5 
   84100    1.0117473   -6.3008097    4150.3418            6 
   84200   0.98932291   -6.2859911      4149.13            5 
   84300    1.0224633   -6.3015727    4146.5026            6 
   84400   0.98883754   -6.2668858    4155.6168            7 
   84500    1.0024268   -6.2547472    4165.9328           10 
   84600    1.0025913   -6.2633671    4165.3157            3 
   84700    1.0138515      -6.2902    4147.6243            7 
   84800   0.99213076     -6.27346    4140.5246            4 
   84900    1.0104349   -6.2762599    4146.9411            5 
   85000    1.0126628   -6.2800756    4145.9481            4 
   85100    0.9783309   -6.2690338    4144.4284            8 
   85200   0.99589138   -6.2644047    4155.2462            7 
   85300    1.0108876   -6.2587317     4159.981            9 
   85400   0.99368827    -6.278443    4147.5903            6 
   85500   0.98309934   -6.2786734    4140.4004            7 
   85600    1.0112608   -6.2770131    4145.8722            7 
   85700   0.99611487   -6.2787223    4150.8711            7 
   85800    1.0110144   -6.2985778    4149.6222            7 
   85900   0.99654246   -6.2710978    4150.6908            5 
   86000   0.98901283   -6.2488523    4159.5961            7 
   86100   0.97992055   -6.2733655    4140.7118            6 
   86200    1.0015518    -6.278535    4145.6136           13 
   86300     1.021871   -6.2886799    4141.5815            8 
   86400    1.0153121   -6.3010008    4128.7397           10 
   86500    1.0138342     -6.26324    4125.5879           18 
   86600    1.0103758   -6.2414694     4137.145            8 
   86700   0.99221665   -6.2656373    4132.4819           14 
   86800   0.99506126   -6.2900916    4141.3425            9 
   86900    1.0134984   -6.2829229    4151.3216            5 
   87000    1.0000954   -6.2322935    4147.2675            3 
   87100     1.006999   -6.2203582    4155.7494            5 
   87200    1.0076329   -6.2646645    4156.2512            6 
   87300    1.0096802   -6.2903941    4149.8251            4 
   87400   0.99713656   -6.3021131    4149.8391            6 
   87500   0.99916644   -6.3034326    4157.9814            4 
   87600    1.0242231   -6.2914569    4173.5413            7 
   87700   0.97477947   -6.2575038    4167.2101            5 
   87800    1.0069642   -6.2722722     4159.061            3 
   87900    1.0048133   -6.3137519    4136.4315            4 
   88000     1.002986   -6.2875381    4143.0296            3 
   88100    1.0031862   -6.2452719    4148.9757            6 
   88200   0.98752275   -6.2247873    4146.1499            7 
   88300    1.0028799   -6.2691505    4132.7125            6 
   88400   0.98623972   -6.2634274    4136.7968            4 
   88500    0.9914516   -6.2662771    4155.1682            8 
   88600   0.98477921    -6.286165    4151.7789           17 
   88700    0.9921511   -6.2800907    4147.2252            6 
   88800    1.0168821   -6.2706503    4158.3969            6 
   88900   0.98736082   -6.2638023    4154.7995           14 
   89000    1.0091397   -6.2870634    4143.5226            7 
   89100    1.0442424   -6.2859214    4143.2989            9 
   89200    1.0062862   -6.2650964    4130.9758            8 
   89300    1.0052589   -6.2757979    4129.8662            6 
   89400   0.99109387   -6.2848477    4138.9689            4 
   89500   0.98876403   -6.2338667    4157.8403            8 
   89600    1.0164312   -6.2596043    4144.2337            9 
   89700    1.0172822   -6.2764351    4143.4468            4 
   89800    1.0171286   -6.2476061    4145.9547            5 
   89900   0.98987319   -6.2459458    4146.6966            3 
   90000   0.99647555    -6.276851     4147.858           12 
   90100    1.0195323   -6.2845146    4150.1914            7 
   90200   0.98402342   -6.2888202    4142.3717            7 
   90300   0.99914798   -6.2742497    4154.8905           11 
   90400   0.99974741   -6.2751491    4152.3185            4 
   90500   0.99946415   -6.3010444    4149.1343            7 
   90600   0.97941372   -6.2527822    4153.0208            6 
   90700    1.0120024   -6.2734567    4157.7189            5 
   90800   0.97936456    -6.263886    4156.6254            7 
   90900    1.0119746   -6.2663242    4169.4559            9 
   91000    1.0001242   -6.2857944    4156.9007            9 
   91100    1.0168162   -6.3042025    4158.1014            6 
   91200   0.97335243   -6.2757457    4159.6504            4 
   91300   0.98383592   -6.2857615    4142.3194            3 
   91400    1.0121209   -6.2834679    4149.4492            4 
   91500     1.005126   -6.2709718    4148.6992            8 
   91600   0.99858928   -6.2645416    4154.3948            4 
   91700   0.98984904   -6.2977672    4152.2012            8 
   91800    1.0032589     -6.31539    4152.9816            7 
   91900     1.002267   -6.2817597    4156.8109            6 
   92000   0.99449147   -6.2685241    4152.4017           10 
   92100    1.0093058   -6.2645112    4150.3415            4 
   92200    1.0011462   -6.2566243    4156.8554            8 
   92300    1.0026891   -6.2743309    4144.6813           13 
   92400    1.0049103   -6.2619778    4147.6896            7 
   92500    1.0299883   -6.2501525    4153.2623            5 
   92600   0.99033491   -6.2428946    4141.6558            7 
   92700   0.98819197   -6.2619243    4146.9121            5 
   92800   0.98810723   -6.2872569    4154.6269            3 
   92900    1.0072894   -6.2638361    4161.1373           10 
   93000   0.99184014   -6.2456251    4150.1486           10 
   93100   0.99658586   -6.2664095    4144.5936            8 
   93200     1.005369   -6.3000141    4129.8508            8 
   93300    1.0036266   -6.2669658    4129.4651            6 
   93400   0.98859612   -6.2696109    4136.9173           10 
   93500    1.0098207   -6.2549576    4154.8504           20 
   93600    0.9914569   -6.2681137    4164.0794           20 
   93700    0.9841892   -6.2886008    4161.5946           12 
   93800   0.99358361   -6.3085747    4146.2374            5 
   93900   0.98493438   -6.2657122    4164.6787            4 
   94000    1.0018895   -6.2588218    4172.5151           10 
   94100    0.9994686   -6.2878715     4162.254            8 
   94200    1.0075587   -6.2879334    4149.7991           12 
   94300    1.0023863   -6.3187528    4142.6402            7 
   94400   0.99535792   -6.2838705    4138.1301            7 
   94500    1.0039692   -6.2692374    4141.4468            7 
   94600    1.0032129    -6.314616    4133.4156            3 
   94700    1.0007265   -6.2971378    4138.5195           13 
   94800    1.0080014   -6.2798441    4157.0689           11 
   94900   0.99260674   -6.2860649    4172.9634           10 
   95000    1.0187712   -6.2817667    4171.2549            6 
   95100   0.96996896   -6.2539151    4157.9602            6 
   95200    1.0054239   -6.2881543    4156.4154            4 
   95300     1.007008   -6.2472099    4162.6473            3 
   95400   0.98485504   -6.2340004    4173.3481            6 
   95500   0.99557776   -6.2394744    4179.9616            5 
   95600   0.99400676   -6.2144041    4187.0351            4 
   95700    1.0088578   -6.2808561    4165.5891            8 
   95800    0.9786252   -6.2680148    4160.7787            5 
   95900    1.0069165   -6.2675345     4169.108            5 
   96000    1.0013997   -6.2610138    4176.8759            4 
   96100     1.007807   -6.2312574    4178.4246            6 
   96200    1.0013843   -6.2707393    4156.4451            4 
   96300   0.97246924   -6.2564629    4145.8707            3 
   96400    1.0090202    -6.275883    4152.4485            4 
   96500    1.0034575   -6.2718958    4152.7249            3 
   96600    1.0106123   -6.2986881    4150.9019           14 
   96700    1.0141496   -6.2527277    4169.6329            8 
   96800   0.99601994   -6.2546055    4157.2691           10 
   96900   0.98177387   -6.2837003    4153.2847            8 
   97000   0.97820619   -6.2261558    4153.9275           10 
   97100    1.0265898   -6.2746359    4143.3913           13 
   97200    1.0093332   -6.2670467     4141.231           13 
   97300    1.0073942   -6.2954273    4138.2567            9 
   97400    1.0066503   -6.2654145    4147.5776            5 
   97500    1.0192542   -6.2428752    4157.0326            8 
   97600   0.99523663   -6.2699073    4144.1252           13 
   97700    1.0129118   -6.2730248    4147.1083            7 
   97800    1.0103801   -6.2363001    4150.9544           11 
   97900    1.0065016   -6.2653014    4151.5633           17 
   98000   0.99592451   -6.2735385    4145.2779            9 
   98100    1.0092862   -6.2548755    4146.8191            6 
   98200   0.98609542   -6.2686231    4151.3002            6 
   98300    1.0132943   -6.2771521    4146.3591            7 
   98400    1.0152325    -6.262106    4153.7115            7 
   98500    0.9894547   -6.2839403    4148.1618           10 
   98600      1.00113   -6.2904556     4150.706           13 
   98700   0.97751571   -6.2395129    4146.1162            5 
   98800    1.0061075   -6.2379396    4154.3325            5 
   98900    1.0077926    -6.279797    4147.9314            4 
   99000     1.002096   -6.2904525    4155.8992            6 
   99100    1.0159236   -6.2679714    4150.2799            4 
   99200    1.0037755   -6.2657389    4145.1412            5 
   99300    1.0115802   -6.2632688    4140.7496            8 
   99400    1.0139016   -6.2213526    4147.5732           10 
   99500    1.0121736   -6.2726378    4150.5796            3 
   99600    1.0001607   -6.2711347     4148.388            8 
   99700    1.0078528   -6.2658226    4155.6883            7 
   99800   0.99123853   -6.2642442    4156.1931            4 
   99900   0.99826859   -6.2450715    4148.0399            3 
  100000   0.99252127   -6.2553781    4149.6014            7 
  100100   0.99116142   -6.2869363    4137.7751            4 
  100200    1.0112885   -6.2694242    4155.8282            9 
  100300   0.98962503   -6.2659559    4151.1198            8 
  100400     1.003297   -6.2848428    4147.3481            7 
  100500    1.0152683   -6.2764972     4150.284            5 
  100600   0.98478929    -6.274989     4135.159            5 
  100700    0.9841782   -6.2657484    4146.4597            8 
  100800    1.0039946   -6.2804078    4162.0612            7 
  100900   0.99285738   -6.2805362    4148.9806            9 
  101000    1.0125526   -6.3028462    4146.1621            8 
  101100   0.99561395    -6.269654    4163.9018            5 
  101200    1.0007522   -6.2560666     4170.519            6 
  101300    1.0155177   -6.2718281    4152.7389            4 
  101400   0.99660487   -6.2966495    4146.6868            6 
  101500    1.0035375   -6.2788849    4144.0971           11 
  101600    1.0217976   -6.2719355    4148.3921           10 
  101700   0.99789235   -6.2852227    4146.4544           10 
  101800    0.9783877   -6.3081186    4141.7754           13 
  101900   0.98784848   -6.2810985    4152.8424            6 
  102000    1.0203392   -6.3083473    4140.3696            7 
  102100   0.98117832   -6.2783134    4143.9795            6 
  102200    0.9876874    -6.243308    4148.1628            7 
  102300   0.99627836   -6.2499965    4153.4645            5 
  102400    1.0134829    -6.232365    4156.6199            6 
  102500      1.00218    -6.249968    4153.1072           10 
  102600    1.0114143   -6.2836433    4137.4615            5 
  102700    1.0125094   -6.2561303    4141.0469            7 
  102800   0.99877713   -6.2489577     4149.228            5 
  102900    1.0195243   -6.2801214    4146.4815           12 
  103000   0.98632397   -6.2854366    4153.0179            5 
  103100   0.99806977   -6.2638758    4158.8738            5 
  103200    1.0021838   -6.2644408    4173.7989            6 
  103300   0.98946173   -6.2285376    4181.8135            5 
  103400   0.99709431    -6.290087    4166.5423            8 
  103500   0.98854535   -6.2540829    4164.2625            4 
  103600    1.0157634   -6.2525129    4162.1944            4 
  103700    1.0091958   -6.2570461    4159.5919            7 
  103800   0.99760819   -6.2685194    4167.5433            8 
  103900   0.98652053   -6.2771556    4158.1823            5 
  104000   0.99114614   -6.2909847    4148.1263            7 
Loop time of 182.997 on 28 procs for 100000 steps with 4000 atoms

Performance: 94427.597 tau/day, 546.456 timesteps/s
99.7% CPU use with 28 MPI tasks x no OpenMP threads

MPI task timing breakdown:
Section |  min time  |  avg time  |  max time  |%varavg| %total
---------------------------------------------------------------
Pair    | 17.254     | 18.193     | 18.897     |  10.4 |  9.94
Neigh   | 2.159      | 2.189      | 2.232      |   1.4 |  1.20
Comm    | 11.447     | 13.344     | 15.058     |  28.7 |  7.29
Output  | 4.7147     | 4.7158     | 4.7276     |   0.1 |  2.58
Modify  | 138.07     | 141.33     | 145.51     |  19.3 | 77.23
Other   |            | 3.224      |            |       |  1.76

Nlocal:        142.857 ave         152 max         133 min
Histogram: 1 0 3 4 8 2 4 3 2 1
Nghost:        2193.93 ave        2219 max        2177 min
Histogram: 5 3 2 5 5 2 2 1 1 2
Neighs:        15754.1 ave       16735 max       14801 min
Histogram: 2 4 3 1 5 1 4 2 4 2
FullNghs:      31485.4 ave       33488 max       29564 min
Histogram: 1 1 4 5 4 5 2 1 2 3

Total # of neighbors = 881590
Ave neighs/atom = 220.39750
Neighbor list builds = 5972
Dangerous builds = 0

#clear
#
#next RN
#
#jump SELF
Total wall time: 0:03:04
