
units lj                  # Use reduced LJ style units
atom_style atomic         # Uncharged point particles
atom_modify map hash      # Needed for indexing of clusters etc
                          # Used to be able to find where atoms are in relation to each other.

# Define a lattice with which to populate the simulation cell. With units
# set to 'lj' the second argument to the lattice command is the reduced
# density rho* and the spacings are multiples of that required to acheive
# that density. Also define a simulation cell called 'box' in lattice units
# and fill it with atoms. Here we're creating a box which is ten lattice
# constants in each direction.
lattice fcc 1.0 spacing 1 1 1                 # All equal sizes - gives the right reduced density.
Lattice spacing in x,y,z = 1.5874011 1.5874011 1.5874011

region box block 0 10 0 10 0 10 units lattice # Defines a region, "box", in lattice units
create_box 1 box                              # Creates a simulation box as specified above,
Created orthogonal box = (0.0000000 0.0000000 0.0000000) to (15.874011 15.874011 15.874011)
  3 by 4 by 4 MPI processor grid
                                              # with one type of atom
create_atoms 1 box                            # Creates particles on lattice points
Created 4000 atoms
  using lattice units in orthogonal box = (0.0000000 0.0000000 0.0000000) to (15.874011 15.874011 15.874011)
  create_atoms CPU = 0.002 seconds


# Set the mass of the first (and only) atom type.
mass 1 1.0

# Lennard-Jones interactions between particles, 3.5 sigma cut-off. Apply
# long range tail corrections to energy and pressure and set all coefficients
# to unity since we work in reduced units here. Note that this doesn't shift
# the potential such that it goes to zero at the cutoff. That would require
# pair_modify('shift', 'yes').
pair_style lj/cut  3.5      # non-GPU version
pair_modify tail  yes
pair_coeff 1  1  1.0  1.0   # Intearaction between 1 and 1 set with epsilon = 1 and sigma = 1

write_data data.*
System init for write_data ...
Neighbor list info ...
  update every 1 steps, delay 10 steps, check yes
  max neighbors/atom: 2000, page size: 100000
  master list distance cutoff = 3.8
  ghost atom cutoff = 3.8
  binsize = 1.9, bins = 9 9 9
  1 neighbor lists, perpetual/occasional/extra = 1 0 0
  (1) pair lj/cut, perpetual
      attributes: half, newton on
      pair build: half/bin/atomonly/newton
      stencil: half/bin/3d
      bin: standard

#############################
#   M E L T   S Y S T E M   #
#############################

velocity all create 2.4 1741580 mom yes dist gaussian # Assign velocities
                                                    # Temperature 2.4, random number seed, zero linear momentum
						                                                        # Gaussian distribution

timestep 0.002   # simulation timestep
thermo 1000       # output thermodynamic data every 1000 steps

# Define a fix  in this case with index 1 applied to all
# particles in the simulation. This fix is for simulations
# in the anisotropic NPT ensemble. Note that we use the MTK
# correction.
fix 1 all npt temp 2.4 2.4 0.1 iso 5.68 5.68 0.5 mtk yes tchain 5 pchain 5 # Use NPT ensemble
                                                                         # Set temperature and pressure and damping
                                                                         # Numbers of thermostats in chain and in barostat
run 1000         # run for 10000 steps
Per MPI rank memory allocation (min/avg/max) = 3.642 | 3.644 | 3.648 Mbytes
Step Temp E_pair E_mol TotEng Press Volume 
       0          2.4   -8.3859253            0   -4.7868253   -2.2405722         4000 
    1000    2.3665579   -4.4849007            0  -0.93595129    5.3827989    5183.0868 
Loop time of 0.220303 on 48 procs for 1000 steps with 4000 atoms

Performance: 784375.739 tau/day, 4539.211 timesteps/s
99.5% CPU use with 48 MPI tasks x no OpenMP threads

MPI task timing breakdown:
Section |  min time  |  avg time  |  max time  |%varavg| %total
---------------------------------------------------------------
Pair    | 0.092081   | 0.10025    | 0.10873    |   1.3 | 45.50
Neigh   | 0.017744   | 0.018965   | 0.020691   |   0.4 |  8.61
Comm    | 0.067103   | 0.076018   | 0.083572   |   1.6 | 34.51
Output  | 2.4464e-05 | 2.5514e-05 | 3.2688e-05 |   0.0 |  0.01
Modify  | 0.019271   | 0.023512   | 0.026957   |   1.4 | 10.67
Other   |            | 0.001536   |            |       |  0.70

Nlocal:        83.3333 ave          91 max          76 min
Histogram: 3 1 5 5 12 3 10 3 4 2
Nghost:        1382.46 ave        1409 max        1358 min
Histogram: 1 2 4 9 12 9 4 3 2 2
Neighs:        7343.96 ave        8183 max        6423 min
Histogram: 2 0 5 9 7 7 5 7 4 2

Total # of neighbors = 352510
Ave neighs/atom = 88.127500
Neighbor list builds = 88
Dangerous builds = 18

# Equilibrate just above the melting temperature to avoid step fn in T

fix 1 all npt temp 1.25 1.25 0.1 iso 5.68 5.68 0.5 mtk yes tchain 5 pchain 5
run 1000
Per MPI rank memory allocation (min/avg/max) = 3.642 | 3.644 | 3.648 Mbytes
Step Temp E_pair E_mol TotEng Press Volume 
    1000    2.3665579   -4.4849007            0  -0.93595129    5.3827989    5183.0868 
    2000    1.2409378   -5.8351603            0   -3.9742191    5.6352422    4349.8189 
Loop time of 0.212658 on 48 procs for 1000 steps with 4000 atoms

Performance: 812572.869 tau/day, 4702.389 timesteps/s
99.6% CPU use with 48 MPI tasks x no OpenMP threads

MPI task timing breakdown:
Section |  min time  |  avg time  |  max time  |%varavg| %total
---------------------------------------------------------------
Pair    | 0.09402    | 0.099685   | 0.10703    |   1.0 | 46.88
Neigh   | 0.015559   | 0.016268   | 0.017324   |   0.3 |  7.65
Comm    | 0.062361   | 0.072161   | 0.080034   |   1.4 | 33.93
Output  | 2.3919e-05 | 2.4369e-05 | 3.1194e-05 |   0.0 |  0.01
Modify  | 0.018134   | 0.022585   | 0.02581    |   1.5 | 10.62
Other   |            | 0.001935   |            |       |  0.91

Nlocal:        83.3333 ave          92 max          76 min
Histogram: 3 4 3 11 3 10 8 2 3 1
Nghost:        1552.58 ave        1572 max        1532 min
Histogram: 3 2 3 5 7 13 5 4 0 6
Neighs:        8747.67 ave        9575 max        7948 min
Histogram: 5 1 3 11 5 4 9 4 4 2

Total # of neighbors = 419888
Ave neighs/atom = 104.97200
Neighbor list builds = 75
Dangerous builds = 9


# Small amount of linear quench

fix 1 all npt temp 1.25 ${temp} 0.1 iso 5.68 5.68 0.5 mtk yes tchain 5 pchain 5
fix 1 all npt temp 1.25 2 0.1 iso 5.68 5.68 0.5 mtk yes tchain 5 pchain 5
run 2000
Per MPI rank memory allocation (min/avg/max) = 3.643 | 3.645 | 3.648 Mbytes
Step Temp E_pair E_mol TotEng Press Volume 
    2000    1.2409378   -5.8351603            0   -3.9742191    5.6352422    4349.8189 
    3000    1.6027043    -5.390504            0   -2.9870486    5.5947831     4584.443 
    4000    1.9485836   -4.8204378            0   -1.8982931    5.8626281    4878.5358 
Loop time of 0.426192 on 48 procs for 2000 steps with 4000 atoms

Performance: 810902.305 tau/day, 4692.722 timesteps/s
99.6% CPU use with 48 MPI tasks x no OpenMP threads

MPI task timing breakdown:
Section |  min time  |  avg time  |  max time  |%varavg| %total
---------------------------------------------------------------
Pair    | 0.18908    | 0.19848    | 0.21142    |   1.2 | 46.57
Neigh   | 0.031703   | 0.032914   | 0.034373   |   0.3 |  7.72
Comm    | 0.1304     | 0.14619    | 0.15816    |   1.6 | 34.30
Output  | 4.7949e-05 | 4.9193e-05 | 6.2962e-05 |   0.0 |  0.01
Modify  | 0.037121   | 0.044697   | 0.051844   |   2.1 | 10.49
Other   |            | 0.003866   |            |       |  0.91

Nlocal:        83.3333 ave          91 max          76 min
Histogram: 4 1 6 2 12 6 8 3 3 3
Nghost:        1447.35 ave        1478 max        1426 min
Histogram: 1 8 8 8 4 10 6 2 0 1
Neighs:        7797.42 ave        8699 max        6917 min
Histogram: 2 2 5 7 10 9 3 5 3 2

Total # of neighbors = 374276
Ave neighs/atom = 93.569000
Neighbor list builds = 150
Dangerous builds = 0

#############################
# F R E E Z E  S Y S T E M  #
#############################

# Define solid atoms. This closely follows ten Wolde  Ruiz-Montero and Frenkel  Faraday Discuss  1996  104  93-110
# Compute components of the per-atom q6 vector
compute q6 all orientorder/atom degrees 1 6 components 6 nnn NULL cutoff 1.3 # compute the Q6 parameter.
                                                                             # Use all neighbours within 1.3 unit cell.

# get number of connections
compute coord_number all coord/atom orientorder q6 0.5

# An atom is solid if it has 8 or more connections (of a possible 14)
variable is_solid atom c_coord_number>=8
group solid dynamic all var is_solid    # Must be dynamic to update
dynamic group solid defined

# do clustering
compute cluster solid cluster/atom 1.3 # Create a cluster where all atoms within are solid and max 1.3 units from another member

# define chunks one chunk per cluster
compute clus_chunks solid chunk/atom c_cluster nchunk every compress yes  # Says which atoms are in which chunk

# count the size of each chunk
compute size_chunks solid property/chunk clus_chunks count


# Find the maximum entry in the vector of chunk sizes
variable max_n equal max(c_size_chunks)


# Thermo style which includes this variable
thermo_style custom step temp pe vol v_max_n

thermo ${N}  # Print the thermo information every 100 steps
thermo 1000  

# Reset the npt fix at a lower temperature (below freezing)
fix 1  all npt temp  ${temp} ${temp}  0.1  iso  5.68  5.68  0.5  mtk yes tchain  5  pchain  5
fix 1  all npt temp  2 ${temp}  0.1  iso  5.68  5.68  0.5  mtk yes tchain  5  pchain  5
fix 1  all npt temp  2 2  0.1  iso  5.68  5.68  0.5  mtk yes tchain  5  pchain  5

dump dmp2 all dcd ${N} traj_${rand}.dcd
dump dmp2 all dcd 1000 traj_${rand}.dcd
dump dmp2 all dcd 1000 traj_462431.dcd


# fix rnuntil all halt ${N} v_max_n >= 3980 error soft message no   # Stop when solidified


run 1000000 # 5000000  # Run for this many steps
Neighbor list info ...
  update every 1 steps, delay 10 steps, check yes
  max neighbors/atom: 2000, page size: 100000
  master list distance cutoff = 3.8
  ghost atom cutoff = 3.8
  binsize = 1.9, bins = 9 9 9
  4 neighbor lists, perpetual/occasional/extra = 1 3 0
  (1) pair lj/cut, perpetual
      attributes: half, newton on
      pair build: half/bin/atomonly/newton
      stencil: half/bin/3d
      bin: standard
  (2) compute orientorder/atom, occasional
      attributes: full, newton on
      pair build: full/bin/atomonly
      stencil: full/bin/3d
      bin: standard
  (3) compute coord/atom, occasional
      attributes: full, newton on
      pair build: full/bin/atomonly
      stencil: full/bin/3d
      bin: standard
  (4) compute cluster/atom, occasional
      attributes: full, newton on
      pair build: full/bin/atomonly
      stencil: full/bin/3d
      bin: standard
Per MPI rank memory allocation (min/avg/max) = 9.324 | 9.332 | 9.338 Mbytes
Step Temp PotEng Volume v_max_n 
    4000    1.9485836   -4.8204378    4878.5358            1 
    5000    2.0257602   -4.8015785    4905.8317            1 
    6000    2.0033988   -4.8175525    4929.1812            1 
    7000    2.0178153   -4.8071394    4923.8316            1 
    8000    2.0302691   -4.8049115    4902.4983            1 
    9000    2.0072537   -4.7486798    4929.1778            1 
   10000    1.9970602   -4.7793234    4933.4514       -1e+20 
   11000    2.0381348   -4.8116574    4929.0644            1 
   12000     2.024633   -4.8322032    4897.4933            1 
   13000    1.9933586   -4.8110776    4927.4826            1 
   14000    2.0312465   -4.7188731     4967.627            1 
   15000    1.9715883   -4.8081435    4899.5649            1 
   16000    2.0110783   -4.8326548    4901.3381            1 
   17000    1.9645863   -4.8006854    4918.1252            1 
   18000    2.0036457    -4.830732    4925.0477            1 
   19000    2.0016146   -4.7935499    4906.3687            1 
   20000    2.0735042   -4.8146288    4919.0474            1 
   21000     2.023186   -4.8087301    4935.4461            1 
   22000    2.0293352   -4.7818527    4897.9312            1 
   23000    2.0310738   -4.8087583    4933.5751            1 
   24000     1.996499   -4.7802979    4956.0117            3 
   25000     2.027002   -4.8087234    4905.6306            1 
   26000     1.976836   -4.7972149    4903.5694            1 
   27000     2.000181   -4.7939332    4954.9401            1 
   28000      1.99098   -4.8042383     4922.186            2 
   29000    2.0041543   -4.7679713    4919.1243       -1e+20 
   30000    1.9983833   -4.8208181    4940.3286            1 
   31000    1.9612812    -4.812261    4933.7802            1 
   32000    1.9825001   -4.7512662    4945.8358            1 
   33000    1.9867902   -4.8115217    4875.7385            1 
   34000     1.979207   -4.8028104    4930.4881            1 
   35000    2.0008982   -4.8346931    4899.8794            1 
   36000    1.9970905   -4.8313849    4930.7537            2 
   37000    1.9605009   -4.7835157     4909.137       -1e+20 
   38000    2.0442083   -4.8107486    4898.1128            1 
   39000    2.0205727   -4.8172474    4924.0073       -1e+20 
   40000    1.9619564   -4.8523216    4926.6965       -1e+20 
   41000    2.0219191   -4.8046349    4906.8091            1 
   42000     2.046636   -4.8118206    4934.2199            1 
   43000    2.0097623    -4.790011    4951.0702            1 
   44000    1.9831755   -4.7952725    4925.7898            1 
   45000    1.9811631   -4.8071588    4925.9275            1 
   46000    1.9934268    -4.790072    4944.8197       -1e+20 
   47000    1.9811225    -4.786676    4924.5505            1 
   48000    1.9965022   -4.8036263    4926.6492            1 
   49000    1.9834133    -4.865145    4912.9719            1 
   50000    1.9999518    -4.792852    4909.8937            1 
   51000    1.9938181   -4.8172766    4920.8213            1 
   52000    1.9912134   -4.8253642    4899.0371            1 
   53000     1.949476   -4.8048318    4890.2837            1 
   54000    2.0217557    -4.791809    4896.6922       -1e+20 
   55000    2.0040471    -4.786196    4929.5432       -1e+20 
   56000    1.9637035   -4.8320169    4933.2029       -1e+20 
   57000    1.9838006   -4.8181465    4906.6964            1 
   58000    1.9828741   -4.7839299    4929.3246            1 
   59000    1.9728316   -4.7977466    4902.0605       -1e+20 
   60000     1.978118   -4.8200344    4908.8584            1 
   61000     2.014639   -4.8070273    4922.9133            1 
   62000    2.0219365   -4.7558558    4956.0154       -1e+20 
   63000    1.9929026   -4.8231682    4921.2586            1 
   64000    2.0258874   -4.8236072    4909.9827            1 
   65000    1.9663835   -4.7342255    4893.2804            1 
   66000    2.0375711   -4.7918974    4913.9187            1 
   67000    1.9206096   -4.8018863    4902.1766            1 
   68000     1.968082   -4.8025715    4925.5814            2 
   69000    2.0072169   -4.7905737    4941.9469            1 
   70000    2.0040712   -4.7654773    4926.7739            1 
   71000    1.9852091   -4.7619875     4948.904            1 
   72000    2.0137511   -4.8539805    4918.0495            1 
   73000    1.9919277    -4.794783    4919.6547            2 
   74000    2.0095153   -4.8241759    4916.4897            1 
   75000    2.0034939   -4.7869213    4906.4059       -1e+20 
   76000    1.9773011   -4.7901964    4939.2684       -1e+20 
   77000    2.0195223   -4.8058898    4901.6774            2 
   78000    1.9824308   -4.7698311    4929.4167            1 
   79000    1.9879322   -4.7939519     4939.447            1 
   80000    1.9802746   -4.8241477    4897.8569            1 
   81000    2.0145091   -4.8026145      4923.12            1 
   82000    1.9924743   -4.8031729     4942.914            1 
   83000    1.9842058   -4.7973966    4913.8977            1 
   84000    2.0685735   -4.8029394    4899.8713            1 
   85000    2.0447964   -4.7742796    4926.6806            1 
   86000    1.9752259   -4.7368175     4933.451            1 
   87000     1.975698   -4.8265074    4939.7665            1 
   88000    1.9817764   -4.8324837    4894.0467            1 
   89000    2.0215863   -4.7400411    4933.9117            2 
   90000    1.9404224   -4.7862461    4915.0664            2 
   91000    2.0041539   -4.8309109    4920.1991            1 
   92000    1.9717601   -4.7645955    4952.1782            1 
   93000    1.9829501   -4.8173767    4907.3548       -1e+20 
   94000    2.0054735   -4.7866759    4959.3101            3 
   95000     2.033367   -4.8372222     4900.132            2 
   96000    2.0098741   -4.7834925     4939.374            2 
   97000    1.9842197   -4.7843797    4917.8599            1 
   98000    2.0416526   -4.7873097    4948.7648            2 
   99000    1.9744073   -4.7708977     4937.449       -1e+20 
  100000    1.9896926   -4.8464657    4886.1907            1 
  101000    2.0008498   -4.8095653    4912.1957            2 
  102000    1.9900589   -4.7506397    4933.4213            1 
  103000    1.9444703   -4.8051593    4914.1922            1 
  104000    1.9929612   -4.8048213    4930.6082            2 
  105000    2.0012322   -4.8024896    4928.2827            1 
  106000    1.9892924   -4.7950363    4911.6193            2 
  107000    1.9879319    -4.691415    4976.9555            1 
  108000    1.9975737    -4.846013    4915.7602       -1e+20 
  109000    1.9649592   -4.8538131    4911.0814            1 
  110000    1.9993305   -4.7976914    4929.0192            1 
  111000     2.010959   -4.8576388    4942.7245            2 
  112000    1.9561282   -4.7456302    4912.8271            1 
  113000    2.0000027   -4.7800529    4972.1519       -1e+20 
  114000    1.9870609    -4.882635    4886.3462            1 
  115000    1.9836126   -4.7896004    4935.6299            1 
  116000    1.9991931   -4.7801124    4920.0329       -1e+20 
  117000    2.0079808   -4.7902923    4922.0736            1 
  118000       1.9916   -4.8146957    4904.5038            1 
  119000    1.9860894   -4.7850456    4922.1391            1 
  120000    2.0385667    -4.754841     4948.008            1 
  121000    2.0490042   -4.7871097    4946.2961            1 
  122000    1.9526115   -4.7880961    4934.7607       -1e+20 
  123000    2.0169226    -4.821256    4882.3025            1 
  124000    1.9815151   -4.8219392    4892.6848            1 
  125000    2.0557799   -4.7933482    4940.4517            1 
  126000    2.0411152   -4.8039032    4897.5776            1 
  127000    2.0018792   -4.7809032    4913.9758       -1e+20 
  128000    2.0099257   -4.7927501    4935.0039            1 
  129000    2.0273477   -4.7753158    4942.6218            1 
  130000    2.0100162   -4.8031523    4941.1187            1 
  131000    2.0368635   -4.8235782    4905.3333            1 
  132000    1.9729261   -4.7643753    4918.7728            1 
  133000    2.0205937    -4.794884    4906.3123            1 
  134000    2.0098092   -4.7688713    4912.9219            1 
  135000    2.0285579    -4.798821    4924.1713       -1e+20 
  136000    2.0148374   -4.8268345    4896.8368            2 
  137000    1.9639432   -4.8221237     4920.767       -1e+20 
  138000    2.0070598   -4.8106689    4885.6455            1 
  139000    2.0031545   -4.8050597    4927.4981            1 
  140000    2.0023671   -4.7774485    4911.5549            1 
  141000    2.0281384   -4.7686556     4945.746       -1e+20 
  142000    2.0242653   -4.6948181    4952.8006            1 
  143000    2.0096121   -4.7709348    4919.6746            1 
  144000    2.0158846   -4.8276922    4913.8185            1 
  145000    1.9873841   -4.7720079    4914.5515            1 
  146000    1.9999943   -4.8223835    4913.0222            1 
  147000     2.038453   -4.8154378    4934.4799            2 
  148000    1.9613194   -4.7456775    4939.2074            2 
  149000    1.9677309   -4.8649851     4888.158            1 
  150000    1.9849661   -4.7600128    4943.1067            1 
  151000    2.0126512   -4.8149595    4921.5277            1 
  152000    2.0114011   -4.8081804    4906.6603            1 
  153000    2.0281452      -4.7585    4918.9019            1 
  154000    1.9651678   -4.8219661    4935.2643            1 
  155000    1.9910797   -4.7681802    4947.6366            1 
  156000    1.9786176   -4.8143864    4935.4472            1 
  157000     2.052753    -4.801821     4908.793            1 
  158000    2.0025921    -4.819746    4940.9686            1 
  159000    2.0532313   -4.8139619    4920.6099            1 
  160000     2.031881   -4.7571866    4914.3891            1 
  161000     2.011679   -4.8346163    4894.3595            1 
  162000    2.0119532   -4.7832948    4975.5068       -1e+20 
  163000    1.9936677   -4.8125662    4940.5079            2 
  164000    1.9873746   -4.7604143     4939.218            1 
  165000    1.9711075   -4.7891456    4912.2316            3 
  166000    1.9885378   -4.7955621    4934.4799            1 
  167000    2.0050699   -4.7927049    4944.9043            1 
  168000    1.9680256   -4.8245014    4914.6457       -1e+20 
  169000    2.0060632   -4.7778749    4914.2276            1 
  170000    2.0225772   -4.7656816    4931.0034            1 
  171000    1.9617573   -4.8342173    4909.9568            2 
  172000    1.9756159   -4.7686164    4905.0638            1 
  173000    1.9823691   -4.7921157    4977.2211            1 
  174000    1.9703941   -4.8313334    4913.5211            1 
  175000    2.0171745   -4.7817022     4938.349            2 
  176000    2.0132653   -4.8033741    4899.3809            1 
  177000    1.9921429   -4.8137095    4880.6731            1 
  178000    1.9805583   -4.8023666    4876.5253            2 
  179000    2.0030006   -4.7279995    4940.3212            1 
  180000    1.9974153   -4.7897153    4933.0028            1 
  181000    2.0175781   -4.8191894    4923.2862       -1e+20 
  182000    1.9960892   -4.8116918    4941.6364       -1e+20 
  183000    2.0256224   -4.8285493    4913.4878       -1e+20 
  184000    2.0092072   -4.8063927    4891.3049            1 
  185000    2.0191825   -4.7609064    4943.2618       -1e+20 
  186000     2.004991   -4.8101132    4936.8204            1 
  187000    1.9784878   -4.8174196     4901.736            1 
  188000    1.9972271   -4.7662715    4924.8025            1 
  189000    2.0174179   -4.7828952    4911.5797            1 
  190000    1.9875912   -4.7919254    4909.7139            1 
  191000    2.0170243   -4.7820143    4946.2928            1 
  192000    1.9771216   -4.8067496    4916.5221            1 
  193000    2.0317478   -4.8376275    4883.9615            1 
  194000    2.0301254   -4.8224924    4894.6401            1 
  195000     1.984369   -4.8181277    4911.6104            1 
  196000    2.0454094   -4.8200065    4930.3574            2 
  197000    2.0138505   -4.8224412    4935.2275            1 
  198000    2.0394949   -4.8166427    4895.5753            1 
  199000     1.989269   -4.8056298    4931.8131            1 
  200000     2.004323   -4.8483991    4897.3969       -1e+20 
  201000    2.0124756   -4.7712259    4942.4018       -1e+20 
  202000    2.0083002   -4.7991875    4923.5255            2 
  203000    2.0064534   -4.8286828    4882.3682            5 
  204000    2.0525527   -4.8122216    4923.9253            1 
  205000    2.0098642   -4.7304972    4929.3247            1 
  206000    2.0378511   -4.8116218    4929.3941            1 
  207000     1.980587    -4.767603    4901.9564            1 
  208000    1.9882288   -4.7942275    4918.4061            3 
  209000     1.982755   -4.8188897     4906.738            1 
  210000    1.9727231   -4.8416406    4943.2519            2 
  211000    2.0141575   -4.7685038    4921.4341            1 
  212000    1.9852473   -4.7915456    4930.2721            1 
  213000    1.9709678   -4.8096003    4922.8046            2 
  214000    2.0082348   -4.8079419    4918.1071            2 
  215000    2.0277568    -4.744665    4916.3376            1 
  216000      1.95389   -4.8388455    4911.7018            1 
  217000    2.0078621    -4.804384    4923.4262            1 
  218000    2.0075847   -4.8111395    4895.7809       -1e+20 
  219000    1.9981846    -4.812606    4931.0853            1 
  220000    1.9814593   -4.8086547    4921.2067            1 
  221000    1.9720915   -4.7766415     4936.415            1 
  222000    1.9952789   -4.8597956    4935.8767            2 
  223000    1.9668979   -4.8011414    4904.8199            5 
  224000    1.9978313   -4.8254439    4881.0514            2 
  225000    1.9441862   -4.8369027     4918.979            1 
  226000    2.0064979    -4.797756    4929.9964            1 
  227000    1.9924285   -4.7769393    4910.3524            1 
  228000    1.9928943    -4.801352    4936.4233            2 
  229000    1.9607416   -4.7855449    4926.3957            1 
  230000    1.9792337    -4.776829    4901.7787            1 
  231000    2.0085391   -4.7441733    4947.6814            1 
  232000    2.0094164    -4.771494    4930.5013            1 
  233000    1.9671033   -4.7925281    4946.0749            1 
  234000     2.027356   -4.8052091    4935.4085            1 
  235000     1.987966   -4.7788102    4931.8024            1 
  236000    2.0466785   -4.8100133    4946.8369       -1e+20 
  237000    1.9871396   -4.8264262    4886.0003            1 
  238000    2.0073292   -4.8033778     4937.766            1 
  239000    2.0121506   -4.8108706    4948.3426            1 
  240000    1.9964584   -4.8083236    4934.6865            1 
  241000     1.968755   -4.8061318    4940.5492            1 
  242000    1.9855111   -4.8341445    4910.9297            1 
  243000    2.0377282   -4.7771943    4929.4455            1 
  244000    1.9737387   -4.7847185    4903.6558            1 
  245000    1.9819676   -4.7562757    4923.6406            1 
  246000    1.9873437   -4.8017001    4904.0865            1 
  247000    1.9752828   -4.7661847    4950.5487       -1e+20 
  248000    1.9614592   -4.7963994    4871.0355            1 
  249000    1.9670679   -4.7783024    4913.0566            2 
  250000    2.0189642   -4.7799145    4908.1377            1 
  251000    2.0012113   -4.7252283    4940.7252            1 
  252000    1.9855706   -4.8299624    4911.1383            3 
  253000    2.0221086   -4.7872291     4934.986       -1e+20 
  254000     1.960538   -4.7653136    4924.6216            2 
  255000    1.9915705   -4.7302306    4912.2749            1 
  256000    1.9609964   -4.8569468    4889.3187            1 
  257000    2.0240831   -4.7415484     4957.266            1 
  258000    2.0174487   -4.8187951     4931.231            1 
  259000    2.0158924    -4.838754    4934.1044            2 
  260000    1.9782505   -4.8426796    4924.1699            2 
  261000    2.0080323   -4.7299971    4932.6117            1 
  262000    1.9833531   -4.8349858    4878.3471            1 
  263000    1.9990695   -4.8169997    4903.9217       -1e+20 
  264000    2.0287775    -4.813464    4923.3361            1 
  265000    2.0113483   -4.7917048    4923.9077            2 
  266000    2.0042411   -4.8365988    4925.8263       -1e+20 
  267000    1.9696571   -4.8380373    4920.5553            1 
  268000    1.9509275   -4.7956723    4901.9512            1 
  269000    2.0225465   -4.7758505    4913.7993            1 
  270000    2.0032546   -4.7851227      4892.68            2 
  271000    2.0178616   -4.8073926    4905.3699            1 
  272000    1.9674823   -4.8157709    4919.3353            1 
  273000    1.9938539   -4.8219567    4902.0941            1 
  274000    1.9980937   -4.8073459    4915.7957            2 
  275000     1.982964   -4.7965595    4902.0321       -1e+20 
  276000    1.9924271   -4.7517515    4938.6221       -1e+20 
  277000    2.0012212   -4.8113373    4887.7763            1 
  278000     1.979611   -4.7322899    4953.6425            1 
  279000    1.9761449   -4.7849859    4922.7513            1 
  280000    2.0315493   -4.7974592    4927.7324            1 
  281000    2.0192838   -4.7619152    4917.7139            1 
  282000    1.9924723   -4.7631868    4984.7688            1 
  283000    1.9941307   -4.8452004    4918.0258            1 
  284000    2.0084692   -4.7803138    4875.8108            1 
  285000    1.9999537   -4.7806888    4939.6373       -1e+20 
  286000    2.0201606   -4.8142167    4910.6621            1 
  287000     2.008276   -4.8155648     4928.676            1 
  288000    1.9964979   -4.7612579    4934.0418            1 
  289000    1.9562161    -4.807218    4951.9047            1 
  290000    1.9746756   -4.7804723    4913.9181            2 
  291000    2.0227335   -4.7643177    4924.6756            1 
  292000    1.9918572   -4.7644811    4913.6853            2 
  293000    1.9509382   -4.8223526     4929.765            2 
  294000    1.9578086   -4.8055581    4915.6199            1 
  295000    2.0156078   -4.8306842    4926.9605            1 
  296000     1.996475   -4.8301275    4904.2109       -1e+20 
  297000    1.9903296   -4.7484131    4922.0151            1 
  298000      1.95627   -4.7728159    4953.5193            1 
  299000    2.0110462   -4.8055689    4927.8075            1 
  300000    2.0257327   -4.7517393    4914.4479            1 
  301000    2.0317915   -4.7917082    4946.8155            2 
  302000    1.9592752   -4.8033058    4905.7052       -1e+20 
  303000     1.965846   -4.8575072    4901.9253            1 
  304000    1.9840862   -4.8007927     4932.111            2 
  305000     2.003824   -4.7733594    4917.5551            1 
  306000    2.0280983   -4.8479552    4918.7208            1 
  307000    2.0025829   -4.8321994    4899.0697       -1e+20 
  308000    2.0237001   -4.7835144     4932.826            2 
  309000    1.9951823    -4.757202    4931.8715       -1e+20 
  310000    1.9948782    -4.776918    4938.3955            1 
  311000     1.966134   -4.7632433    4904.8714            1 
  312000    1.9784872   -4.8419129    4907.3315            1 
  313000    2.0494645   -4.7449965    4925.3228            1 
  314000    2.0040207   -4.8471709    4932.3142            1 
  315000    1.9836452   -4.7923155    4930.3478            3 
  316000    1.9904088   -4.8054444    4931.4107            1 
  317000    2.0186475   -4.7972176    4934.8976            1 
  318000    1.9715841   -4.7821154    4886.8736            4 
  319000    1.9865643   -4.7414197    4937.8368            2 
  320000    2.0412987   -4.7536645    4943.6409            1 
  321000    2.0389261   -4.8383515    4948.2458            1 
  322000     1.933644    -4.808289    4899.8626            1 
  323000     1.986471   -4.8740186    4896.2388            1 
  324000    1.9701656   -4.8880455    4921.3187            1 
  325000    1.9897496   -4.8202874    4896.0432            1 
  326000    1.9781203   -4.8703355    4893.9529            1 
  327000    1.9619191   -4.8249146    4922.8905            2 
  328000    1.9889317   -4.7999151    4903.3779            1 
  329000    2.0180359   -4.7742696    4972.0823       -1e+20 
  330000       2.0028    -4.785256    4927.2145            1 
  331000    1.9793966   -4.7881842    4917.0408            1 
  332000     2.021317   -4.8406692    4933.6452            1 
  333000    1.9474419   -4.7857767    4938.3723            1 
  334000    2.0144641   -4.7696649    4930.3863            1 
  335000    2.0092123   -4.8221002    4894.4005            2 
  336000    1.9977646   -4.7720567    4937.9323            1 
  337000    1.9881626   -4.8163588    4918.5004            1 
  338000    2.0208365    -4.805949    4938.5345       -1e+20 
  339000    2.0128555   -4.8458366    4886.6256       -1e+20 
  340000    2.0075469   -4.7640487     4946.284            1 
  341000    1.9897552   -4.8234066    4924.5396            1 
  342000     1.969705   -4.7724079    4927.5576            1 
  343000     1.983087   -4.8370149    4910.3511            1 
  344000    1.9901265   -4.7853745    4908.4989            2 
  345000    1.9610738   -4.8466007    4934.6949            2 
  346000    2.0179761   -4.8397667    4883.4456            1 
  347000    1.9704514   -4.8187045    4931.6751            1 
  348000    1.9729663   -4.7537953    4930.4461       -1e+20 
  349000    1.9662711   -4.8170335    4915.2203            1 
  350000    1.9785127   -4.7575356     4929.497            1 
  351000    1.9634615   -4.7841802     4967.324            1 
  352000     1.988701   -4.7682336    4922.7317            1 
  353000    2.0128937   -4.7851269    4908.2339            1 
  354000    1.9953442   -4.8182933    4923.4915       -1e+20 
  355000    1.9826013   -4.7935513    4912.5443            1 
  356000    2.0337375   -4.7796939    4912.8638            1 
  357000    1.9852289   -4.7839859     4893.931            1 
  358000    2.0128794   -4.7932651    4938.7852            1 
  359000    1.9756156   -4.7852504    4890.1489       -1e+20 
  360000    2.0281959   -4.8022643     4921.438            1 
  361000    2.0358591   -4.8518326    4865.0967            1 
  362000     2.031775   -4.7665559    4966.1276       -1e+20 
  363000    2.0074931   -4.8137414    4903.6224            1 
  364000    2.0114474   -4.7892003    4896.7403            1 
  365000    2.0125614   -4.8045808    4906.2352            1 
  366000    2.0117137   -4.8163745    4916.4363       -1e+20 
  367000    2.0000272   -4.8066691    4898.7482       -1e+20 
  368000     1.939201   -4.8263118    4903.4257            1 
  369000    1.9948283   -4.7918937    4917.8725       -1e+20 
  370000    2.0135688   -4.7759052    4923.5086            1 
  371000    1.9989068   -4.8607811    4917.4388            1 
  372000     1.989109   -4.7618556     4930.182            1 
  373000    2.0150293   -4.7491971     4923.181            1 
  374000    2.0001006   -4.8635144    4904.3856            1 
  375000    2.0233001   -4.7788062    4902.5526            1 
  376000    1.9815451   -4.7916034    4892.3501            1 
  377000    2.0023901   -4.7524304    4943.0897            1 
  378000    1.9722734     -4.85807    4937.9595            1 
  379000    1.9900902   -4.7693665     4927.104            2 
  380000    2.0224569   -4.7661328    4948.8246            1 
  381000       1.9954   -4.7663592    4924.5908            1 
  382000     2.022946   -4.7982319    4882.7347            1 
  383000    1.9738458    -4.810265    4879.6895            1 
  384000    1.9455759   -4.8627483    4908.4293            1 
  385000    1.9733691   -4.7679911    4912.8172            1 
  386000    1.9689895   -4.7989801    4907.3038            1 
  387000    1.9456936   -4.8178926    4895.5864            1 
  388000    2.0299499    -4.774532    4929.3719            1 
  389000    1.9963201   -4.7661679    4939.6257            1 
  390000    1.9999018    -4.831118    4931.5821            1 
  391000    1.9576807   -4.8107306    4927.9999            1 
  392000     1.988784   -4.8176632    4914.4688            1 
  393000    1.9707346   -4.7975301    4942.7849            1 
  394000    1.9792909   -4.7699658    4952.1514            1 
  395000     2.025553     -4.79526     4874.559            1 
  396000    2.0012741   -4.8009235    4890.6385            1 
  397000    2.0007679   -4.8154019    4911.7635            1 
  398000    2.0150341   -4.8186263     4909.153            1 
  399000    1.9833075   -4.7990594    4925.4276            1 
  400000    1.9795154   -4.7763154    4939.9854            1 
  401000    1.9679215   -4.7791246    4954.4466            1 
  402000     1.978971   -4.7529029    4928.5762            1 
  403000    2.0057738   -4.7946238    4913.9261            1 
  404000    2.0281168   -4.8246925    4904.8384            1 
  405000    2.0287016   -4.7828227    4936.5065            2 
  406000    1.9891596   -4.7902928    4899.0481            1 
  407000    1.9984035   -4.7973986    4921.7932            1 
  408000    1.9745069   -4.7725654    4903.6973       -1e+20 
  409000    2.0165303    -4.864967    4921.5839            1 
  410000    1.9837058   -4.8065101    4924.7519            1 
  411000    1.9988248   -4.8124352    4907.2876            1 
  412000    2.0629006   -4.8013699    4876.7295            1 
  413000      2.00571   -4.7883895    4923.4914       -1e+20 
  414000    2.0140787   -4.8482845    4914.3616       -1e+20 
  415000    1.9395241   -4.8298337    4927.5826            1 
  416000    2.0340317   -4.8467229    4916.8462            1 
  417000    1.9602149   -4.8438239    4889.2727            1 
  418000     1.971081   -4.8625957    4914.0548            1 
  419000    1.9730079   -4.8231449     4872.468            1 
  420000    1.9700722   -4.7584808    4923.2769       -1e+20 
  421000    1.9355963   -4.8032329    4934.5884            1 
  422000    2.0396969   -4.7973983    4935.8591            1 
  423000    1.9579872   -4.7852568    4919.0296            1 
  424000    2.0042123   -4.7777116    4968.3272            1 
  425000    1.9999041    -4.758931    4937.0798            1 
  426000    1.9960449   -4.8001171    4930.4112            2 
  427000    2.0224779   -4.7813381     4927.826            1 
  428000    2.0358127   -4.7928367    4908.0381            1 
  429000    2.0305309   -4.7888354    4937.2731            1 
  430000    1.9768949   -4.7585368    4882.4162            1 
  431000    2.0185836   -4.8067652    4929.6177            1 
  432000    1.9999223    -4.782606    4940.3553            1 
  433000     1.996848   -4.8257525    4898.4015            2 
  434000     1.988695    -4.805679    4936.1979            3 
  435000    1.9804222   -4.7414108    4953.7671       -1e+20 
  436000    2.0039981   -4.8005625    4905.0418            1 
  437000    2.0440828   -4.7753572    4913.3888            1 
  438000    1.9992431   -4.8096656    4884.3077            1 
  439000    1.9791059   -4.8075232    4896.0932            1 
  440000    1.9942516   -4.7855566    4958.9156            1 
  441000    1.9716968   -4.8129514     4944.156            1 
  442000    1.9887732   -4.7931681    4931.0633            1 
  443000    2.0129518   -4.7873656     4927.375            1 
  444000    1.9518017   -4.7975126    4942.5196            1 
  445000      2.01869   -4.8335884    4876.9786            1 
  446000    1.9927973   -4.7496428    4949.7031            1 
  447000    2.0048257   -4.7978104    4932.7663            1 
  448000    2.0005958   -4.8500444    4909.0447            1 
  449000    2.0236911   -4.8381575    4909.0237            1 
  450000    2.0152112   -4.8586376    4876.6597            3 
  451000    2.0310352   -4.7751123     4914.127            1 
  452000    1.9820142   -4.7985281    4928.8618       -1e+20 
  453000    2.0129232   -4.7952486    4961.5934            1 
  454000    1.9859737   -4.8467696    4920.7581            2 
  455000    2.0264073   -4.8295569    4908.6521            1 
  456000    1.9798734   -4.7694497    4898.1003            2 
  457000    1.9828555    -4.761775    4949.2613            1 
  458000    1.9999429    -4.814879    4911.0872            1 
  459000    2.0058445   -4.7300595    4963.7506            1 
  460000     1.991334   -4.8371892    4910.5603       -1e+20 
  461000    2.0416517   -4.7937655    4892.0518            1 
  462000    2.0179999   -4.8174811    4909.3473       -1e+20 
  463000    1.9777524    -4.829092    4924.1023            1 
  464000    1.9810559   -4.8387249    4897.6976       -1e+20 
  465000    1.9836311   -4.7773446    4960.5799            1 
  466000    2.0001409   -4.7776532    4929.4116            1 
  467000    1.9689439    -4.809297      4888.18            1 
  468000     2.004992   -4.8086351    4910.1023            1 
  469000    2.0002985   -4.8178967    4916.8694            1 
  470000    2.0093894   -4.7895617    4907.4408       -1e+20 
  471000    2.0131859   -4.8006524    4932.6413            2 
  472000    1.9851681   -4.7683483    4922.7152            1 
  473000    2.0047839   -4.8143383    4901.0663            1 
  474000    2.0094857   -4.7652637     4916.212            1 
  475000    1.9890334   -4.7971916    4931.5492            1 
  476000    1.9866733    -4.820914    4919.8775            1 
  477000    1.9642795    -4.824151    4925.1381            2 
  478000    1.9842926   -4.7879618    4899.8894       -1e+20 
  479000    1.9864889   -4.7804521    4918.5236            1 
  480000    2.0280896    -4.792552    4915.8456            1 
  481000    1.9986919   -4.8175829    4895.6235            1 
  482000    1.9742878   -4.7921621    4926.6041       -1e+20 
  483000    2.0321558   -4.8307713    4914.2638            2 
  484000    2.0347696   -4.7970332    4899.5735            2 
  485000    2.0237101   -4.7409636    4927.8568            1 
  486000    2.0247199   -4.7996342    4920.6737            2 
  487000    2.0123312   -4.7737118    4936.9351            1 
  488000    2.0290231   -4.7926152    4944.3791            1 
  489000    1.9810965   -4.7892535    4914.0303       -1e+20 
  490000    2.0435577   -4.7816823    4956.5242            1 
  491000    2.0241036   -4.7830405    4904.6277            1 
  492000    2.0672418   -4.8119979    4937.7169            1 
  493000    2.0173116    -4.840743    4929.6641            1 
  494000    2.0147882   -4.8146289     4928.723            3 
  495000    2.0133576   -4.7734617    4903.9196            1 
  496000    2.0032888   -4.7840448     4926.136            1 
  497000    1.9994051   -4.8300619    4944.8988            1 
  498000    2.0053337   -4.8144637    4915.8433            1 
  499000    1.9980681   -4.7796271    4939.0003            1 
  500000    2.0293894   -4.8345982    4910.9009            1 
  501000    2.0146956   -4.7657133    4946.4898            1 
  502000    2.0033705   -4.8163121    4940.7831            1 
  503000    2.0024745   -4.8396127    4908.0849            2 
  504000    2.0002212   -4.8239218    4921.5879       -1e+20 
  505000    2.0139643   -4.8111277    4924.2065            1 
  506000    2.0348999   -4.8141742    4906.7233       -1e+20 
  507000    1.9786852   -4.8211162    4935.0722            1 
  508000    2.0398728   -4.7777587    4929.1683       -1e+20 
  509000    2.0280797   -4.8234454    4898.5684       -1e+20 
  510000    1.9839189   -4.7915625    4893.5531            1 
  511000    2.0419786   -4.8540381    4920.6276            1 
  512000    1.9817723   -4.7641766     4933.756       -1e+20 
  513000    2.0179939    -4.822177    4927.1147            1 
  514000    1.9533397   -4.8616905    4899.6658            2 
  515000    1.9955299   -4.7741465    4895.1804       -1e+20 
  516000    2.0057074   -4.8109725    4926.0915            1 
  517000    2.0069186   -4.7837777    4957.4115            1 
  518000     2.001683   -4.8169308    4929.8575            1 
  519000    2.0304595   -4.8395278    4900.1137            1 
  520000    1.9871172   -4.7657632    4931.1733            1 
  521000    2.0084403    -4.863837      4928.08            1 
  522000     2.048111   -4.8185228    4910.1243            1 
  523000    1.9707457   -4.8053158    4896.2518            1 
  524000    2.0232986   -4.7839798    4921.1861            1 
  525000     2.000008   -4.7918779    4941.2744            1 
  526000    1.9898951   -4.8018911    4915.5193       -1e+20 
  527000    2.0453159   -4.7657292    4944.6237       -1e+20 
  528000    2.0120507   -4.7784293    4928.1668            1 
  529000    2.0038922   -4.8122556     4937.619            1 
  530000    2.0461468    -4.776521    4891.8221       -1e+20 
  531000    2.0343763   -4.7990588    4947.2245            1 
  532000     1.965572   -4.7856434    4894.7042            1 
  533000    1.9841544   -4.8282384    4908.6734            1 
  534000    2.0494037   -4.8485183    4928.1248            1 
  535000    2.0011237   -4.8186468    4917.5517            1 
  536000    2.0048739   -4.8448133    4927.8893            1 
  537000    2.0280244   -4.7671206    4922.0906            1 
  538000    2.0109045   -4.7897027    4955.4615            1 
  539000    2.0034446   -4.8421956    4927.6291       -1e+20 
  540000    2.0255425   -4.7830023    4919.2146            1 
  541000    2.0105764   -4.7670212     4935.246            1 
  542000    1.9834513   -4.8748134    4902.8258            1 
  543000    1.9642704   -4.7979066    4938.7765            1 
  544000    1.9987095   -4.7313389    4913.4081       -1e+20 
  545000    1.9755447   -4.7399268    4920.4792            1 
  546000    2.0248719   -4.7840883    4965.2761            1 
  547000    1.9946419   -4.7579325    4923.7573            1 
  548000    1.9743764   -4.8128666    4935.8889            1 
  549000    2.0045728   -4.8518593    4910.8734            1 
  550000    2.0231481   -4.7652511    4933.3502            1 
  551000    1.9529839   -4.7980626    4920.2816            1 
  552000    2.0180913   -4.8355142    4903.9712            1 
  553000    1.9724685   -4.7727621    4903.0251       -1e+20 
  554000    1.9635874   -4.7828725    4931.0793            1 
  555000    1.9661378   -4.8241525    4931.2271            1 
  556000    2.0611475   -4.7871351    4910.8657            1 
  557000    1.9898333   -4.8434674    4890.7299            2 
  558000    1.9686995   -4.7857392    4884.8215            1 
  559000    2.0147879   -4.8182363    4907.3018            1 
  560000    2.0178106   -4.8234316    4919.2821            1 
  561000    2.0088552   -4.8047247    4924.2377            1 
  562000    2.0121128   -4.7566296    4932.3786            1 
  563000    2.0025739   -4.7928395    4948.9497            1 
  564000    1.9927687   -4.8117675    4921.7171            1 
  565000    1.9779908   -4.7716334    4932.4443            1 
  566000    2.0485209   -4.7567987    4945.5559       -1e+20 
  567000    2.0244722   -4.8127278    4885.9774            1 
  568000    1.9929576   -4.7952023    4944.7577            1 
  569000    1.9825958   -4.7824227    4887.8484            1 
  570000    1.9941393   -4.7944312    4930.3137            1 
  571000    2.0106167   -4.8176945    4921.6448       -1e+20 
  572000    1.9439297   -4.8116368    4918.0627            1 
  573000    1.9987365    -4.769503     4903.409            1 
  574000    1.9688233   -4.7860075    4935.9622            1 
  575000    2.0161747    -4.817882    4915.8524            1 
  576000    1.9487441   -4.7971593    4929.3786            1 
  577000    2.0342129   -4.8338088    4927.1173            1 
  578000    1.9867985   -4.8127318    4917.5288            1 
  579000    2.0216719   -4.7243659    4928.7776       -1e+20 
  580000    2.0413669    -4.784546     4916.494            1 
  581000    2.0532769   -4.8052194    4910.2848            1 
  582000    1.9524583    -4.770665    4932.0142            1 
  583000    2.0279081    -4.852904    4913.8467            3 
  584000    1.9737701   -4.8211473    4899.5607            1 
  585000    1.9993227   -4.7368838     4955.382            1 
  586000    1.9976648   -4.8512519    4900.2751       -1e+20 
  587000    1.9681914   -4.8237479    4901.2747            1 
  588000    1.9698419   -4.8093401    4916.9691            1 
  589000    2.0142258   -4.7849814    4908.9319            2 
  590000    2.0009157   -4.8451965    4894.7555            1 
  591000    2.0309823   -4.7701305    4945.4675            2 
  592000    2.0001712   -4.7950972    4915.4055            1 
  593000    2.0066859   -4.7836429    4936.1447            1 
  594000    1.9771444   -4.7543682    4957.2885            1 
  595000    1.9810317   -4.7942214    4934.0743            1 
  596000    2.0071494   -4.8176686     4908.581            2 
  597000    2.0150176   -4.7555206     4945.972            1 
  598000    1.9776728   -4.7911791    4921.5334            1 
  599000    1.9868766   -4.7689297    4927.1937            2 
  600000    1.9746004   -4.8356758     4873.967            1 
  601000    1.9603709   -4.7741836    4921.3686            1 
  602000    2.0132017   -4.7935387    4931.5114            1 
  603000    2.0546503   -4.7847356    4914.0694            1 
  604000     2.017925   -4.7944635    4917.5786       -1e+20 
  605000    2.0558452    -4.803195    4895.7075            2 
  606000     1.972966   -4.7862846    4933.3802            1 
  607000    2.0023169   -4.7758781    4953.4888            1 
  608000    2.0050524   -4.8201682    4921.4988            1 
  609000    1.9923339   -4.8262711    4916.6336            1 
  610000    2.0059621   -4.8000504    4916.5025            1 
  611000      1.98673   -4.8281246    4914.6984            1 
  612000    1.9820806   -4.8153985    4963.2142            1 
  613000    2.0376501   -4.8443019    4911.8103            1 
  614000    2.0500264   -4.7584065    4936.1682            1 
  615000    1.9977484   -4.8437081    4892.0134            1 
  616000    2.0306943   -4.8038041    4913.5208            1 
  617000    1.9906105   -4.7927801    4909.3358            3 
  618000    2.0179195   -4.7402177    4927.6153            2 
  619000    2.0097492    -4.806067    4914.8286            1 
  620000    2.0306893     -4.82247    4931.7122            1 
  621000    1.9960587   -4.7896864    4913.2842            1 
  622000    2.0026413   -4.7969974    4931.6687            2 
  623000    1.9793202   -4.8066087    4916.9737            1 
  624000    1.9397408   -4.8111393    4911.9448            1 
  625000    2.0277562   -4.8153219    4880.2632            1 
  626000    2.0311206   -4.7733907    4938.8405            1 
  627000    2.0583366   -4.7826942    4915.0759            1 
  628000    1.9453723   -4.8204123    4900.6416            1 
  629000     1.987578     -4.78757    4921.0692            3 
  630000     2.011413   -4.7772728    4920.0771            1 
  631000    2.0089482   -4.7969155    4946.5344            2 
  632000    1.9597471   -4.8029486    4947.2598            2 
  633000    1.9784289   -4.8131166    4900.0272       -1e+20 
  634000    2.0287697   -4.7702841     4930.297       -1e+20 
  635000    2.0112108   -4.7798861    4926.0874       -1e+20 
  636000     1.978584   -4.7613701    4916.2582            1 
  637000    1.9689112   -4.8471471    4907.9268            1 
  638000    2.0621666   -4.7787927    4951.8179            1 
  639000    1.9948119   -4.7736614    4942.1383            1 
  640000     2.008622   -4.7743442    4916.0331            1 
  641000    1.9916648   -4.7971042    4935.7479            1 
  642000      1.98641   -4.7677992     4936.394            1 
  643000    2.0003662   -4.8516816    4912.7895            1 
  644000    2.0394246   -4.8022398    4892.6584            1 
  645000    1.9516839    -4.794111    4923.3939            1 
  646000    1.9892208   -4.7913793    4921.9835            1 
  647000    2.0073891   -4.7897314    4934.0551            1 
  648000    1.9918581   -4.7946951    4932.7517            1 
  649000    1.9637073   -4.8065153    4916.7224       -1e+20 
  650000     1.998306   -4.8338836    4879.8068       -1e+20 
  651000    2.0319407   -4.7898361    4942.4418       -1e+20 
  652000    1.9596487   -4.7860744    4921.5119            1 
  653000    2.0125873   -4.8107009    4930.7805            1 
  654000    2.0271869   -4.7425633    4925.3495       -1e+20 
  655000     1.963123   -4.7557311    4951.2277            1 
  656000    1.9720876   -4.8036026    4930.4991            1 
  657000    1.9895841   -4.7499474    4929.4887            2 
  658000    1.9949536   -4.8297608    4903.6349            1 
  659000    1.9753422   -4.7739716    4934.1939            1 
  660000    2.0042002   -4.8473688    4920.8019            1 
  661000    2.0118497   -4.8197157    4911.0662            1 
  662000    2.0025318   -4.7971577    4915.1905            1 
  663000     2.015787    -4.829388     4924.239            1 
  664000    2.0200664   -4.8126671    4916.8618            1 
  665000    2.0185827   -4.8161385    4910.2379            1 
  666000     1.951081   -4.7867234    4884.2901            1 
  667000    2.0090969   -4.8089385     4911.218            1 
  668000    2.0188541   -4.7684918    4932.7891            1 
  669000    1.9828966    -4.824679     4936.378            1 
  670000    1.9663163   -4.8054371    4931.5551       -1e+20 
  671000    1.9881261   -4.7922255    4924.5389            1 
  672000    1.9927557   -4.7770559    4931.4282            1 
  673000    1.9684604   -4.8041506    4918.0807            1 
  674000    1.9788748   -4.7993325    4955.8352            2 
  675000    2.0080362   -4.7612341    4931.7228       -1e+20 
  676000     2.039327   -4.7761895    4947.7571            1 
  677000    2.0014383   -4.7657836    4895.9747            1 
  678000    1.9727301   -4.7867226    4940.2638            1 
  679000    2.0032018   -4.7933937    4919.1077            1 
  680000    1.9800613   -4.8374316    4893.6923       -1e+20 
  681000    2.0093341   -4.8378086    4923.4783            1 
  682000     2.024874    -4.809998    4981.5036            1 
  683000    1.9914851   -4.7540302    4921.2838            1 
  684000    2.0532192   -4.7438135    4934.0873            1 
  685000    1.9895887   -4.7881738    4932.1276            1 
  686000    2.0169736   -4.7594907    4925.8493            1 
  687000    2.0496599   -4.8345319    4932.6423            1 
  688000    1.9799202   -4.8192205    4965.9386            1 
  689000    2.0281948   -4.7872124    4921.5978            1 
  690000    1.9943381   -4.8054026    4930.7513            2 
  691000    2.0541611   -4.8119133    4929.8583            1 
  692000    1.9629004   -4.7950371    4908.3728            1 
  693000    1.9991149   -4.8065667    4929.8995            1 
  694000    2.0538697   -4.8099125    4920.3279            1 
  695000    1.9929701    -4.850436    4901.9555            1 
  696000    1.9816504   -4.8309789     4906.922            2 
  697000    2.0209755    -4.765136    4908.5241            1 
  698000    1.9889981   -4.8139808    4920.2463            1 
  699000    1.9922618   -4.7912044     4884.303            1 
  700000    1.9824643   -4.7271575    4938.2198            1 
  701000    1.9734588   -4.8594605    4901.1621            3 
  702000    1.9742407   -4.8173864    4926.3262            1 
  703000    1.9547134   -4.7610061    4941.8824            1 
  704000    1.9904953   -4.8018673    4905.9494            2 
  705000    2.0323387   -4.8184652    4892.9032            1 
  706000     2.036815   -4.8078883    4926.2138            1 
  707000    1.9513131   -4.8360872    4906.9331            1 
  708000     2.014949   -4.8204921    4899.9941            1 
  709000    1.9912603    -4.813655    4887.5201            2 
  710000    1.9782037   -4.8171292    4917.1393            2 
  711000    1.9840409   -4.7787752    4927.4806            1 
  712000    2.0087934   -4.8252265    4914.0822            1 
  713000    1.9868633   -4.8126911    4918.4995            1 
  714000    2.0096267   -4.8467091     4904.338            1 
  715000    1.9880805   -4.7815778    4913.7504            1 
  716000     2.024405   -4.8632339    4895.3183            1 
  717000    2.0002356   -4.8546083    4919.6019            1 
  718000    2.0229066   -4.8032367    4959.1714            1 
  719000    2.0051398   -4.7506864    4907.7656            1 
  720000    2.0354464   -4.7851211    4944.5522            1 
  721000    2.0016146   -4.8055302    4913.0743            1 
  722000    1.9801313   -4.7711837     4932.858            1 
  723000    2.0172182   -4.7811341    4899.7627            1 
  724000    1.9990999   -4.8065303    4943.4466            1 
  725000    1.9661922    -4.814118    4950.6023            3 
  726000    2.0237486   -4.8212013    4901.3046            1 
  727000    1.9999204   -4.8217755    4902.5894            1 
  728000     1.989233    -4.823287    4885.6928            1 
  729000    1.9988346   -4.8584304    4900.4072            1 
  730000    1.9803167   -4.8106986    4888.6468            2 
  731000    1.9812833   -4.7576963    4899.9764            1 
  732000    2.0241164   -4.8143658     4903.732            2 
  733000    1.9541517   -4.8081983    4901.6858       -1e+20 
  734000    1.9855601   -4.7571197    4953.9134       -1e+20 
  735000    2.0435192   -4.8246933     4913.588       -1e+20 
  736000      2.00984   -4.7724056    4921.9322            2 
  737000    2.0402096   -4.8409208    4919.7238            1 
  738000    2.0367142   -4.7919329    4925.0453            1 
  739000    1.9543103    -4.827005    4904.7012            2 
  740000    1.9545865   -4.7440043    4948.6111            1 
  741000    1.9718906   -4.8172317    4897.8451            1 
  742000    1.9892201    -4.810671    4919.7646            1 
  743000    1.9824823   -4.7925738    4943.3128            1 
  744000     1.998948     -4.81003    4936.8098            1 
  745000    2.0017898   -4.8493405    4911.3714            2 
  746000    1.9987266   -4.7669157    4939.8946       -1e+20 
  747000    1.9985456   -4.7839393    4915.0982            1 
  748000    1.9438196   -4.7896492    4938.6679            1 
  749000     1.981324   -4.8023984    4929.0235       -1e+20 
  750000    2.0238308   -4.7695583    4902.0463            1 
  751000    1.9858513   -4.7953241     4923.032            1 
  752000     1.999325   -4.7577196    4945.1069            1 
  753000    2.0077508   -4.8022393    4919.4304            1 
  754000    2.0226397   -4.7998256    4964.9069       -1e+20 
  755000    2.0101607   -4.8101481    4892.2356            1 
  756000    1.9507109   -4.7814481    4917.8712            1 
  757000    1.9858506   -4.7981702    4927.2182            1 
  758000    2.0008501   -4.8288178    4932.7007            1 
  759000    1.9940016   -4.8031949    4924.0368            1 
  760000    2.0017106   -4.8559262    4897.6924            1 
  761000    1.9855347    -4.829844    4900.9842       -1e+20 
  762000    1.9520124   -4.8018449    4884.8636            2 
  763000     1.976452   -4.8027348    4931.5079            1 
  764000    2.0067189   -4.7650628    4930.9795            1 
  765000    1.9887439   -4.8008154    4954.1395       -1e+20 
  766000    2.0136806   -4.7440215    4930.8258            2 
  767000    2.0226511   -4.8127733    4906.4463            2 
  768000    2.0292088     -4.79287    4930.3726       -1e+20 
  769000    2.0133152   -4.7667913    4925.3409            1 
  770000    2.0436998   -4.8077029    4908.6067            1 
  771000    2.0027522   -4.7835027    4960.8485            3 
  772000    2.0055728   -4.7937493    4908.7451            2 
  773000    1.9997559   -4.7027584    4924.4125            2 
  774000    1.9904887   -4.8143603    4880.9353            1 
  775000    2.0058933    -4.809199    4915.1799            1 
  776000    1.9940267   -4.7432971    4935.5579            1 
  777000    1.9714758    -4.762178    4949.7603            2 
  778000    2.0587123   -4.7956065    4934.7479            2 
  779000    2.0216692   -4.7919157    4904.8176            1 
  780000    1.9864239    -4.711877    4953.6674            1 
  781000    1.9988126   -4.7687049     4902.907            1 
  782000    1.9771269   -4.7846904    4942.4872            1 
  783000    2.0087804   -4.7383876    4933.7434            1 
  784000    2.0061583   -4.7309151    4936.8925            2 
  785000    2.0324913   -4.7949397    4876.6219            2 
  786000    1.9549633   -4.7427314    4966.6018            1 
  787000    2.0054782   -4.7785615    4927.9661            1 
  788000    1.9886657   -4.7511284    4929.9412            3 
  789000    2.0440723   -4.7866518    4937.8176            1 
  790000    2.0009112   -4.8061094    4890.5184            1 
  791000    1.9988297   -4.7625215    4911.5171            1 
  792000    1.9886076   -4.8516808    4906.8482            1 
  793000    1.9732801   -4.7835123    4928.0383            1 
  794000    2.0020818   -4.7990521    4949.7341            1 
  795000     2.003675    -4.786486    4922.3309            1 
  796000    2.0122015   -4.7686429     4948.417            1 
  797000    1.9780788   -4.7838448     4934.343            1 
  798000     1.979168   -4.7941942    4919.4925            1 
  799000    2.0031487   -4.7609152    4909.4741            1 
  800000    1.9872046    -4.817504    4940.1757            2 
  801000     1.970599   -4.8003897    4901.9522            1 
  802000    1.9550416   -4.7736715    4956.1891       -1e+20 
  803000    2.0024046   -4.8089353    4912.3361            1 
  804000    1.9910942   -4.8210932    4877.2989       -1e+20 
  805000    1.9932031    -4.829914    4919.9349       -1e+20 
  806000    1.9727657   -4.8148339     4919.489            1 
  807000    2.0114919   -4.7695868    4918.2184            1 
  808000    2.0272436   -4.8125856    4972.7764            2 
  809000    1.9545248   -4.7760293    4921.3169            1 
  810000    2.0422678   -4.8003052    4932.5843       -1e+20 
  811000    1.9758745   -4.8338102    4926.4245            1 
  812000    1.9475225   -4.7432762    4956.0474            1 
  813000    2.0011825   -4.8620529    4907.7062            1 
  814000    1.9747381   -4.7654383    4940.3579       -1e+20 
  815000    1.9898499   -4.7722083     4946.363            1 
  816000    1.9862724   -4.8855264     4897.248            1 
  817000    1.9896349    -4.813987    4917.3681            1 
  818000      2.00534   -4.8272868    4908.1952            1 
  819000    2.0059211   -4.7690874    4905.5376       -1e+20 
  820000    1.9822084   -4.7876661    4897.5513            1 
  821000    2.0020336   -4.8180701    4903.5009            1 
  822000    1.9825856   -4.7663507    4917.2851       -1e+20 
  823000    2.0096328   -4.8492575    4911.1961       -1e+20 
  824000    2.0137621   -4.7420598    4955.4001            2 
  825000    2.0548557   -4.8088651     4880.426            1 
  826000    2.0112083   -4.7758535    4945.5272            1 
  827000     2.004674   -4.7545687    4949.7703            1 
  828000     1.973985   -4.8007307    4914.7434            1 
  829000    1.9934167   -4.8176357    4854.1766            1 
  830000    1.9911824   -4.7916702     4934.403            1 
  831000    2.0070481   -4.7937452    4890.1414            1 
  832000    2.0090325   -4.8159723    4954.9832            1 
  833000    2.0062102   -4.7799667    4929.1245            1 
  834000    2.0229216   -4.7696936    4933.7286       -1e+20 
  835000    1.9736389      -4.8072    4935.5548       -1e+20 
  836000    2.0361747    -4.769917    4929.1561            1 
  837000    2.0320668   -4.8110943    4917.9777            2 
  838000    1.9893862    -4.776637    4931.5524            1 
  839000    2.0266952   -4.7807629    4932.6832       -1e+20 
  840000    2.0079608    -4.757203    4925.9908            3 
  841000    2.0409865   -4.7965899    4951.7902            1 
  842000    2.0315971   -4.8301098    4899.3032            2 
  843000    1.9949557   -4.8152026     4895.617            1 
  844000    1.9805445   -4.7597061     4926.007            1 
  845000    2.0174174   -4.8107934     4919.192            2 
  846000    1.9768918   -4.7907526    4887.6473            1 
  847000    2.0170092   -4.8252302    4920.8312            2 
  848000    2.0748692   -4.7618477    4883.5509            1 
  849000    1.9915624   -4.8121642     4929.338            4 
  850000    2.0306388   -4.8010611    4910.4434       -1e+20 
  851000    2.0050806   -4.7793642    4912.2982            1 
  852000     1.992043   -4.7879258    4946.3206            1 
  853000    2.0044203   -4.7923255    4912.5978            1 
  854000    2.0527412   -4.7683219    4916.0758       -1e+20 
  855000    1.9777975   -4.8256576    4919.1852            1 
  856000    1.9856656   -4.7298449    4952.6162            1 
  857000     2.017629   -4.7745559    4929.6905            1 
  858000    1.9964637   -4.8397331    4901.6384       -1e+20 
  859000    1.9923054   -4.7901763    4932.0522            1 
  860000    2.0355633    -4.741771     4929.592            1 
  861000    1.9904798   -4.8231252    4905.2332            2 
  862000    1.9921928    -4.841117    4914.7408       -1e+20 
  863000    2.0005471   -4.7820953    4946.8145            1 
  864000    2.0113861   -4.8215997    4894.2869            2 
  865000    2.0052632   -4.7777024    4929.8066            2 
  866000    2.0145101   -4.8861091    4934.3316            1 
  867000    1.9544248   -4.7769702     4951.263            1 
  868000     2.011384    -4.813495    4926.7093            1 
  869000     1.946586   -4.8181091    4914.4849            1 
  870000    1.9922677   -4.7795138    4918.6568       -1e+20 
  871000    2.0035394   -4.8212513    4911.0016            1 
  872000    1.9994159   -4.7747677    4933.3623            1 
  873000    1.9335137    -4.805874    4936.1261            1 
  874000    2.0361309   -4.8009269    4912.6669            1 
  875000    1.9759836   -4.8190938    4908.0509            1 
  876000     2.008231   -4.7871921    4935.1619            3 
  877000    2.0124362   -4.8155112    4933.4676            1 
  878000    2.0044396   -4.7942639    4945.6927            1 
  879000    1.9985967   -4.8109727    4903.8065            1 
  880000    2.0144396   -4.8129668    4907.5068       -1e+20 
  881000    2.0362996    -4.800105    4915.6977       -1e+20 
  882000    2.0161806   -4.8511375    4914.1586            1 
  883000    2.0183988   -4.8250487    4920.4045            1 
  884000    2.0136331   -4.8369456    4911.9065            2 
  885000    2.0085342   -4.7713831      4894.18            1 
  886000    2.0220723   -4.8254319    4917.8488            1 
  887000    1.9910936   -4.8017027    4890.8804            1 
  888000    2.0207953   -4.8360346     4901.782       -1e+20 
  889000    1.9998197   -4.8235503    4936.6527            1 
  890000    1.9516777   -4.7493301    4981.5018            1 
  891000    2.0104527   -4.7815869    4909.3608            1 
  892000    1.9738709   -4.8646431    4878.8127            2 
  893000    2.0114466   -4.7858442    4938.9897            1 
  894000    1.9898402   -4.7928491    4929.8082       -1e+20 
  895000    1.9337051   -4.7704786    4917.1051            1 
  896000    2.0236346   -4.8406189    4898.8297            1 
  897000    1.9554995   -4.8124435    4914.7079            1 
  898000    2.0162597   -4.7961296    4924.4126       -1e+20 
  899000    2.0272086   -4.8213293    4914.2765       -1e+20 
  900000     2.018474   -4.7909712    4929.1743            1 
  901000    1.9923999   -4.7355434    4903.8801            1 
  902000    2.0397167   -4.8116856    4937.6065            1 
  903000    2.0185955   -4.7474006    4930.6325            3 
  904000    2.0045765   -4.8045189    4912.9862            4 
  905000    1.9948008    -4.858609    4887.2636       -1e+20 
  906000    1.9958559   -4.8079205    4961.1308            1 
  907000    2.0042197    -4.787807    4903.3578            1 
  908000    1.9912231   -4.7702351    4880.6343            1 
  909000    2.0340133   -4.8107563    4938.5992       -1e+20 
  910000    2.0450758   -4.7861823    4918.8997            1 
  911000    2.0144812   -4.8305958    4907.5951            1 
  912000    2.0031034   -4.7952868    4945.6129            1 
  913000    2.0013506   -4.7911116    4922.4566            1 
  914000    2.0142365   -4.7855333    4921.4034            3 
  915000    2.0178893   -4.7957541    4884.9433            1 
  916000    1.9705784   -4.7817715    4905.5086            1 
  917000     1.988549   -4.7926902    4943.1404            1 
  918000    1.9892879   -4.7737967    4911.4986            2 
  919000    1.9553055   -4.7957346    4922.8333            1 
  920000    1.9941064   -4.7496335    4925.5656            3 
  921000     2.018328   -4.7771277    4947.5004            1 
  922000    1.9782345   -4.8004208    4927.2071            1 
  923000    1.9726696   -4.7873969    4930.5048       -1e+20 
  924000    1.9742546   -4.7673437    4947.5279            1 
  925000    2.0055149   -4.7824987     4927.901            1 
  926000     2.010204   -4.8168289    4916.7088            1 
  927000    2.0180655   -4.8258239    4906.0553            1 
  928000    2.0186699   -4.8032314    4947.0594            1 
  929000    2.0377683   -4.7900053    4900.0334            1 
  930000    1.9682101    -4.794208    4931.4146            1 
  931000    1.9753694   -4.8419715    4923.1539            1 
  932000    2.0376908   -4.7603233    4917.0548            1 
  933000    2.0289106   -4.8026979    4943.1303       -1e+20 
  934000    2.0279498   -4.7898441    4927.6683            1 
  935000    1.9994989   -4.7831406    4927.1286            1 
  936000    2.0247748   -4.7074223    4980.5276            1 
  937000     1.981608   -4.7744714     4933.417            1 
  938000    2.0493428   -4.7675024    4920.8047            2 
  939000    1.9688949   -4.7820369    4938.6894            1 
  940000    2.0483149   -4.8057586    4903.1298            1 
  941000    1.9724232   -4.7269035    4957.6302            1 
  942000    1.9981386   -4.8216347    4906.0659            1 
  943000    2.0226657   -4.7686343    4943.4818            1 
  944000    1.9646403   -4.8220631    4923.5959            1 
  945000    2.0209193    -4.806947    4895.5921            1 
  946000    2.0301481   -4.7833943    4928.4611       -1e+20 
  947000    2.0179943   -4.7716782    4925.4846            2 
  948000    2.0035466   -4.8324207      4923.85            1 
  949000    1.9538641   -4.8173008    4930.6738            1 
  950000    2.0087896   -4.8263825    4941.4783            1 
  951000     1.968819   -4.8069743    4931.1264            1 
  952000    1.9875197   -4.7845833    4919.1771            1 
  953000    2.0053309   -4.7970153    4906.4243       -1e+20 
  954000    1.9840325   -4.7725211    4958.1408       -1e+20 
  955000    1.9929455   -4.8291586    4910.6166            1 
  956000    2.0111051   -4.8370741    4902.8503            1 
  957000    2.0188184   -4.8141138    4905.5844            1 
  958000    1.9784726   -4.7851257    4895.9652            3 
  959000     2.008707   -4.7948795    4879.5146            1 
  960000    2.0189675    -4.780013    4924.8984            1 
  961000    2.0185623   -4.7462863      4910.14            2 
  962000    2.0252599   -4.7779503    4937.5476            1 
  963000    1.9955121   -4.8380694    4911.7619            1 
  964000     1.970215   -4.8149949    4917.7253            1 
  965000    1.9745797   -4.8332582    4937.5289       -1e+20 
  966000    1.9990312   -4.7893708    4931.3346            2 
  967000    2.0318891   -4.7854284    4882.8548            1 
  968000    1.9889118   -4.7901919    4915.0512            1 
  969000    1.9802378    -4.764695    4918.7806            1 
  970000    2.0265265   -4.7873286    4938.2267            1 
  971000    1.9928498    -4.778662      4929.74       -1e+20 
  972000     1.990901   -4.8433655    4891.6458            1 
  973000    1.9729332    -4.802331    4908.0929       -1e+20 
  974000     1.995146   -4.7904168    4933.8794            1 
  975000    2.0051102   -4.8285275    4916.4916            1 
  976000    2.0468132   -4.7784552    4921.0446            1 
  977000    2.0263684    -4.816542    4928.9976            1 
  978000    2.0250709   -4.7999083    4934.3085            1 
  979000    2.0105686   -4.8154498    4940.9504            1 
  980000    2.0274039   -4.7969876    4942.0787            1 
  981000    1.9916511   -4.8385362    4949.4572            2 
  982000     1.982982   -4.8132045    4922.3679            1 
  983000    1.9898191   -4.7434816    4909.6754       -1e+20 
  984000    1.9576425   -4.8359951    4926.5507       -1e+20 
  985000    2.0423552   -4.8319289    4899.4013            1 
  986000    1.9919318   -4.7409589    4941.0218            1 
  987000    1.9927292   -4.7946428    4917.7581            1 
  988000    2.0120428   -4.7671879    4919.9848            1 
  989000    2.0278886   -4.7830099    4981.5038            1 
  990000    2.0088153   -4.7520174    4932.5237            1 
  991000    1.9763504   -4.8062239    4894.6835            2 
  992000    2.0192434   -4.8154993     4919.845            1 
  993000    2.0076789   -4.7931798    4938.0106            1 
  994000    2.0203464   -4.7486743    4904.1015            1 
  995000    1.9889907   -4.8274642    4907.6321       -1e+20 
  996000     2.015154   -4.8341463     4911.862            1 
  997000    2.0066367   -4.8310493    4899.3803            2 
  998000    2.0234963    -4.836555    4891.0048            1 
  999000    1.9785639   -4.7787704    4948.5787            1 
 1000000      2.00974   -4.7886935    4930.2076            1 
 1001000    2.0188215   -4.7915792    4914.1304            1 
 1002000    1.9584648   -4.8054495    4937.0582            2 
 1003000    2.0196113   -4.8071214    4915.6259            1 
 1004000    2.0038344   -4.7988118    4924.8307            1 
Loop time of 1986.86 on 48 procs for 1000000 steps with 4000 atoms

Performance: 86971.340 tau/day, 503.306 timesteps/s
99.4% CPU use with 48 MPI tasks x no OpenMP threads

MPI task timing breakdown:
Section |  min time  |  avg time  |  max time  |%varavg| %total
---------------------------------------------------------------
Pair    | 106.36     | 110.67     | 116.71     |  28.0 |  5.57
Neigh   | 20.257     | 20.521     | 20.779     |   2.9 |  1.03
Comm    | 110.67     | 116.38     | 122.58     |  29.4 |  5.86
Output  | 1.1684     | 1.1691     | 1.1872     |   0.2 |  0.06
Modify  | 1720.3     | 1727.1     | 1733.8     |   6.7 | 86.92
Other   |            | 11.07      |            |       |  0.56

Nlocal:        83.3333 ave          93 max          78 min
Histogram: 7 7 8 2 11 3 7 1 1 1
Nghost:        1432.52 ave        1460 max        1409 min
Histogram: 2 2 4 11 12 6 3 6 1 1
Neighs:        7723.04 ave        8653 max        7039 min
Histogram: 6 3 6 8 6 8 4 3 3 1
FullNghs:      15446.7 ave       17446 max       14167 min
Histogram: 5 6 9 5 6 8 5 2 1 1

Total # of neighbors = 741442
Ave neighs/atom = 185.36050
Neighbor list builds = 83484
Dangerous builds = 3020

#clear
#
#next RN
#
#jump SELF
Total wall time: 0:33:08
