
units lj                  # Use reduced LJ style units
atom_style atomic         # Uncharged point particles
atom_modify map hash      # Needed for indexing of clusters etc
                          # Used to be able to find where atoms are in relation to each other.

# Define a lattice with which to populate the simulation cell. With units
# set to 'lj' the second argument to the lattice command is the reduced
# density rho* and the spacings are multiples of that required to acheive
# that density. Also define a simulation cell called 'box' in lattice units
# and fill it with atoms. Here we're creating a box which is ten lattice
# constants in each direction.
lattice fcc 1.0 spacing 1 1 1                 # All equal sizes - gives the right reduced density.
Lattice spacing in x,y,z = 1.5874011 1.5874011 1.5874011

region box block 0 10 0 10 0 10 units lattice # Defines a region, "box", in lattice units
create_box 1 box                              # Creates a simulation box as specified above,
Created orthogonal box = (0.0000000 0.0000000 0.0000000) to (15.874011 15.874011 15.874011)
  2 by 2 by 5 MPI processor grid
                                              # with one type of atom
create_atoms 1 box                            # Creates particles on lattice points
Created 4000 atoms
  using lattice units in orthogonal box = (0.0000000 0.0000000 0.0000000) to (15.874011 15.874011 15.874011)
  create_atoms CPU = 0.001 seconds


# Set the mass of the first (and only) atom type.
mass 1 1.0

# Lennard-Jones interactions between particles, 3.5 sigma cut-off. Apply
# long range tail corrections to energy and pressure and set all coefficients
# to unity since we work in reduced units here. Note that this doesn't shift
# the potential such that it goes to zero at the cutoff. That would require
# pair_modify('shift', 'yes').
pair_style lj/cut  3.5      # non-GPU version
pair_modify tail  yes
pair_coeff 1  1  1.0  1.0   # Intearaction between 1 and 1 set with epsilon = 1 and sigma = 1

write_data data.*
System init for write_data ...
Neighbor list info ...
  update every 1 steps, delay 10 steps, check yes
  max neighbors/atom: 2000, page size: 100000
  master list distance cutoff = 3.8
  ghost atom cutoff = 3.8
  binsize = 1.9, bins = 9 9 9
  1 neighbor lists, perpetual/occasional/extra = 1 0 0
  (1) pair lj/cut, perpetual
      attributes: half, newton on
      pair build: half/bin/atomonly/newton
      stencil: half/bin/3d
      bin: standard

#############################
#   M E L T   S Y S T E M   #
#############################

velocity all create 2.4 5833274 mom yes dist gaussian # Assign velocities
                                                    # Temperature 2.4, random number seed, zero linear momentum
						                                                        # Gaussian distribution

timestep 0.002   # simulation timestep
thermo 100       # output thermodynamic data every 100 steps

# Define a fix  in this case with index 1 applied to all
# particles in the simulation. This fix is for simulations
# in the anisotropic NPT ensemble. Note that we use the MTK
# correction.
fix 1 all npt temp 2.4 2.4 0.1 iso 5.68 5.68 0.5 mtk yes tchain 5 pchain 5 # Use NPT ensemble
                                                                         # Set temperature and pressure and damping
                                                                         # Numbers of thermostats in chain and in barostat
run 1000         # run for 10000 steps
Per MPI rank memory allocation (min/avg/max) = 3.681 | 3.682 | 3.682 Mbytes
Step Temp E_pair E_mol TotEng Press Volume 
       0          2.4   -8.3859253            0   -4.7868253   -2.2405722         4000 
     100    1.2560543   -6.5166947            0   -4.6330842    5.4738617     4090.264 
     200    1.4620147   -6.2944328            0    -4.101959    6.0489469    4141.8953 
     300    1.5805517   -6.0148662            0   -3.6446313    5.8775706    4268.7287 
     400    1.6834669   -5.7107066            0   -3.1861375    5.9071358    4403.4982 
     500    1.7905016   -5.4263411            0   -2.7412601    5.8268731    4549.0839 
     600    1.8978346    -5.162881            0   -2.3168407    5.7228626    4703.0892 
     700    1.9845484    -4.865807            0   -1.8897287     6.002426    4840.6855 
     800    2.1384022    -4.696791            0   -1.4899895    5.9101296    4967.4306 
     900    2.2534752   -4.5516747            0    -1.172307    5.7523082    5085.8653 
    1000    2.3409821   -4.4247023            0  -0.91410702    5.7016656    5179.7126 
Loop time of 0.48247 on 20 procs for 1000 steps with 4000 atoms

Performance: 358156.645 tau/day, 2072.666 timesteps/s
99.7% CPU use with 20 MPI tasks x no OpenMP threads

MPI task timing breakdown:
Section |  min time  |  avg time  |  max time  |%varavg| %total
---------------------------------------------------------------
Pair    | 0.26235    | 0.28138    | 0.30042    |   2.0 | 58.32
Neigh   | 0.051214   | 0.053588   | 0.055828   |   0.6 | 11.11
Comm    | 0.10138    | 0.12029    | 0.13867    |   3.4 | 24.93
Output  | 0.00019797 | 0.0002048  | 0.00026442 |   0.0 |  0.04
Modify  | 0.021805   | 0.023688   | 0.026315   |   1.1 |  4.91
Other   |            | 0.003324   |            |       |  0.69

Nlocal:        200.000 ave         214 max         185 min
Histogram: 1 1 2 4 1 2 4 2 2 1
Nghost:        2060.35 ave        2080 max        2025 min
Histogram: 1 0 0 1 4 0 5 5 0 4
Neighs:        17663.0 ave       19553 max       16156 min
Histogram: 1 3 2 3 4 1 1 4 0 1

Total # of neighbors = 353260
Ave neighs/atom = 88.315000
Neighbor list builds = 87
Dangerous builds = 21

# Equilibrate just above the melting temperature to avoid step fn in T

fix 1 all npt temp 1.25 1.25 0.1 iso 5.68 5.68 0.5 mtk yes tchain 5 pchain 5
run 1000
Per MPI rank memory allocation (min/avg/max) = 3.682 | 3.683 | 3.683 Mbytes
Step Temp E_pair E_mol TotEng Press Volume 
    1000    2.3409821   -4.4247023            0  -0.91410702    5.7016656    5179.7126 
    1100    1.9394202   -4.6489983            0   -1.7405953    5.7043192    5010.4975 
    1200    1.7538302   -4.9709308            0   -2.3408432    5.7068483    4807.0107 
    1300    1.5722219   -5.1950829            0   -2.8373396    5.6802724    4673.3381 
    1400    1.4568845   -5.4057081            0   -3.2209276    5.5567683    4573.8845 
    1500    1.3503547   -5.5212706            0   -3.4962449    5.7302676    4490.7966 
    1600    1.3147643   -5.6482764            0   -3.6766229    5.6898925    4434.2315 
    1700    1.2716924   -5.7297408            0   -3.8226791    5.6958397    4391.1098 
    1800    1.2648862   -5.7893213            0   -3.8924664    5.8003465    4355.9343 
    1900    1.2354209   -5.8175189            0   -3.9648509     5.800932    4342.1233 
    2000    1.2349334    -5.850737            0      -3.9988    5.7262948    4335.4701 
Loop time of 0.472192 on 20 procs for 1000 steps with 4000 atoms

Performance: 365952.522 tau/day, 2117.781 timesteps/s
100.0% CPU use with 20 MPI tasks x no OpenMP threads

MPI task timing breakdown:
Section |  min time  |  avg time  |  max time  |%varavg| %total
---------------------------------------------------------------
Pair    | 0.25994    | 0.27845    | 0.29608    |   2.1 | 58.97
Neigh   | 0.043903   | 0.046609   | 0.04871    |   0.6 |  9.87
Comm    | 0.098633   | 0.11921    | 0.14205    |   3.5 | 25.25
Output  | 0.00019678 | 0.00020401 | 0.0002576  |   0.0 |  0.04
Modify  | 0.021902   | 0.023973   | 0.026631   |   1.0 |  5.08
Other   |            | 0.003749   |            |       |  0.79

Nlocal:        200.000 ave         208 max         193 min
Histogram: 3 2 2 0 3 2 4 1 0 3
Nghost:        2288.05 ave        2299 max        2264 min
Histogram: 1 0 0 2 0 3 2 3 5 4
Neighs:        21066.1 ave       22634 max       19412 min
Histogram: 1 2 3 1 3 1 2 4 2 1

Total # of neighbors = 421322
Ave neighs/atom = 105.33050
Neighbor list builds = 76
Dangerous builds = 7


# Small amount of linear quench

fix 1 all npt temp 1.25 ${temp} 0.1 iso 5.68 5.68 0.5 mtk yes tchain 5 pchain 5
fix 1 all npt temp 1.25 1.68 0.1 iso 5.68 5.68 0.5 mtk yes tchain 5 pchain 5
run 2000
Per MPI rank memory allocation (min/avg/max) = 3.683 | 3.683 | 3.684 Mbytes
Step Temp E_pair E_mol TotEng Press Volume 
    2000    1.2349334    -5.850737            0      -3.9988    5.7262948    4335.4701 
    2100    1.2672861   -5.8404166            0   -3.9399628    5.5728659     4353.143 
    2200    1.2739578   -5.8041244            0   -3.8936654    5.5941587    4366.6322 
    2300     1.306418   -5.7974321            0    -3.838295    5.4693707    4384.1598 
    2400    1.3014463   -5.7312279            0   -3.7795465    5.4986873    4410.9219 
    2500    1.3674229   -5.7209385            0   -3.6703168    5.7302278    4401.5221 
    2600    1.3889973   -5.6536327            0   -3.5706577    6.1303615    4397.6205 
    2700    1.4029562   -5.6427096            0   -3.5388014    5.7987549    4432.5237 
    2800    1.4237298   -5.6448276            0   -3.5097668    5.4953331    4460.5946 
    2900    1.4263437   -5.5829565            0   -3.4439759    5.6998072    4465.2715 
    3000    1.4554313   -5.5708718            0   -3.3882705    5.5654101    4488.8804 
    3100    1.4675854   -5.5197676            0   -3.3189398    5.6911259    4501.8754 
    3200    1.4852448   -5.4758372            0   -3.2485269    5.5740273     4536.524 
    3300    1.5257874   -5.4472809            0    -3.159172    5.6703961    4540.4046 
    3400    1.5467864   -5.4133526            0   -3.0937529    5.7918038    4547.7285 
    3500    1.5606095   -5.4018165            0   -3.0614874     5.686063    4562.9121 
    3600    1.5710866   -5.3798799            0   -3.0238391    5.4720523    4598.9602 
    3700    1.5936915   -5.3424198            0   -2.9524802    5.4048322    4624.0222 
    3800    1.6526276   -5.3310197            0    -2.852698    5.6368113    4608.0571 
    3900    1.6256253   -5.2796388            0   -2.8418104    5.5856298    4637.5494 
    4000    1.6780147   -5.2713185            0   -2.7549257    5.6114791    4638.6409 
Loop time of 0.939928 on 20 procs for 2000 steps with 4000 atoms

Performance: 367687.880 tau/day, 2127.823 timesteps/s
100.0% CPU use with 20 MPI tasks x no OpenMP threads

MPI task timing breakdown:
Section |  min time  |  avg time  |  max time  |%varavg| %total
---------------------------------------------------------------
Pair    | 0.5277     | 0.56537    | 0.6006     |   2.6 | 60.15
Neigh   | 0.085179   | 0.088927   | 0.094764   |   0.7 |  9.46
Comm    | 0.19227    | 0.2303     | 0.26385    |   4.2 | 24.50
Output  | 0.00039393 | 0.00040543 | 0.00050442 |   0.0 |  0.04
Modify  | 0.041405   | 0.047253   | 0.053489   |   1.8 |  5.03
Other   |            | 0.00767    |            |       |  0.82

Nlocal:        200.000 ave         211 max         191 min
Histogram: 1 0 2 5 3 5 2 1 0 1
Nghost:        2195.20 ave        2206 max        2176 min
Histogram: 1 0 0 2 3 3 1 3 4 3
Neighs:        19696.2 ave       21438 max       18220 min
Histogram: 2 2 1 3 4 3 1 0 3 1

Total # of neighbors = 393925
Ave neighs/atom = 98.481250
Neighbor list builds = 143
Dangerous builds = 0

#############################
# F R E E Z E  S Y S T E M  #
#############################

# Define solid atoms. This closely follows ten Wolde  Ruiz-Montero and Frenkel  Faraday Discuss  1996  104  93-110
# Compute components of the per-atom q6 vector
compute q6 all orientorder/atom degrees 1 6 components 6 nnn NULL cutoff 1.3 # compute the Q6 parameter.
                                                                             # Use all neighbours within 1.3 unit cell.

# get number of connections
compute coord_number all coord/atom orientorder q6 0.5

# An atom is solid if it has 8 or more connections (of a possible 14)
variable is_solid atom c_coord_number>=8
group solid dynamic all var is_solid    # Must be dynamic to update
dynamic group solid defined

# do clustering
compute cluster solid cluster/atom 1.3 # Create a cluster where all atoms within are solid and max 1.3 units from another member

# define chunks one chunk per cluster
compute clus_chunks solid chunk/atom c_cluster nchunk every compress yes  # Says which atoms are in which chunk

# count the size of each chunk
compute size_chunks solid property/chunk clus_chunks count


# Find the maximum entry in the vector of chunk sizes
variable max_n equal max(c_size_chunks)


# Thermo style which includes this variable
thermo_style custom step temp pe vol v_max_n

thermo ${N}  # Print the thermo information every 100 steps
thermo 100  

# Reset the npt fix at a lower temperature (below freezing)
fix 1  all npt temp  ${temp} ${temp}  0.1  iso  5.68  5.68  0.5  mtk yes tchain  5  pchain  5
fix 1  all npt temp  1.68 ${temp}  0.1  iso  5.68  5.68  0.5  mtk yes tchain  5  pchain  5
fix 1  all npt temp  1.68 1.68  0.1  iso  5.68  5.68  0.5  mtk yes tchain  5  pchain  5

dump dmp2 all dcd ${N} traj_${rand}.dcd
dump dmp2 all dcd 100 traj_${rand}.dcd
dump dmp2 all dcd 100 traj_462431.dcd


# fix rnuntil all halt ${N} v_max_n >= 3980 error soft message no   # Stop when solidified


run 100000 # 5000000  # Run for this many steps
Neighbor list info ...
  update every 1 steps, delay 10 steps, check yes
  max neighbors/atom: 2000, page size: 100000
  master list distance cutoff = 3.8
  ghost atom cutoff = 3.8
  binsize = 1.9, bins = 9 9 9
  4 neighbor lists, perpetual/occasional/extra = 1 3 0
  (1) pair lj/cut, perpetual
      attributes: half, newton on
      pair build: half/bin/atomonly/newton
      stencil: half/bin/3d
      bin: standard
  (2) compute orientorder/atom, occasional
      attributes: full, newton on
      pair build: full/bin/atomonly
      stencil: full/bin/3d
      bin: standard
  (3) compute coord/atom, occasional
      attributes: full, newton on
      pair build: full/bin/atomonly
      stencil: full/bin/3d
      bin: standard
  (4) compute cluster/atom, occasional
      attributes: full, newton on
      pair build: full/bin/atomonly
      stencil: full/bin/3d
      bin: standard
Per MPI rank memory allocation (min/avg/max) = 9.493 | 9.498 | 9.501 Mbytes
Step Temp PotEng Volume v_max_n 
    4000    1.6780147   -5.2713185    4638.6409            2 
    4100    1.6676515   -5.2582281    4642.9939            1 
    4200    1.6861353   -5.2217374    4672.3319            1 
    4300    1.6991948   -5.1782528    4686.3101            1 
    4400    1.6658047    -5.201904     4671.482            1 
    4500     1.690151   -5.2366376    4678.7328            4 
    4600    1.6752063    -5.221392    4689.0989            1 
    4700    1.7059327   -5.1821548    4661.2331            1 
    4800    1.6583164   -5.1984417    4645.5182            2 
    4900    1.6717319   -5.2225434    4676.2876            2 
    5000    1.6967081     -5.20786    4702.2915            3 
    5100      1.68901   -5.2391978    4645.5397            2 
    5200    1.6766826   -5.2189505    4658.0405            1 
    5300    1.6617235    -5.175984    4693.5983            2 
    5400    1.6856384   -5.1897819    4687.9671            1 
    5500    1.6446256   -5.1874999    4667.9136            2 
    5600    1.6623217   -5.1642281     4678.776            2 
    5700    1.6966246   -5.2024648    4661.4633            1 
    5800    1.6683606   -5.2248823    4675.2644            1 
    5900    1.6735201    -5.189802    4692.0386            2 
    6000     1.683666   -5.2017181     4670.957            1 
    6100    1.6848451    -5.183704    4658.5496            1 
    6200    1.6972154   -5.1749789    4716.0955            2 
    6300    1.6803537   -5.1926464    4696.2587            1 
    6400    1.6838037   -5.1969919    4677.2552            1 
    6500    1.6815495   -5.2344288    4670.3221            3 
    6600    1.6722764   -5.2435564    4657.2321            1 
    6700    1.6973265   -5.2114571    4657.7633            2 
    6800    1.7008168   -5.1880593    4686.1744            2 
    6900    1.6952429   -5.1887097     4711.385            2 
    7000    1.6747422   -5.1993079    4664.0408            1 
    7100    1.6864312   -5.1570454    4683.2959            1 
    7200     1.713075   -5.2177164    4687.2494            2 
    7300    1.6614678   -5.2106206    4682.9096            2 
    7400    1.6968041   -5.1785439    4669.0084            1 
    7500    1.7102514   -5.1749498    4678.4904            2 
    7600    1.6709606   -5.2070811    4680.4787            1 
    7700    1.6665148   -5.2139824    4681.3971            2 
    7800    1.7156907   -5.2177823    4661.0921            2 
    7900    1.6611907   -5.2166061    4650.6499            2 
    8000     1.678501   -5.1926259    4695.2856            2 
    8100    1.6844244   -5.2149589     4679.772            2 
    8200    1.6787936   -5.2308517    4659.1222            2 
    8300    1.7100444    -5.195363    4667.8103            2 
    8400    1.6743122   -5.1911132    4690.8563            2 
    8500     1.659039    -5.203134    4678.6443            2 
    8600     1.693156   -5.2170599    4685.0294            1 
    8700    1.6388721   -5.1613695    4679.4784            1 
    8800    1.7017867   -5.2371743    4627.2485            2 
    8900    1.6362103   -5.2197567    4655.3135            2 
    9000    1.6933071   -5.2473448    4667.7063            1 
    9100      1.65589    -5.235193    4673.1852            1 
    9200    1.6617839   -5.1737531    4659.1847            1 
    9300     1.710177   -5.1790304    4671.8815            1 
    9400    1.6656117   -5.1921314     4683.868            1 
    9500    1.6923599   -5.2005472    4674.7984            1 
    9600     1.675318   -5.2372414    4663.5088            2 
    9700    1.6793423   -5.2147899     4684.221            1 
    9800    1.6864822   -5.2082767    4685.8042            2 
    9900    1.6746391   -5.2684733    4638.7799            1 
   10000    1.6697164    -5.241873    4670.5696            3 
   10100    1.6758978   -5.2487798    4674.9237            2 
   10200    1.6897203   -5.1726075    4674.2312            3 
   10300    1.6777114   -5.1810098    4680.0774            1 
   10400    1.6790243    -5.183635    4679.0093            4 
   10500    1.6510757   -5.2414168      4655.63            1 
   10600    1.6563782    -5.195531    4660.6997            1 
   10700     1.670286   -5.1609583     4684.615            2 
   10800    1.6960637   -5.1870689    4693.7757            2 
   10900    1.6689528    -5.206703    4651.5472            3 
   11000    1.6827273   -5.2018119    4677.6312            1 
   11100    1.6784562   -5.1899892    4697.5992            1 
   11200    1.6724646   -5.2242116    4659.8181            2 
   11300    1.6747265   -5.2447532    4658.4442            1 
   11400    1.7010337   -5.2159009    4659.3424            1 
   11500    1.6790991   -5.1869334    4684.0518            1 
   11600    1.6858995   -5.1698504    4685.1431            2 
   11700    1.6526449   -5.1727077    4680.0244            2 
   11800    1.7000795   -5.1906993    4655.9367            3 
   11900    1.6801873   -5.1941855    4665.1073            1 
   12000    1.6767085   -5.2325759    4692.3605            2 
   12100    1.6739931   -5.2293946    4653.3036            4 
   12200    1.7041774   -5.2043422    4646.8718            1 
   12300    1.6896311   -5.1549745    4698.7707            1 
   12400    1.6656293   -5.2078887    4673.5246            3 
   12500     1.686641   -5.2018226     4678.308       -1e+20 
   12600    1.6726267   -5.1957206    4675.2242            1 
   12700    1.6784981   -5.2024379     4659.016            1 
   12800     1.664264   -5.2011977    4665.0131            2 
   12900    1.6828272   -5.2251888    4655.7643            2 
   13000    1.6500679   -5.1933243    4687.6753            1 
   13100    1.7151327   -5.2157046    4665.1264            1 
   13200    1.6803786   -5.2123579    4657.7994            1 
   13300     1.669151   -5.2651527    4697.8096            1 
   13400    1.6904526   -5.2173127    4662.3574            1 
   13500    1.7183159   -5.1857264    4687.1681            3 
   13600    1.6676168   -5.1960207    4698.0007            1 
   13700    1.6914073   -5.1669175    4682.4601            1 
   13800    1.6873006   -5.2093227    4698.7538            1 
   13900    1.6514456   -5.2130986    4680.6682            2 
   14000    1.6796744   -5.1758765    4644.0814            1 
   14100    1.6815406   -5.1908681      4678.67            1 
   14200    1.6831062   -5.1817825    4703.9992            1 
   14300    1.6480604    -5.204475    4673.9584            1 
   14400    1.6935305   -5.2231444    4668.1123            1 
   14500    1.6959364   -5.2032809    4681.7019            1 
   14600    1.6409547   -5.1803737     4678.261            1 
   14700    1.6992059   -5.2211387     4662.258            1 
   14800    1.6675048    -5.208465    4678.4906            3 
   14900    1.6890483   -5.1704882    4719.9361            2 
   15000    1.6692008   -5.1633822     4692.842            1 
   15100    1.7124651   -5.1963153      4654.57            1 
   15200    1.6552349   -5.2206175    4685.6553            2 
   15300    1.6800648   -5.2335556    4687.0454            4 
   15400    1.6592625   -5.2447466    4636.2959            1 
   15500    1.6431995   -5.1920913    4649.7119            2 
   15600    1.6578481   -5.1665202    4667.7481            2 
   15700    1.7126742   -5.1490026    4681.5578            1 
   15800     1.664811   -5.1699891    4697.5032            1 
   15900    1.6951348   -5.2434588    4675.5074            2 
   16000    1.6755872   -5.1899554    4667.3315            1 
   16100     1.687523   -5.1874729    4684.2719            1 
   16200     1.682493   -5.2026138    4670.0425            3 
   16300    1.6984948   -5.1997185    4684.2785            1 
   16400    1.6881739   -5.1378445    4709.3866            1 
   16500    1.6748076   -5.1823592     4661.453            2 
   16600    1.6790005   -5.2252156    4677.1832            1 
   16700    1.6892959   -5.2329209    4668.9788            2 
   16800    1.6915381   -5.2489428    4649.7159            2 
   16900    1.6878108   -5.2275837    4670.4233            2 
   17000    1.6436243    -5.182601    4665.0318            1 
   17100    1.7039495   -5.2256759    4659.8958            1 
   17200    1.6684931    -5.215827     4683.628            1 
   17300    1.6902429   -5.1827131    4705.0881            1 
   17400    1.7004698   -5.1831926    4670.3823            2 
   17500    1.6999031    -5.215782    4672.5286            2 
   17600    1.6437054   -5.1652057    4695.0698            1 
   17700     1.684935   -5.1661387    4690.3002            2 
   17800     1.666395   -5.1827813    4645.0741            1 
   17900    1.6580324   -5.1896849    4672.5495            2 
   18000    1.6730688   -5.1824649    4672.6237            2 
   18100    1.6709264   -5.1902536    4655.9831            2 
   18200    1.6592894   -5.2201768    4663.0345            1 
   18300    1.6834956   -5.2044679    4674.4399            1 
   18400    1.6425911   -5.2182074    4655.7673            1 
   18500    1.6790884   -5.1951294    4664.9407            2 
   18600     1.686318   -5.1707964    4688.5259            3 
   18700    1.6802845   -5.2093279    4671.6393            2 
   18800    1.6759024   -5.2404233    4665.4898            1 
   18900    1.6510153   -5.2186135     4645.257            1 
   19000     1.687891   -5.2111877    4648.7252            3 
   19100    1.6830004   -5.2076701    4677.9028            2 
   19200    1.6519183   -5.2172723    4679.4166            1 
   19300    1.6831233   -5.2126691    4649.8342            1 
   19400    1.6696743   -5.1746277    4660.8909            1 
   19500    1.6819394   -5.2025559    4660.4581            2 
   19600    1.6467943   -5.2202295    4657.4445            1 
   19700    1.7050794   -5.2367126    4681.7308            1 
   19800    1.6702258   -5.1946085    4674.3816            1 
   19900    1.7099228    -5.159194    4692.4529            2 
   20000    1.6510749   -5.1459107    4679.2745            2 
   20100    1.6841419   -5.1634215    4689.3578            1 
   20200    1.6864379   -5.1575496    4699.2358            1 
   20300     1.672806   -5.1923811    4645.5286            2 
   20400    1.6895851   -5.2231575    4657.2301            2 
   20500     1.682339   -5.2017807     4699.335            4 
   20600    1.6903329   -5.2204825    4682.6913            1 
   20700    1.6840465   -5.2540683    4648.6806       -1e+20 
   20800     1.694482   -5.2133327    4685.5761            1 
   20900    1.6748396   -5.2073028    4662.1014            2 
   21000    1.6958624   -5.2283885    4673.8174            1 
   21100    1.6756527   -5.2200053    4665.4617            1 
   21200    1.6896319   -5.2194348    4678.6781            1 
   21300    1.6516292   -5.1451289    4682.1253            1 
   21400    1.6940651   -5.1899132    4677.6935            1 
   21500     1.652524   -5.2136792    4672.1886            1 
   21600     1.715596   -5.2544398    4650.5777            1 
   21700      1.64437   -5.2131624    4637.9099            2 
   21800    1.6745722   -5.1874408     4664.718            1 
   21900    1.6469854    -5.217261    4692.0025       -1e+20 
   22000    1.7298261   -5.2059296    4661.3601            1 
   22100    1.6712979    -5.192795    4654.8919            3 
   22200    1.6665983   -5.2108045    4683.6505            2 
   22300    1.6816093   -5.2008727    4697.1435            3 
   22400    1.6983316   -5.1639555    4677.3137            3 
   22500    1.6941593   -5.2355037    4686.6594            1 
   22600    1.6873085   -5.1601066    4694.7722            1 
   22700    1.7018009   -5.1780425    4687.3283            3 
   22800    1.6904071   -5.2463905    4678.0254            1 
   22900    1.6627604   -5.2018384    4666.5318            2 
   23000    1.7157553   -5.2001013     4666.368            2 
   23100    1.6685818   -5.2117115    4665.2057            3 
   23200    1.6435471   -5.2238477    4673.1439            1 
   23300    1.7265608   -5.2217542    4653.1413            2 
   23400    1.6747335   -5.1865348    4649.0437            2 
   23500    1.6707238   -5.2200746    4674.1117            1 
   23600     1.680101   -5.2049191     4687.665            2 
   23700    1.6932243   -5.1631995     4664.219            2 
   23800    1.6596686   -5.1887825    4689.6795            5 
   23900    1.6598633   -5.2032148    4672.0859            1 
   24000    1.7021155   -5.1669061    4671.0166            2 
   24100    1.7296458    -5.193444    4690.6919            2 
   24200    1.6760365   -5.1980214    4672.9305            1 
   24300    1.7205539   -5.2153527    4676.8671            3 
   24400    1.6796592   -5.1806461    4718.4669            1 
   24500    1.6973492   -5.1810951    4675.5482            1 
   24600    1.6991713   -5.2356378    4651.5707            2 
   24700    1.6476932   -5.2108348     4675.789            1 
   24800    1.6802164   -5.1840669     4678.631            3 
   24900    1.6766372   -5.1500475    4682.1363            1 
   25000    1.6949266   -5.1750776     4708.449            2 
   25100    1.6764881    -5.203991    4667.0114            3 
   25200    1.6714053   -5.2151685    4678.9851            1 
   25300    1.6970821   -5.2037501    4679.8769            2 
   25400    1.6427414   -5.1894685    4659.8372            1 
   25500    1.6747891   -5.2425258    4652.8284            1 
   25600    1.6995379   -5.2308534    4673.9987            2 
   25700    1.6757381   -5.2266238    4685.7607            2 
   25800    1.6999509   -5.1864013    4681.3417            1 
   25900    1.7246032   -5.1657636    4688.2813            1 
   26000    1.6809894   -5.2094009    4707.6709            2 
   26100    1.6472306   -5.2107848     4674.469            1 
   26200      1.68281     -5.19485    4646.2601            1 
   26300    1.7043428   -5.1509746     4684.506            1 
   26400    1.6855356   -5.1979543    4681.0723            1 
   26500    1.6724902   -5.2064236    4685.2272            2 
   26600    1.7197023    -5.222318    4684.4142       -1e+20 
   26700    1.6581616    -5.174618    4654.6541            1 
   26800    1.6485479   -5.2340704     4656.854            3 
   26900    1.6868503   -5.2314587    4675.7783            1 
   27000    1.6880104   -5.1815849    4679.4524            1 
   27100    1.7060362   -5.1688345    4689.8476            2 
   27200    1.6631159   -5.1871981    4678.5898            2 
   27300    1.6838997   -5.1743723    4670.4627            1 
   27400    1.6571601   -5.2242653    4670.4408            1 
   27500    1.6927721   -5.1947786    4704.9561            1 
   27600    1.6968308   -5.2206291    4689.2626            1 
   27700    1.6742171   -5.2141006    4648.2366            1 
   27800    1.6823952   -5.2430022    4661.9573            1 
   27900    1.6646096    -5.198237    4665.1031            1 
   28000    1.6905706   -5.2065096    4661.1624            1 
   28100    1.6759797   -5.1852648     4705.195            1 
   28200    1.6853445   -5.1920593    4694.0522            1 
   28300    1.6690885   -5.1836135    4673.0559            1 
   28400    1.7058175   -5.1811614    4666.8424            1 
   28500    1.6409586    -5.206599     4696.876            1 
   28600    1.6896994   -5.2119877    4673.8188            1 
   28700    1.7032138   -5.1930077     4672.197            1 
   28800    1.6637522   -5.1765675    4692.7775            1 
   28900    1.6729086   -5.1974057    4665.1193            4 
   29000    1.7005989   -5.1934424    4686.9212            1 
   29100    1.7047097   -5.2066923    4678.5316            2 
   29200    1.7035052   -5.2393252    4668.6066            4 
   29300    1.6589106   -5.2367047    4674.0105            1 
   29400    1.6866608   -5.2060617    4703.6661            1 
   29500    1.7082456   -5.1981248       4687.1            2 
   29600    1.6507651   -5.1626265    4678.6815            2 
   29700    1.6826912   -5.2134582    4669.3114            1 
   29800    1.6487697   -5.1910207    4657.8703            3 
   29900    1.6836214   -5.1960316    4673.9625            1 
   30000    1.6950484   -5.1941124    4672.5729            1 
   30100    1.6653635   -5.2104207    4655.7025            1 
   30200    1.6760495   -5.2534159    4656.6417            4 
   30300    1.6621821   -5.2531213    4641.4915            2 
   30400    1.6887702    -5.224871    4675.6684            2 
   30500    1.6804782   -5.2127238    4692.3204            2 
   30600    1.6932317    -5.160715    4677.8828            3 
   30700    1.6905116   -5.1732929    4674.2254            3 
   30800    1.6609412   -5.2394293    4683.9099            5 
   30900    1.6754139   -5.2402277    4665.9625            1 
   31000    1.7214091   -5.2321692    4618.7985            2 
   31100    1.6572435   -5.2473701    4690.6142            1 
   31200     1.683236   -5.2009971    4682.3067       -1e+20 
   31300    1.6768596   -5.1551347    4670.3975            1 
   31400    1.6604871   -5.2043129    4670.0926            1 
   31500     1.711301   -5.1867778    4696.8795            2 
   31600    1.7079584   -5.2180497    4642.4823            3 
   31700    1.6665099   -5.2428931    4662.4309            3 
   31800    1.6767295   -5.2044136    4665.9866            3 
   31900     1.694994   -5.2117508    4674.6875            3 
   32000    1.6764275   -5.2005354    4688.1962            1 
   32100      1.70912   -5.1939254     4681.202            1 
   32200    1.6442772   -5.1761288    4684.3224            1 
   32300     1.686082    -5.182484    4663.0448            1 
   32400    1.6568838   -5.2325701    4660.1949            1 
   32500    1.6543745   -5.2866672    4639.8804            2 
   32600    1.7058092   -5.2724831    4648.7411            1 
   32700    1.6753628   -5.1739327    4664.7433            2 
   32800    1.6762648   -5.2009025    4691.0383            1 
   32900    1.6741709   -5.2332459    4665.2883            1 
   33000    1.6545832   -5.1882446    4663.8217            2 
   33100    1.6952101   -5.1950113    4698.1403            1 
   33200    1.6546002   -5.1968704    4697.2297            1 
   33300    1.6938595   -5.2356791    4646.7125            3 
   33400    1.6727709   -5.2019744    4647.2512            1 
   33500    1.6807172   -5.1691664      4709.74            1 
   33600    1.6508677   -5.1654247    4676.0775            3 
   33700     1.703332   -5.1860319    4659.7822            1 
   33800    1.6511133   -5.2064075    4685.4363            2 
   33900    1.6670949   -5.1629609    4679.5782            2 
   34000    1.6643269   -5.2221631    4628.9982            3 
   34100    1.6575067    -5.245937    4679.5543            1 
   34200    1.6829482   -5.2080872    4670.4347            2 
   34300    1.7200215   -5.1824962     4665.065            2 
   34400     1.680083   -5.2045718    4696.0035            1 
   34500    1.6731966   -5.2563651    4680.2074            1 
   34600    1.6979233   -5.1907294    4660.5561            2 
   34700     1.661886   -5.1464592    4698.8306            1 
   34800     1.687071   -5.1618277    4684.4575            1 
   34900    1.6753205   -5.2025234    4697.5366            1 
   35000    1.6875116   -5.1638311    4690.8628            2 
   35100    1.6703191   -5.1694512    4661.6407            1 
   35200    1.6638055   -5.1881669    4679.6661            3 
   35300    1.7210221   -5.1885747    4694.8392            1 
   35400    1.6729269   -5.1748195    4690.9133            1 
   35500    1.7178257   -5.1982713    4673.8172            1 
   35600    1.6480426   -5.2087487    4683.2292            2 
   35700     1.690711   -5.1945107    4657.7341            1 
   35800     1.674331   -5.2203185    4657.9454            1 
   35900      1.70715   -5.2439366    4693.5435       -1e+20 
   36000     1.668029   -5.2222271    4660.3808            2 
   36100    1.6867666   -5.1945962    4661.3611            1 
   36200    1.6643739   -5.1869375    4682.9852            3 
   36300    1.6746057   -5.1887731      4676.03            1 
   36400    1.7106708   -5.1755955    4679.1439            2 
   36500    1.6726632   -5.1185973    4704.2174            1 
   36600    1.6620497   -5.1829208     4698.337            1 
   36700    1.7033102    -5.242636    4668.3082            1 
   36800    1.6587178   -5.2424864    4650.8991            1 
   36900    1.6789461   -5.2378308    4670.2828            1 
   37000    1.6881267   -5.1911824     4677.309            1 
   37100    1.6715012   -5.1604399    4676.6897            1 
   37200    1.6704137   -5.2481086    4665.6054            1 
   37300    1.6944318    -5.226868    4672.9014            1 
   37400    1.6431352   -5.1951446    4663.9689            2 
   37500    1.6920141   -5.1696476     4664.899            1 
   37600    1.6592684   -5.1955352    4696.0722            2 
   37700     1.710293   -5.2058492    4701.0383            1 
   37800    1.6890249   -5.2049687     4657.746            1 
   37900    1.6952519   -5.2150099    4659.6789            1 
   38000    1.6824448   -5.1834272    4694.8803            1 
   38100     1.669015   -5.1868506    4689.8911            1 
   38200    1.7016875   -5.2054831    4660.8584            2 
   38300    1.7012145   -5.2409266    4671.8131            2 
   38400    1.6383728   -5.2310623    4668.8077            1 
   38500    1.6825225   -5.2127728    4649.2434            2 
   38600    1.7003153   -5.1521403    4671.0031            1 
   38700    1.6720839   -5.1729506     4691.044            1 
   38800    1.6780324   -5.2268223    4665.1846            1 
   38900    1.6585134    -5.206538    4656.5591            1 
   39000    1.7006977   -5.1910054    4674.1456            1 
   39100    1.6718745   -5.1902965    4676.9972            2 
   39200     1.671343   -5.1836916    4675.9075            1 
   39300    1.6927515   -5.1615565    4692.0241       -1e+20 
   39400    1.6734923   -5.1810302    4672.1276            1 
   39500    1.6330433   -5.1910221    4683.0044            1 
   39600    1.6816963   -5.1822561    4698.9511            1 
   39700    1.7045473   -5.2015279     4652.245            1 
   39800    1.6625251   -5.1845155    4661.0455            2 
   39900    1.6940779   -5.2203899    4686.3483            1 
   40000    1.6322944   -5.2028606    4660.7065            2 
   40100    1.6869381    -5.200677    4668.2173            1 
   40200    1.6736335   -5.1924065    4681.2298            1 
   40300    1.7152024   -5.1878199    4698.5823            1 
   40400    1.6661328   -5.1792039    4651.0719            1 
   40500    1.6575459     -5.18178    4685.2905            1 
   40600    1.6733049   -5.1750701    4686.5336            1 
   40700    1.6635978   -5.1540757    4672.5187            2 
   40800    1.7119611   -5.1647633    4679.4803            1 
   40900    1.6877572    -5.214215    4653.0636            1 
   41000    1.6544387   -5.2519201    4656.9774            5 
   41100    1.6901346   -5.2375403    4674.8438            2 
   41200    1.6944274   -5.1948783    4666.1023            3 
   41300    1.6890917    -5.234709    4685.4421            4 
   41400    1.6451604   -5.1919553    4693.5138            1 
   41500    1.7360751   -5.2283089    4660.4927            1 
   41600    1.6726081   -5.2029166    4652.3646            2 
   41700    1.6439354   -5.1814485    4676.2678            1 
   41800    1.7123672   -5.1946958    4698.6045            1 
   41900    1.6767363   -5.1732294     4699.634            1 
   42000    1.6930422   -5.2068935    4676.6148            2 
   42100    1.6755434   -5.2086846    4673.8273            1 
   42200    1.6688786   -5.1636257    4691.2305            1 
   42300    1.6950645   -5.2054605    4660.4802            1 
   42400    1.6727852   -5.2141888    4676.0774            1 
   42500    1.6930836   -5.2457493      4672.16            3 
   42600    1.6870042   -5.2486728    4637.8145            2 
   42700    1.6993198   -5.2307584    4667.2786            1 
   42800    1.6906674   -5.2258807    4707.6753            1 
   42900    1.6498505   -5.2169765    4659.7429            4 
   43000    1.6812124   -5.1814075     4650.537            2 
   43100    1.6635025   -5.1421995    4695.2286            1 
   43200    1.6766282      -5.1788    4703.6269            1 
   43300    1.7097084    -5.190662    4689.5277            1 
   43400    1.6660337   -5.1977703    4687.1334            1 
   43500    1.6676624   -5.1539248    4689.3859            1 
   43600    1.6946138   -5.1542876    4685.2172            4 
   43700    1.6925716   -5.1769757    4669.7236            1 
   43800    1.6500665   -5.2310825    4659.3694            2 
   43900    1.6699876   -5.2142148    4684.5258            2 
   44000    1.6967049   -5.1948574    4669.7131            1 
   44100    1.6946636   -5.1656831    4672.5152            1 
   44200    1.6331537   -5.1843292    4711.0191            2 
   44300    1.7018552   -5.1837425    4683.7667            1 
   44400    1.7073592   -5.1659032    4672.7978            1 
   44500    1.6500896    -5.178549    4682.3197            4 
   44600    1.6949483   -5.2340679    4666.6177            4 
   44700    1.6429303    -5.169322    4667.9285            1 
   44800    1.7099565    -5.216127    4670.0744            1 
   44900    1.6550765   -5.2388061     4672.688            2 
   45000     1.633857   -5.1799412    4658.8607            2 
   45100    1.7241543   -5.2024355    4655.3243            2 
   45200    1.6473542    -5.176044    4682.5865            3 
   45300    1.7018617   -5.2173146    4677.4461            2 
   45400    1.6391443   -5.2000988    4652.2731            1 
   45500    1.6970591   -5.2348193    4662.1557            1 
   45600    1.6766702   -5.1884555    4681.1562            2 
   45700    1.6989049   -5.1606061    4682.7446            2 
   45800     1.670444   -5.1859013    4684.4833            1 
   45900    1.6516086   -5.2130386    4660.2062            1 
   46000    1.6944657   -5.1939529    4664.2367            1 
   46100     1.659077   -5.1894588    4677.6178            2 
   46200    1.6884073   -5.1726857    4665.5988            2 
   46300    1.6539849   -5.2085456    4675.7617            1 
   46400    1.6850642   -5.1996327    4706.8118            2 
   46500    1.6890316   -5.1921131    4652.3572            4 
   46600    1.6882266   -5.1561144    4666.0565            1 
   46700    1.6738999   -5.2370042    4686.6563            2 
   46800    1.6912855   -5.2389596    4679.3951            1 
   46900    1.6900592   -5.1866113    4653.2343            1 
   47000    1.6695358   -5.2433969    4661.6209            2 
   47100     1.692357   -5.2437732    4658.3837            3 
   47200    1.6614639   -5.2402633    4622.4492            2 
   47300    1.6734008   -5.2208381    4670.9068            2 
   47400    1.6475682   -5.1906926    4685.0202            1 
   47500    1.7245769   -5.1992834     4657.151            2 
   47600     1.684089   -5.1995233    4687.0313            3 
   47700    1.6531256   -5.2024472    4671.3715            1 
   47800    1.6689164   -5.1720406    4671.1479            2 
   47900    1.7009249   -5.1961585    4668.6295            1 
   48000    1.6708492   -5.2372026    4656.2986            2 
   48100    1.6595332   -5.2421324    4648.8829            1 
   48200    1.6960765    -5.269955    4644.8969            1 
   48300    1.6703886   -5.1736725    4685.5005       -1e+20 
   48400     1.683928   -5.1712355    4688.4372            2 
   48500    1.6813458   -5.2345403    4660.7406            1 
   48600    1.6882064   -5.2095657    4669.3406            2 
   48700    1.7279313   -5.2291011    4689.0442            1 
   48800    1.6608223   -5.2124663    4673.0182            1 
   48900    1.6652892   -5.1479172     4676.842            2 
   49000    1.6881467   -5.1706426    4689.8523            1 
   49100    1.6903821   -5.2002688    4697.4239            2 
   49200    1.6990515   -5.1843681     4689.467            3 
   49300    1.6581153   -5.1961289    4662.3997            1 
   49400    1.6555893   -5.2053331    4670.2516            1 
   49500    1.6830467   -5.1853185    4675.8996            1 
   49600    1.7015083   -5.1918213    4701.8038            2 
   49700    1.6863064   -5.1614384    4709.1371            1 
   49800     1.708525   -5.2275583    4665.5108            1 
   49900    1.6672186   -5.2131581    4671.3608            4 
   50000    1.6657574   -5.2013865    4666.9866            1 
   50100    1.6877149   -5.2023669    4657.2139            1 
   50200    1.6629654   -5.1684588    4674.8468            2 
   50300    1.6878824   -5.2304605    4679.7717            1 
   50400    1.6887507   -5.2098697    4689.0674            2 
   50500    1.6703227    -5.216229    4641.9646            2 
   50600    1.7043743   -5.1750396     4667.512            1 
   50700    1.6772455   -5.2069223    4685.1771            7 
   50800    1.6386363   -5.2184679    4667.1394            2 
   50900    1.6724534   -5.1903607    4653.7906            2 
   51000    1.7132134   -5.2012542     4678.601            2 
   51100    1.6441389    -5.225695    4685.6563            1 
   51200    1.6876495   -5.2058227    4686.6459            1 
   51300    1.6924161   -5.1645641    4682.7096            1 
   51400    1.6630333    -5.205564    4675.5195            5 
   51500    1.6822682    -5.254221    4666.4279            1 
   51600    1.6716023   -5.2757512    4641.7124            2 
   51700    1.6619611    -5.225755    4652.7286            1 
   51800    1.6782041    -5.195394    4694.0827            4 
   51900    1.6704652   -5.1608669    4678.8209            1 
   52000    1.6744601   -5.1863973    4662.1921            3 
   52100    1.6486479   -5.2472472    4665.8791            1 
   52200    1.6908638   -5.2288356    4666.3179            1 
   52300    1.6854246   -5.1923266    4662.0892            1 
   52400    1.6994048   -5.1613912    4684.3411            1 
   52500    1.6875699   -5.2143445    4701.2734            1 
   52600    1.6803666   -5.2329616    4659.6754            1 
   52700    1.6740222   -5.1711678    4668.8374            3 
   52800    1.6925246   -5.2147166    4663.7665       -1e+20 
   52900    1.6746508   -5.2365749    4676.1443            1 
   53000    1.6792129   -5.2353315    4660.0015            1 
   53100    1.6923862   -5.1985767    4637.2475            1 
   53200    1.6768791   -5.2043686     4693.751            2 
   53300    1.6502215   -5.2081836    4693.0427            1 
   53400     1.645203   -5.2067284     4636.696            2 
   53500    1.7207779   -5.2771319    4640.3397            2 
   53600    1.6825704   -5.2291556    4683.1667            3 
   53700    1.6985667     -5.18491    4694.8666            1 
   53800    1.6747622   -5.1746382     4697.955            3 
   53900    1.6801717   -5.2101607    4662.3936            2 
   54000    1.6770536   -5.2635607    4664.1888            1 
   54100    1.6880196   -5.2186563    4699.8264            2 
   54200    1.6765767   -5.1676505     4656.979            1 
   54300    1.6830743   -5.1937013    4670.8234            1 
   54400    1.6617323   -5.1881984    4698.8089            1 
   54500    1.6975217   -5.1413042    4684.4646            1 
   54600    1.6964611   -5.2060632    4674.9001            1 
   54700     1.673559   -5.2063659    4693.8799            2 
   54800    1.6684014   -5.2070338    4683.9428            1 
   54900    1.7032856   -5.2019552    4641.3787            1 
   55000    1.6579287   -5.1804479    4665.8158            2 
   55100     1.698833   -5.1928555    4686.0908            1 
   55200    1.6719297   -5.1644652    4708.2262            1 
   55300     1.690477   -5.1828634    4675.0213            1 
   55400    1.6865217   -5.2001462    4672.3473            1 
   55500    1.6929268   -5.2104634    4671.8325            2 
   55600    1.6657237   -5.2113708    4705.3465            1 
   55700    1.7031924   -5.1811982    4691.8474            1 
   55800    1.6802673    -5.179097    4669.1085            1 
   55900    1.6837505   -5.1698242    4686.7841            1 
   56000    1.6924328   -5.1512603    4702.7922            1 
   56100    1.6963577   -5.1958352     4678.078            2 
   56200    1.7045392   -5.2619451    4664.8199            1 
   56300    1.6757138   -5.2125136    4689.9347            3 
   56400    1.6918282   -5.1854031    4674.3832            2 
   56500    1.6698842   -5.2027094    4680.3231            2 
   56600    1.6875388   -5.1761327     4678.113            1 
   56700    1.6803624   -5.1803521    4691.9632            1 
   56800    1.6910802   -5.2101435    4688.1133            2 
   56900    1.6660791   -5.1893056    4685.0278            2 
   57000    1.7065651   -5.1919218    4679.2142            3 
   57100    1.6602396   -5.2032239    4662.5413            1 
   57200    1.7019334   -5.2411407    4677.0735            2 
   57300    1.6659283   -5.1577525    4702.1548            2 
   57400     1.709115   -5.1670407    4683.6623            1 
   57500    1.6642176   -5.2073644    4691.5379            2 
   57600    1.6922237   -5.2558817    4666.6892            3 
   57700     1.669928    -5.240437    4649.0196            1 
   57800    1.6901589    -5.227547    4658.3071            3 
   57900     1.633012   -5.2377342    4672.6915            1 
   58000    1.6883482   -5.2173474    4690.8168            1 
   58100    1.7214262   -5.1802491    4662.7234            1 
   58200    1.6816379   -5.2080586     4672.472            2 
   58300    1.6432011   -5.2083496    4682.1655            1 
   58400    1.7268059   -5.2220653    4660.3332            2 
   58500    1.6825007   -5.1933443     4671.389            1 
   58600    1.6184017   -5.1787507    4700.1233            1 
   58700    1.6961395   -5.1923587    4680.5342            2 
   58800    1.7362466   -5.1927611    4664.7494            1 
   58900    1.6489411   -5.1953994    4704.4955            1 
   59000    1.7001149   -5.2149116    4689.5168            1 
   59100    1.6436795   -5.1871879     4675.983       -1e+20 
   59200    1.7169887   -5.1957028    4671.6375            1 
   59300    1.6609814   -5.1676815    4691.0038            4 
   59400    1.7061109   -5.2085666    4698.1639            1 
   59500    1.6720102   -5.2154169    4670.8094            3 
   59600    1.6900412   -5.1658008    4683.2524            4 
   59700    1.6922189   -5.1731488    4680.8966            1 
   59800    1.6707721   -5.2146837     4655.953            1 
   59900    1.6632346   -5.1584816    4671.5907            3 
   60000    1.6802224   -5.1716457      4705.11            3 
   60100    1.6724226   -5.1883561    4697.0222            2 
   60200    1.6609178   -5.2097435    4635.3792            3 
   60300    1.6494876    -5.224238    4656.4316            1 
   60400    1.6721267   -5.1790314    4680.8379            3 
   60500    1.6923017   -5.1555135    4673.0804            1 
   60600    1.6498533   -5.2064356    4676.4295            2 
   60700    1.6793022   -5.1824981    4664.4466            2 
   60800    1.6803751   -5.2290963    4649.3554            1 
   60900    1.6836422   -5.2186106    4667.8942            1 
   61000    1.6961156   -5.2243606    4692.7855            1 
   61100    1.6931998   -5.2128194    4668.9127            2 
   61200     1.675961    -5.207896    4634.9963            1 
   61300    1.6591292    -5.250505    4680.5869            2 
   61400    1.6859338   -5.2127384    4674.9003            2 
   61500    1.7196453   -5.1832034    4687.7916            1 
   61600    1.6904014   -5.2044977    4690.2906            2 
   61700    1.6624124   -5.1946572    4670.9202            2 
   61800    1.6538617   -5.2094994    4656.5472            2 
   61900    1.6875665   -5.2165505    4660.0429            2 
   62000    1.7035599     -5.24805    4663.6422            4 
   62100    1.6604817   -5.2821467    4675.9479            1 
   62200      1.70297   -5.2631033    4671.8794            1 
   62300    1.7254655   -5.2053866    4663.6666            1 
   62400    1.6422252   -5.1758417    4669.8398            1 
   62500    1.6951405   -5.2204631    4684.1989            1 
   62600    1.6398316   -5.1702446    4684.2521            1 
   62700    1.6758676   -5.2233353    4658.7846            2 
   62800    1.6584188   -5.1647324    4664.1725            1 
   62900    1.7044553   -5.1975911    4671.3269            2 
   63000    1.6635464   -5.1763378    4678.9681            2 
   63100    1.6485607   -5.1883023    4684.5679            1 
   63200    1.7099546   -5.1819957    4689.0922            1 
   63300    1.6598202   -5.1700701    4662.3565            2 
   63400    1.6720688   -5.1936621    4664.9128            2 
   63500    1.6657315   -5.1776985    4691.4856            2 
   63600    1.6625866   -5.2055556    4683.9055            1 
   63700    1.7056848   -5.1840602    4662.1566            1 
   63800    1.6725727   -5.1773146    4708.3744            1 
   63900     1.697866   -5.2015879    4694.3702            2 
   64000    1.6647428   -5.1830157     4678.943            2 
   64100      1.69382    -5.230123    4662.7461            1 
   64200    1.6588064   -5.2235058    4656.8446            3 
   64300    1.6754398   -5.1823157     4689.583            1 
   64400    1.7004172   -5.2092234     4685.595            2 
   64500    1.6744288   -5.2157032    4663.4641            1 
   64600    1.6797905   -5.1976177    4666.6528            2 
   64700    1.6580046   -5.1864478    4690.9354            2 
   64800    1.6917655    -5.206673    4652.9001            1 
   64900    1.6695611   -5.2243692    4653.6056            2 
   65000    1.6683067   -5.2062868    4689.2885            1 
   65100     1.677124    -5.172537    4695.1568            1 
   65200    1.6618989   -5.1999365    4659.3565            3 
   65300    1.6865614   -5.1879653    4677.2507            1 
   65400    1.6612502   -5.1771079    4691.3691            2 
   65500    1.6936821   -5.1434333    4687.4454            1 
   65600    1.6838256   -5.1867248    4674.0068            3 
   65700    1.6724713   -5.2568588    4674.2507            2 
   65800    1.6792725   -5.1965261    4656.5476            2 
   65900    1.6799223   -5.1429642    4671.6856            1 
   66000    1.6613122   -5.1868738    4688.5235            2 
   66100    1.7195997   -5.2118815    4686.5928            1 
   66200    1.6668128   -5.1937176    4654.4619            1 
   66300    1.6984062   -5.2086663    4670.8807            1 
   66400    1.6606443   -5.2026133    4690.8832            1 
   66500    1.6874015   -5.1932145    4666.4741            1 
   66600    1.6630555   -5.2018065    4681.2374            2 
   66700    1.6871603   -5.2086034    4665.3249            2 
   66800      1.70157    -5.180247    4662.6883            1 
   66900     1.668476   -5.1858196    4701.3974            1 
   67000    1.6580801   -5.2201409    4686.6441            1 
   67100    1.7100096   -5.2236226    4661.6979            6 
   67200    1.6876794   -5.2009494    4670.2465            1 
   67300    1.6453224   -5.2077635    4663.2706            1 
   67400    1.6960103   -5.1960099    4679.4356            1 
   67500    1.6497362   -5.1860954    4659.5369            1 
   67600    1.6803915   -5.2268518    4639.1808            3 
   67700    1.6851533   -5.2630999    4663.5515            1 
   67800    1.6898212   -5.2441926    4674.1423            1 
   67900     1.671242   -5.1712994    4690.4005            3 
   68000    1.6490181   -5.2071033    4660.9765            1 
   68100    1.7052883   -5.1983905    4651.7146            1 
   68200     1.641678   -5.1777097     4696.485            1 
   68300    1.6789398   -5.1966777     4689.415            1 
   68400     1.694089   -5.1976529    4630.2248            1 
   68500    1.6659227   -5.2193414     4657.405            4 
   68600    1.6632831   -5.1818555    4692.6586            1 
   68700    1.6865755   -5.1919787    4680.8518            2 
   68800    1.6820317    -5.219457    4654.4827            1 
   68900    1.7184638    -5.220931    4698.8488            1 
   69000    1.6778457   -5.2003738    4690.0099            1 
   69100    1.6666895   -5.1960858    4651.4548            1 
   69200    1.6468664   -5.2448198    4634.8201            2 
   69300    1.6744578   -5.2366558    4680.6241            1 
   69400     1.693792   -5.2119636    4659.8034            1 
   69500    1.6968786   -5.2477445    4653.1072            2 
   69600    1.6436861   -5.2112936    4667.0704            2 
   69700    1.6728722   -5.1830659    4683.4559            1 
   69800    1.6948783   -5.2289792    4651.5919            1 
   69900    1.6723883   -5.2140187    4661.9726            2 
   70000    1.6802287   -5.2358755      4683.83            1 
   70100     1.652556   -5.2166296     4659.863            1 
   70200    1.7036587   -5.1885587    4671.4776            3 
   70300    1.6289975   -5.1778222     4704.859            1 
   70400    1.6986152   -5.1943919    4682.1959            1 
   70500    1.7129278   -5.1956071    4667.7838            1 
   70600    1.6514815   -5.2308245    4683.0044            1 
   70700    1.6661429   -5.1928303    4694.9757            2 
   70800    1.7336386   -5.1664342    4674.8293            1 
   70900    1.6731467   -5.1857261     4685.456            1 
   71000    1.6373807   -5.1741072    4675.1532            1 
   71100    1.6965907   -5.1761128    4655.1375            1 
   71200    1.6527577   -5.2086287    4655.7423            2 
   71300    1.6513606   -5.1835424    4677.6681            3 
   71400    1.6982598   -5.2077134    4665.3527            1 
   71500    1.6844123   -5.2169309    4672.6993            2 
   71600    1.6944078   -5.1988539    4698.9142            3 
   71700    1.6966976   -5.1682244    4680.1671            1 
   71800    1.6518776   -5.1847258    4678.8133            3 
   71900    1.6925541   -5.1916556    4696.9401            1 
   72000    1.6679705   -5.1983536    4701.2019            1 
   72100    1.6750088   -5.1716473    4671.7245            2 
   72200    1.7257193   -5.1529718     4664.539            1 
   72300    1.6618883    -5.199988    4671.0672            1 
   72400    1.6614659   -5.2221875    4682.4202            5 
   72500    1.7182001   -5.2124963    4679.1264            2 
   72600    1.6738929   -5.1991091    4660.7539            1 
   72700    1.6378287   -5.2111785    4658.3174            3 
   72800     1.670424   -5.1969562    4674.7643            4 
   72900     1.706438   -5.2262864    4670.2196            2 
   73000    1.6822985   -5.2243813    4674.5456            1 
   73100    1.6521761   -5.2376295    4649.2045            1 
   73200    1.6734288   -5.2084962    4659.8432            1 
   73300    1.6672487   -5.1570558    4678.0491            2 
   73400    1.7092029   -5.2053022    4678.0737            1 
   73500    1.6874729     -5.26557     4671.328            3 
   73600     1.682453   -5.1971496    4668.1866            1 
   73700    1.7121366   -5.1513718    4689.7733            1 
   73800    1.6916254   -5.2020353    4681.7452            3 
   73900    1.6742067   -5.2136148    4674.6956            2 
   74000    1.6564176   -5.2071182    4666.5703            1 
   74100      1.71789   -5.2225374    4663.3156            1 
   74200    1.6561076   -5.2042822    4654.7954            1 
   74300     1.668053   -5.1604968    4661.0134            1 
   74400    1.6720795   -5.2176267    4687.9365            1 
   74500    1.6829614   -5.1970075    4670.5943            3 
   74600    1.7197068   -5.2051537    4670.5795            1 
   74700    1.6565673   -5.2018052    4715.5187            3 
   74800    1.6860197   -5.2134022    4653.5725            2 
   74900    1.6901929   -5.2223661    4645.0786            2 
   75000    1.6953049    -5.205689    4686.0156            1 
   75100    1.6821934   -5.1740474     4685.527            1 
   75200     1.663619   -5.2063647    4670.1999            3 
   75300    1.6882059   -5.2115358    4658.9256            1 
   75400    1.7129239   -5.2041657     4687.752            1 
   75500    1.6582892   -5.2147986    4673.9536            1 
   75600    1.6695369   -5.2188598    4669.7603            2 
   75700    1.6878492    -5.190114    4665.8195            1 
   75800    1.6872054    -5.167374    4694.2565            2 
   75900     1.673204   -5.2163598    4654.1061            1 
   76000    1.6757625    -5.191215    4681.0735            1 
   76100    1.6662399   -5.1769435    4691.9005            1 
   76200    1.7137048   -5.1767669    4663.5371            2 
   76300    1.6527471   -5.1875099    4661.6661            1 
   76400    1.6484421   -5.2168979    4683.1218            1 
   76500    1.7197247    -5.199318    4668.9052            2 
   76600     1.671014   -5.1807897    4669.2079            3 
   76700    1.6343986    -5.195708    4676.2927            1 
   76800    1.6864334    -5.194285    4684.9889            1 
   76900    1.7178887   -5.1974528      4689.11            2 
   77000    1.6709809   -5.2249835    4691.6958            1 
   77100    1.6663744   -5.2134721    4673.8607            1 
   77200    1.7070464   -5.1918884    4659.8091            1 
   77300    1.7065406   -5.1897885    4696.7996            1 
   77400    1.6756506   -5.2098116    4686.0164            2 
   77500    1.6781716   -5.1816345     4677.721            1 
   77600    1.6890646   -5.1951836    4670.4949            2 
   77700    1.6347151   -5.2176579    4655.7587            1 
   77800    1.6432592   -5.2117207    4674.7737            1 
   77900    1.7052115   -5.1797502    4667.8375            1 
   78000    1.6483441   -5.2009257    4696.5175            2 
   78100    1.7146475   -5.2008503    4683.8136            1 
   78200    1.6723242   -5.1976363    4670.6703            2 
   78300    1.6750987   -5.2144993    4665.5625            2 
   78400    1.6962954   -5.1894751    4699.5776            2 
   78500    1.6917847    -5.187567    4689.3479            1 
   78600    1.6865957   -5.1961113    4684.3536            1 
   78700    1.6855731   -5.1859929    4687.6841            1 
   78800    1.6618937   -5.2322701    4664.4242            1 
   78900    1.6821499   -5.1977637    4670.3795            1 
   79000    1.7031343   -5.1950393     4693.132            1 
   79100    1.6795652   -5.2238747    4671.3931            2 
   79200    1.6996232   -5.2496665    4642.2475            1 
   79300    1.6513686   -5.2122602    4666.6165            1 
   79400    1.6738701   -5.2228089    4667.6425            2 
   79500    1.6930694   -5.1970792    4668.1214            1 
   79600    1.6632876   -5.1798081    4689.5371            1 
   79700    1.6569491   -5.1767489    4661.2366            1 
   79800    1.6864337   -5.1685222    4680.1466            1 
   79900    1.6685198     -5.18275    4708.6106            1 
   80000     1.690866   -5.2123148    4705.9901            1 
   80100    1.6769412   -5.2191171    4651.0177            2 
   80200    1.6958619   -5.2488231    4652.1815            2 
   80300    1.6730399   -5.2319332     4669.974            3 
   80400     1.703778    -5.195796    4704.5989            1 
   80500    1.6842112   -5.2110468    4668.3181            1 
   80600    1.6911649    -5.222506    4654.6059            2 
   80700    1.6424922   -5.2344099    4634.7459            2 
   80800    1.6655517   -5.2148434    4676.1109            2 
   80900    1.6739588   -5.1669969    4676.9376            1 
   81000    1.6512291   -5.2024915    4654.4426            1 
   81100    1.6941652   -5.2411055    4674.4044            1 
   81200    1.6531751   -5.1601216    4695.9047            1 
   81300    1.7209427    -5.166596     4668.188            1 
   81400    1.6858553    -5.214746    4669.6705            1 
   81500    1.6277054    -5.233831    4684.0554            1 
   81600    1.7025091   -5.2100813    4635.1875            2 
   81700    1.6377607   -5.1698307    4667.3722            2 
   81800    1.6647278   -5.2047473    4699.3763            2 
   81900    1.7151248   -5.1740388     4670.435            2 
   82000    1.6549964   -5.1859509    4656.0099            1 
   82100    1.6655493   -5.2178659    4705.6541            1 
   82200    1.7058079   -5.1851582    4684.0952            1 
   82300    1.6786207   -5.2242645    4663.9875            2 
   82400    1.6954544   -5.2156133    4672.4674            1 
   82500    1.7008408   -5.2002235    4685.8316            1 
   82600    1.6768132   -5.2389255    4661.1729            1 
   82700    1.6718643    -5.185195    4674.1591            1 
   82800     1.675838   -5.1816255    4675.5729            1 
   82900    1.6893502   -5.2369966    4639.4011            1 
   83000    1.6900216   -5.2292591    4681.6537            2 
   83100    1.6744271   -5.2197365    4696.6675            3 
   83200    1.6933946   -5.2151568    4658.4114            1 
   83300    1.7044616   -5.1871237    4645.7397            1 
   83400    1.6267224   -5.2059151    4699.3819            2 
   83500    1.7005755   -5.2146955    4686.8162            1 
   83600    1.7206639   -5.2241461    4667.8371            1 
   83700    1.6525323   -5.2222109    4664.7903            2 
   83800     1.675857   -5.2018271    4671.6338            1 
   83900    1.6751591   -5.1712089    4664.3357            1 
   84000    1.6911142   -5.2469595    4642.0239            1 
   84100    1.7042518   -5.2028784    4668.2877            1 
   84200    1.6499268   -5.1930553    4708.2293            1 
   84300    1.7299029   -5.2045303    4691.5063            2 
   84400    1.6832505   -5.1555046    4685.0082            1 
   84500    1.6691486   -5.1960026    4678.0966            1 
   84600    1.6576167   -5.2573821    4658.7314            2 
   84700    1.6722227   -5.2149321    4659.8678            1 
   84800    1.7044145   -5.2173377     4658.402            2 
   84900     1.643171   -5.2264538    4696.4182            1 
   85000    1.6897005   -5.2342646    4698.4706            1 
   85100    1.6796998   -5.2192039    4645.3219            2 
   85200    1.6835066   -5.2573083    4661.5225            1 
   85300    1.6908941   -5.2707391    4667.9128            1 
   85400    1.6923871   -5.2140473    4671.4054            1 
   85500     1.700804   -5.2129452    4666.1814            4 
   85600     1.670216   -5.2231088    4664.6652       -1e+20 
   85700    1.6907555   -5.2079969    4679.5955            1 
   85800    1.7148747   -5.1817985    4681.3734            1 
   85900    1.6701494    -5.205354    4659.1255            1 
   86000    1.6598655   -5.1911662     4670.517            2 
   86100     1.702595   -5.2107734    4706.1089            2 
   86200    1.6716604   -5.1961592    4658.5244            1 
   86300    1.6835017   -5.1742404     4666.658            1 
   86400     1.640161    -5.176406    4684.5084            1 
   86500    1.6886741   -5.2109529    4680.2927            1 
   86600     1.688461   -5.1344686    4702.6957            1 
   86700    1.6537167   -5.1346149    4679.9462            1 
   86800    1.7021401   -5.2004669    4680.7112            1 
   86900    1.6512702    -5.193128    4690.8067            2 
   87000    1.6967648   -5.1910363    4657.4263            3 
   87100    1.6930871   -5.2118561    4677.3501            2 
   87200    1.6641367   -5.2714585     4689.974            1 
   87300    1.6632999   -5.1886412    4654.7449            1 
   87400    1.6631261   -5.1718314    4657.4582            1 
   87500    1.7086615   -5.1971175    4675.8802            2 
   87600    1.6470233   -5.2030923    4673.5169            2 
   87700    1.6660996   -5.2178767    4661.2354            2 
   87800    1.7301536   -5.2228234    4663.6874            1 
   87900    1.6732507   -5.2269298    4670.0994            1 
   88000    1.6549826   -5.2012724    4695.7535            3 
   88100    1.6773027   -5.1902228    4675.3107            1 
   88200    1.7125748   -5.1432261     4670.289            1 
   88300    1.6957891   -5.2109822    4689.7884            1 
   88400    1.6659307   -5.2043963    4683.6399            2 
   88500    1.7149404   -5.2174942     4672.383            1 
   88600    1.6898809   -5.1770438      4680.27            2 
   88700    1.6805672   -5.2314778    4675.6917            1 
   88800    1.6753373    -5.172946    4701.1508            1 
   88900    1.7047816   -5.1789672    4681.3522            3 
   89000    1.6702761   -5.1909109     4663.679            1 
   89100    1.6573786   -5.2144421    4661.8359            2 
   89200    1.7116554   -5.2244118    4686.3505            1 
   89300    1.6925974   -5.2550856    4660.9326            1 
   89400    1.6484923   -5.1945283    4684.4216            2 
   89500    1.6951828    -5.185839    4687.5532            2 
   89600    1.6567119   -5.1795782     4672.699       -1e+20 
   89700    1.6625161   -5.2111774    4648.5264            3 
   89800    1.6806627   -5.2111384    4675.1249            2 
   89900    1.6944517   -5.2251998    4682.0547            1 
   90000    1.6189851   -5.2108994    4667.6275            1 
   90100    1.7162803   -5.2559347    4641.2925            1 
   90200    1.6876723   -5.2157935    4673.1798            1 
   90300    1.6392144    -5.172784     4687.118            1 
   90400    1.7066082   -5.1921079    4673.0154            1 
   90500    1.6923358   -5.2224583     4677.579            3 
   90600    1.6442655   -5.2584232    4675.1946            1 
   90700    1.6968418   -5.2305896    4642.0747            1 
   90800    1.7151602   -5.2000153    4658.6219            1 
   90900    1.6430871   -5.1940836    4701.9546            1 
   91000    1.6909438   -5.2015849    4672.3777            1 
   91100    1.6984258   -5.2182187    4664.8934            1 
   91200    1.7121118   -5.1906698    4714.4728            1 
   91300    1.6614803   -5.1886439    4688.9123            1 
   91400    1.6757136   -5.2175353    4663.9972            2 
   91500    1.6844604   -5.2234763    4651.9923            1 
   91600    1.6656343   -5.1844424    4698.1535            2 
   91700     1.675463   -5.1665024    4685.5849            1 
   91800    1.6706887   -5.1764493    4645.9339            2 
   91900    1.6911338   -5.2196333    4676.3885            3 
   92000    1.6807662   -5.2734095    4683.3583            1 
   92100    1.6880394   -5.2320659    4653.4316            1 
   92200    1.7214055   -5.2073721    4679.3468            2 
   92300    1.6636099   -5.1770395    4687.1318            2 
   92400    1.6660053   -5.1975024    4680.1879            2 
   92500    1.7116815   -5.2262762    4652.6509            1 
   92600    1.7056452   -5.1824491    4696.5503            1 
   92700    1.6585742    -5.208423    4706.8164            1 
   92800    1.7067953    -5.204892    4667.3812            1 
   92900    1.6731528   -5.2211586    4649.5716            1 
   93000    1.6947548   -5.2780604    4670.9459            1 
   93100      1.70142   -5.2426475    4691.9641            4 
   93200     1.649754   -5.2195232    4655.4337            2 
   93300    1.6968693   -5.2426859    4653.7113            1 
   93400    1.6541244   -5.1807027    4670.3545            1 
   93500    1.7132584   -5.1747949    4698.7395            2 
   93600    1.6793155    -5.149428    4673.2826            1 
   93700    1.6736554   -5.1769567    4687.2759       -1e+20 
   93800     1.693554   -5.1787501    4700.1553            2 
   93900    1.6864118   -5.1843224    4703.4678            1 
   94000    1.6542738   -5.1614892    4665.0164            3 
   94100    1.7314488   -5.1984551    4674.3894            1 
   94200    1.6650173   -5.2171309     4683.646            1 
   94300    1.6713243   -5.2147927    4661.0414            1 
   94400    1.6540934   -5.2227636     4633.831            2 
   94500    1.6258563   -5.2227074    4623.5627            1 
   94600    1.6630627   -5.2191005     4664.834            2 
   94700    1.6755423   -5.1929718    4660.9165            2 
   94800    1.6571274   -5.2621132    4649.7637            1 
   94900    1.6703574   -5.2500391    4660.6834            2 
   95000    1.6953221   -5.2280001    4665.3774            2 
   95100    1.6523379   -5.2088189    4654.3297            2 
   95200    1.6693293   -5.2493644    4639.0996            1 
   95300    1.6651588   -5.1798395     4693.436            1 
   95400    1.6868631    -5.198169    4692.4528            1 
   95500    1.6750884   -5.2102592    4619.5125            2 
   95600     1.668373   -5.1854025    4673.6749            1 
   95700    1.6796273   -5.2126194    4689.8722            1 
   95800    1.7191607   -5.2257334    4670.1752            1 
   95900    1.6695753   -5.2397786    4669.3896            1 
   96000    1.6840658   -5.2529163    4656.8268            1 
   96100    1.6874466   -5.2370912    4651.5552            1 
   96200    1.6806028   -5.1962668    4682.1315            3 
   96300     1.696194   -5.2686863    4674.2825            1 
   96400     1.662229   -5.2361746    4665.6491            1 
   96500    1.7046078   -5.2305529    4658.7649            2 
   96600    1.6935628   -5.2202054    4661.6068            1 
   96700    1.6887639    -5.213484       4691.4            2 
   96800    1.6692479   -5.2436703    4663.0927            2 
   96900    1.6834853   -5.1953149    4670.3222            2 
   97000    1.7054125   -5.2191401    4664.0407            3 
   97100    1.6434334   -5.2185358    4681.1257            3 
   97200    1.6826835   -5.2138095    4677.3885            2 
   97300    1.7171589   -5.1894968    4659.6446            1 
   97400    1.6544247   -5.1963172    4692.4011            1 
   97500    1.6519158   -5.2566776    4668.8138            1 
   97600    1.7020193   -5.2392028     4648.783            4 
   97700    1.6924343    -5.235356    4661.7263            1 
   97800    1.6715534   -5.2473932    4680.8207            1 
   97900    1.6993106   -5.2084506    4682.1085            2 
   98000    1.6616278   -5.1566562    4678.1372            1 
   98100    1.7182323   -5.2523546    4657.9746            1 
   98200    1.6426258    -5.217571    4660.2646            1 
   98300    1.6790501   -5.2044671    4664.3412            2 
   98400    1.6773811   -5.1371121    4685.1773            1 
   98500    1.6921023   -5.1925977    4675.1892            2 
   98600    1.6573025   -5.1985564    4676.1619            3 
   98700    1.7100534   -5.1601667    4668.7107            1 
   98800    1.7149998   -5.1984816    4667.9677            1 
   98900    1.6817926   -5.2448814    4689.0903            2 
   99000    1.6823756   -5.2222302    4671.4135            2 
   99100    1.6785664   -5.2346399    4640.1385            1 
   99200    1.7049279   -5.2239678    4658.7019            1 
   99300    1.7115522   -5.2027244     4684.481            1 
   99400    1.6479174   -5.2036477    4679.6249            1 
   99500    1.7001194   -5.1999757    4668.9174            1 
   99600    1.7011437   -5.2032139    4673.5293            1 
   99700    1.6587037   -5.2423345    4677.0506            1 
   99800    1.6976696   -5.2144067    4683.3651            1 
   99900    1.6945382   -5.2004785     4678.474            1 
  100000    1.7088491   -5.2421191    4667.3923            1 
  100100    1.6346173   -5.2198667    4662.9262            2 
  100200    1.6845225    -5.225335    4656.9002            1 
  100300    1.6576886   -5.2004501    4665.1024            3 
  100400    1.6958506   -5.1680947    4692.2841            2 
  100500    1.6549403   -5.1711316    4717.7016            3 
  100600    1.6894133   -5.1635451    4687.4967            2 
  100700    1.7092034   -5.1887971    4682.9313            1 
  100800    1.6924359   -5.2171948    4684.8004            1 
  100900    1.6885419   -5.2515035    4673.3359            2 
  101000    1.7156155   -5.2016459     4650.093            1 
  101100    1.6684766   -5.1909455    4687.2881            3 
  101200    1.6667767   -5.2438657    4651.4231            1 
  101300    1.6900738   -5.2075017    4680.6739            1 
  101400    1.6704394   -5.1998483    4667.3865            1 
  101500    1.6751278   -5.2237105    4644.9177            2 
  101600     1.665992   -5.2161253    4664.8142            2 
  101700    1.6783826   -5.2128569    4685.2313            1 
  101800    1.6923674   -5.1542199    4700.2231            2 
  101900    1.7001046   -5.1628904    4672.9422            2 
  102000    1.6707755   -5.1903352    4690.9433            1 
  102100    1.6551249   -5.2066571    4687.8858            2 
  102200    1.6943936   -5.2018438    4652.5917            2 
  102300    1.6673919   -5.1926847    4680.8306            2 
  102400    1.7140473   -5.1957188    4699.9488            2 
  102500    1.7184079   -5.1422691    4707.6521            3 
  102600    1.6696111    -5.175627    4688.2467            3 
  102700    1.6843749   -5.2043775    4694.4115            1 
  102800    1.7088338   -5.2030025    4686.6402            3 
  102900    1.6943429   -5.2282675    4684.0953            1 
  103000     1.678636    -5.196352    4669.4371            2 
  103100    1.6781233   -5.2001015      4663.01            1 
  103200    1.6949022   -5.2357999    4673.1031            1 
  103300    1.6652448   -5.2199977    4664.8439            1 
  103400    1.6807673   -5.2094994    4648.1288            2 
  103500    1.7020304   -5.2037442    4674.2675            2 
  103600    1.6578975   -5.1923365    4681.9257            1 
  103700    1.6802449   -5.2330115    4637.5581            1 
  103800    1.6766159   -5.2273889    4628.9751            2 
  103900     1.694367   -5.2359742    4689.6045            1 
  104000    1.6835036   -5.2233298    4691.5534            2 
Loop time of 328.027 on 20 procs for 100000 steps with 4000 atoms

Performance: 52678.633 tau/day, 304.853 timesteps/s
99.9% CPU use with 20 MPI tasks x no OpenMP threads

MPI task timing breakdown:
Section |  min time  |  avg time  |  max time  |%varavg| %total
---------------------------------------------------------------
Pair    | 26.105     | 27.949     | 29.422     |  19.2 |  8.52
Neigh   | 4.5066     | 4.6978     | 4.8798     |   4.7 |  1.43
Comm    | 14.289     | 16.73      | 19.085     |  31.9 |  5.10
Output  | 5.5651     | 5.5662     | 5.5803     |   0.1 |  1.70
Modify  | 267.97     | 270.68     | 272.97     |   7.2 | 82.52
Other   |            | 2.404      |            |       |  0.73

Nlocal:        200.000 ave         212 max         190 min
Histogram: 1 2 2 1 4 8 0 0 0 2
Nghost:        2180.30 ave        2199 max        2161 min
Histogram: 1 0 2 3 2 5 4 2 0 1
Neighs:        19469.0 ave       20968 max       17886 min
Histogram: 1 1 1 5 3 1 4 0 1 3
FullNghs:      38938.2 ave       41894 max       37361 min
Histogram: 2 3 5 4 2 2 1 0 0 1

Total # of neighbors = 778763
Ave neighs/atom = 194.69075
Neighbor list builds = 7679
Dangerous builds = 30

#clear
#
#next RN
#
#jump SELF
Total wall time: 0:05:29
