
units lj                  # Use reduced LJ style units
atom_style atomic         # Uncharged point particles
atom_modify map hash      # Needed for indexing of clusters etc
                          # Used to be able to find where atoms are in relation to each other.

lattice fcc 1.0 spacing 1 1 1
Lattice spacing in x,y,z = 1.5874011 1.5874011 1.5874011
region box block 0 10 0 10 0 10 units lattice
create_box 2 box
Created orthogonal box = (0.0000000 0.0000000 0.0000000) to (15.874011 15.874011 15.874011)
  3 by 4 by 4 MPI processor grid
create_atoms 1 box
Created 4000 atoms
  using lattice units in orthogonal box = (0.0000000 0.0000000 0.0000000) to (15.874011 15.874011 15.874011)
  create_atoms CPU = 0.011 seconds
set type 1 type/fraction 2 0.92 78393
Setting atom values ...
  3673 settings made for type/fraction
mass 1 1.0
mass 2 1.0
pair_style lj/cut  3.5
pair_modify tail  yes
pair_coeff 1  1  1.0  1.0   # Intearaction between 1 and 1 set with epsilon = 1 and sigma = 1
pair_coeff 1  2  1.5  0.8
pair_coeff 2  2  0.5  0.88

write_data data.0
System init for write_data ...
Neighbor list info ...
  update every 1 steps, delay 10 steps, check yes
  max neighbors/atom: 2000, page size: 100000
  master list distance cutoff = 3.8
  ghost atom cutoff = 3.8
  binsize = 1.9, bins = 9 9 9
  1 neighbor lists, perpetual/occasional/extra = 1 0 0
  (1) pair lj/cut, perpetual
      attributes: half, newton on
      pair build: half/bin/atomonly/newton
      stencil: half/bin/3d
      bin: standard
WARNING: Not all mixed pair coeffs generated from mixing. Use write_data with 'pair ij' option to store all pair coeffs. (../write_data.cpp:312)


#############################
#   M E L T   S Y S T E M   #
#############################

velocity all create 2.4 1741580 mom yes dist gaussian # Assign velocities
                                                    # Temperature 2.4, random number seed, zero linear momentum
                                                                                # Gaussian distribution

timestep 0.002   # simulation timestep
thermo 1000       # output thermodynamic data every 1000 steps bf 100

# Define a fix  in this case with index 1 applied to all
# particles in the simulation. This fix is for simulations
# in the anisotropic NPT ensemble. Note that we use the MTK
# correction.
fix 1 all npt temp 2.4 2.4 0.1 iso 5.68 5.68 0.5 mtk yes tchain 5 pchain 5 # Use NPT ensemble
                                                                         # Set temperature and pressure and damping
                                                                         # Numbers of thermostats in chain and in barostat
run 10000          # run for 10000 steps
Per MPI rank memory allocation (min/avg/max) = 3.642 | 3.644 | 3.648 Mbytes
Step Temp E_pair E_mol TotEng Press Volume 
       0          2.4   -3.0929104            0   0.50618957   -2.4174795         4000 
    1000    2.3616886   -2.0398884            0    1.5017588     5.695588    4072.1547 
    2000    2.3548022        -2.07            0    1.4613203    5.7913865    4034.3451 
    3000    2.4327246   -2.1101294            0    1.5380452    5.6422304    4039.0009 
    4000    2.4715567    -2.075123            0    1.6312852    5.6841681    4049.8283 
    5000    2.4266474   -2.0622525            0    1.5768087    5.5379514    4094.5587 
    6000    2.4082557   -2.0859923            0    1.5254881    5.7513454    4027.3809 
    7000    2.4586614   -2.0867128            0    1.6003573    5.8495193    4032.9353 
    8000    2.4134841   -2.0390809            0    1.5802402     5.775567    4057.8552 
    9000    2.3909526   -2.0315221            0    1.5540102    5.6012315      4101.39 
   10000    2.3992705   -2.1002296            0    1.4977764    5.7349189    4019.3613 
Loop time of 2.47862 on 48 procs for 10000 steps with 4000 atoms

Performance: 697163.378 tau/day, 4034.510 timesteps/s
99.5% CPU use with 48 MPI tasks x no OpenMP threads

MPI task timing breakdown:
Section |  min time  |  avg time  |  max time  |%varavg| %total
---------------------------------------------------------------
Pair    | 1.0716     | 1.1332     | 1.2144     |   3.0 | 45.72
Neigh   | 0.2045     | 0.21316    | 0.22598    |   1.0 |  8.60
Comm    | 0.75997    | 0.84912    | 0.94561    |   4.4 | 34.26
Output  | 0.00023914 | 0.00024617 | 0.00031519 |   0.0 |  0.01
Modify  | 0.23881    | 0.26817    | 0.30227    |   3.6 | 10.82
Other   |            | 0.01474    |            |       |  0.59

Nlocal:        83.3333 ave          92 max          74 min
Histogram: 2 3 4 8 6 3 9 6 5 2
Nghost:        1639.06 ave        1667 max        1609 min
Histogram: 3 2 8 2 7 7 5 6 3 5
Neighs:        9493.73 ave       10720 max        8224 min
Histogram: 3 1 5 6 11 5 8 2 2 5

Total # of neighbors = 455699
Ave neighs/atom = 113.92475
Neighbor list builds = 909
Dangerous builds = 215

# Equilibrate just above the melting temperature to avoid step fn in T

fix 1 all npt temp 1.25 1.25 0.1 iso 5.68 5.68 0.5 mtk yes tchain 5 pchain 5
run 2000
Per MPI rank memory allocation (min/avg/max) = 3.643 | 3.645 | 3.649 Mbytes
Step Temp E_pair E_mol TotEng Press Volume 
   10000    2.3992705   -2.1002296            0    1.4977764    5.7349189    4019.3613 
   11000     1.259439   -3.0948547            0   -1.2061685    5.9040301    3138.5645 
   12000    1.2531789   -3.1263715            0   -1.2470731    5.7250826    3135.2768 
Loop time of 0.582575 on 48 procs for 2000 steps with 4000 atoms

Performance: 593227.861 tau/day, 3433.032 timesteps/s
99.7% CPU use with 48 MPI tasks x no OpenMP threads

MPI task timing breakdown:
Section |  min time  |  avg time  |  max time  |%varavg| %total
---------------------------------------------------------------
Pair    | 0.26298    | 0.28448    | 0.307      |   1.9 | 48.83
Neigh   | 0.03831    | 0.040442   | 0.042642   |   0.5 |  6.94
Comm    | 0.18756    | 0.21045    | 0.23491    |   2.6 | 36.12
Output  | 4.9742e-05 | 5.1993e-05 | 6.7303e-05 |   0.0 |  0.01
Modify  | 0.040167   | 0.042518   | 0.044836   |   0.7 |  7.30
Other   |            | 0.004639   |            |       |  0.80

Nlocal:        83.3333 ave          92 max          76 min
Histogram: 4 6 1 9 5 8 7 2 4 2
Nghost:        1937.15 ave        1959 max        1914 min
Histogram: 5 1 3 4 8 8 8 3 6 2
Neighs:        12179.7 ave       13985 max       10565 min
Histogram: 4 5 5 4 6 9 6 6 1 2

Total # of neighbors = 584625
Ave neighs/atom = 146.15625
Neighbor list builds = 142
Dangerous builds = 8

#############################
# L I N E A R  Q U E N C H  #
#############################

# Define solid atoms. This closely follows ten Wolde  Ruiz-Montero and Frenkel  Faraday Discuss  1996  104  93-110
# Compute components of the per-atom q6 vector
compute q6 all orientorder/atom degrees 1 6 components 6 nnn NULL cutoff 1.3 # compute the Q6 parameter.
                                                                             # Use all neighbours within 1.3 unit cell.

# get number of connections
compute coord_number all coord/atom orientorder q6 0.5

# An atom is solid if it has 8 or more connections (of a possible 14)
variable is_solid atom c_coord_number>=8
group solid dynamic all var is_solid    # Must be dynamic to update
dynamic group solid defined

# do clustering
compute cluster solid cluster/atom 1.3 # Create a cluster where all atoms within are solid and max 1.3 units from another member

# define chunks one chunk per cluster
compute clus_chunks solid chunk/atom c_cluster nchunk every compress yes  # Says which atoms are in which chunk

# count the size of each chunk
compute size_chunks solid property/chunk clus_chunks count


# Find the maximum entry in the vector of chunk sizes
variable max_n equal max(c_size_chunks)


# Thermo style which includes this variable
# thermo_style custom step temp pe vol v_max_n

thermo ${N}  # Print the thermo information every 100 steps
thermo 1000  

# Reset the npt fix at a lower temperature (below freezing)
fix 1  all npt temp  ${temp} ${temp}  0.1  iso  5.68  5.68  0.5  mtk yes tchain  5  pchain  5
fix 1  all npt temp  0.45 ${temp}  0.1  iso  5.68  5.68  0.5  mtk yes tchain  5  pchain  5
fix 1  all npt temp  0.45 0.45  0.1  iso  5.68  5.68  0.5  mtk yes tchain  5  pchain  5

dump dmp2 all dcd ${N} traj.dcd
dump dmp2 all dcd 1000 traj.dcd


compute msd all msd com yes
variable twopoint equal c_msd[4]/6/(step*dt+1.0e-6)
fix 9 all vector 10 c_msd[4]
variable fit equal slope(f_9)/6/(10*dt)
thermo_style custom step temp pe c_msd[4] v_twopoint v_fit v_max_n

fix 1 all npt temp 1.25 ${temp} 0.1 iso 5.68 5.68 0.5 mtk yes tchain 5 pchain 5
fix 1 all npt temp 1.25 0.45 0.1 iso 5.68 5.68 0.5 mtk yes tchain 5 pchain 5
run 500000 # 5000000  # Run for this many steps
Neighbor list info ...
  update every 1 steps, delay 10 steps, check yes
  max neighbors/atom: 2000, page size: 100000
  master list distance cutoff = 3.8
  ghost atom cutoff = 3.8
  binsize = 1.9, bins = 8 8 8
  4 neighbor lists, perpetual/occasional/extra = 1 3 0
  (1) pair lj/cut, perpetual
      attributes: half, newton on
      pair build: half/bin/atomonly/newton
      stencil: half/bin/3d
      bin: standard
  (2) compute orientorder/atom, occasional
      attributes: full, newton on
      pair build: full/bin/atomonly
      stencil: full/bin/3d
      bin: standard
  (3) compute coord/atom, occasional
      attributes: full, newton on
      pair build: full/bin/atomonly
      stencil: full/bin/3d
      bin: standard
  (4) compute cluster/atom, occasional
      attributes: full, newton on
      pair build: full/bin/atomonly
      stencil: full/bin/3d
      bin: standard
Per MPI rank memory allocation (min/avg/max) = 9.822 | 9.828 | 9.836 Mbytes
Step Temp PotEng c_msd[4] v_twopoint v_fit v_max_n 
   12000    1.2531789   -3.1263715 1.8946467e-30 1.3157268e-32 8.3333333e+20            2 
   13000    1.2346539   -3.1298983    1.0524685 0.0067465926  0.088629809            1 
   14000    1.2575344   -3.1267659    2.1871525  0.013018764  0.091924032            2 
   15000    1.2320616   -3.1391447     3.347151  0.018595283  0.094808744            2 
   16000    1.2438737   -3.1073624    4.4904946  0.023387992  0.094987123            2 
   17000    1.2404926    -3.119081    5.6014332  0.027458005  0.094579774            1 
   18000    1.2265264   -3.1090962    6.6839126  0.030944039  0.094103935            2 
   19000    1.2226183   -3.1161261    7.7796106  0.034121098  0.093763323            2 
   20000    1.2388198   -3.1568664    8.9758886  0.037399535  0.093812299            2 
   21000    1.2133188    -3.129253    10.244698  0.040653563  0.094009478            1 
   22000    1.2419099    -3.129704    11.282306  0.042736007   0.09435439            2 
   23000    1.2293697    -3.165453    12.313738   0.04461499  0.094216907            4 
   24000    1.2217249   -3.1516907    13.435043  0.046649454  0.094173716            2 
   25000    1.2271231   -3.1519957    14.475772  0.048252572  0.093925729            2 
   26000    1.2400234   -3.1463457    15.610231  0.050032789  0.093688111            1 
   27000     1.227543   -3.1389754    16.729753  0.051635038  0.093546374            1 
   28000    1.1997996   -3.1556254    17.803954  0.052987958  0.093353638            2 
   29000     1.223876   -3.1690215    19.019463  0.054653628   0.09323507            2 
   30000     1.212524   -3.1824788    19.988341  0.055523169  0.093230191            4 
   31000    1.2350807   -3.1627596    21.195622  0.056977479  0.093153988            2 
   32000    1.1904562   -3.1708855    22.167909  0.057728928  0.093062937            1 
   33000    1.2156459   -3.1566168    23.322634   0.05889554   0.09289766            3 
   34000    1.2275578   -3.1490036    24.380265   0.05975555  0.092754536            1 
   35000    1.2162932   -3.1878645    25.433342  0.060555574  0.092644713            1 
   36000    1.2411399   -3.1476979    26.587251  0.061544562  0.092474758            2 
   37000    1.2063559   -3.1850265    27.460161  0.061847208  0.092326665            3 
   38000    1.2238389   -3.1811814    28.520783  0.062545576  0.092144145            1 
   39000    1.2282747   -3.1659152    29.700393  0.063462378  0.091996911            1 
   40000    1.2277426   -3.1468549    30.736496  0.064034365   0.09182392            1 
   41000     1.217995   -3.1987744    31.696155  0.064423078  0.091669522            1 
   42000    1.1856126   -3.1478152     32.86142  0.065201229  0.091508369            2 
   43000    1.2000341   -3.1823515    33.778815   0.06546282  0.091342676            2 
   44000     1.169769    -3.237992    34.488909  0.065319902  0.091065011            3 
   45000    1.1846029   -3.1508331    35.541332  0.065817281  0.090753515            2 
   46000    1.1750525   -3.1871443    36.605345   0.06631403  0.090469034            3 
   47000    1.1686606   -3.2008218    37.409425  0.066328767  0.090190536            2 
   48000    1.1757677   -3.1601675    38.425228  0.066710465   0.08989765            1 
   49000    1.2090202   -3.1284032     39.45084  0.067093265  0.089578914            2 
   50000    1.1649547   -3.1846793    40.391735  0.067319558  0.089274253            3 
   51000    1.1891301   -3.1969311    41.479844  0.067777522   0.08903008            1 
   52000    1.1825446   -3.1829244    43.025714  0.068951464  0.088900526            1 
   53000    1.2204287   -3.1887534    44.006343  0.069192363  0.088836291            1 
   54000    1.1935466   -3.2286066    44.858605  0.069226242  0.088757429            4 
   55000    1.1553482   -3.2226425    45.921352  0.069577806    0.0886437            4 
   56000    1.1999307   -3.2258483    46.970433  0.069896476   0.08854927            1 
   57000     1.169885    -3.170195    47.934742  0.070080032  0.088456461            1 
   58000     1.191561   -3.2241472    49.102649  0.070549783  0.088401094            1 
   59000    1.1761268   -3.2167829    50.248197  0.070972029  0.088329074            2 
   60000    1.1869851   -3.2109354    51.148926  0.071040175  0.088251247            2 
   61000    1.1598991   -3.2293783    52.339873  0.071502558  0.088188994            2 
   62000    1.1835656   -3.2289558    53.233327   0.07155017  0.088151064            2 
   63000    1.1414902   -3.2096099    54.102268  0.071563845  0.088086151            3 
   64000    1.1731499   -3.2190143    55.112911  0.071761602  0.087990849            2 
   65000    1.1543213   -3.2459953    56.138135  0.071971968  0.087917217            3 
   66000     1.173933   -3.2304746    57.234514    0.0722658  0.087848063            1 
   67000    1.1316608   -3.2316081    57.966681  0.072097861  0.087759095            3 
   68000    1.1618072   -3.2145826    59.312511    0.0726869  0.087675035            2 
   69000    1.1374245   -3.1952553     60.05421  0.072529239  0.087599678            1 
   70000     1.179746   -3.2470764    60.890185  0.072488315  0.087497223            2 
   71000    1.1181867   -3.2244752    61.936024  0.072694863  0.087400552            2 
   72000    1.1744975   -3.2443606    62.923252  0.072827838  0.087295978            1 
   73000    1.1430584   -3.2158838    63.906782  0.072952947  0.087176681            2 
   74000     1.146485   -3.1894764    65.136065  0.073351424   0.08707528            2 
   75000    1.1561413   -3.2419216    65.774984  0.073083315  0.086964151            1 
   76000    1.1385293   -3.2123002      66.7082  0.073144956  0.086842812            2 
   77000    1.1315942   -3.2629469     67.48679  0.073037652  0.086696339            2 
   78000    1.1468151   -3.2376023    68.760069  0.073461612  0.086591171            3 
   79000    1.1500558   -3.2338693    69.270067   0.07306969  0.086451621            2 
   80000    1.1419689   -3.2753917    70.271208  0.073199175  0.086313671            3 
   81000     1.133859   -3.2559066    71.386819  0.073443229  0.086198731            1 
   82000    1.1334322   -3.2629102    72.284753  0.073460115  0.086082307            3 
   83000    1.1423434   -3.2448579    73.186742  0.073480665  0.085971291            3 
   84000    1.1414955   -3.2591231    74.156577  0.073568032  0.085834403            1 
   85000     1.128288   -3.2803932    75.050574  0.073578994   0.08570659            2 
   86000    1.1468289   -3.2468099    76.181279  0.073819068  0.085574545            2 
   87000     1.143534   -3.2665067      76.5205  0.073295498  0.085438009            2 
   88000    1.1159314   -3.2950934    77.116421  0.073026914  0.085271207            1 
   89000    1.1120338   -3.2918986    78.093946  0.073121672  0.085108727            2 
   90000    1.1109677   -3.2390629    78.883938  0.073040683  0.084937442            3 
   91000    1.1312776   -3.2634295     80.06604  0.073320549  0.084766775            2 
   92000     1.130422   -3.2610867    80.453992  0.072874993  0.084595929            2 
   93000    1.1273123   -3.3188808    81.275231  0.072827267  0.084422992            1 
   94000    1.1066346   -3.2725274    82.353245  0.073008195  0.084261154            2 
   95000    1.1259721   -3.2801484    83.578206  0.073314215  0.084114983            5 
   96000    1.1311154   -3.3032247    84.170479  0.073064652  0.083970766            4 
   97000    1.1037982    -3.293459    84.917598  0.072953263  0.083815283            1 
   98000    1.0855259   -3.2793773    85.676866  0.072854478  0.083640719            2 
   99000    1.1190987   -3.2875278    86.601578  0.072896951  0.083453008            2 
  100000    1.1062762   -3.2888749      87.5922    0.0729935  0.083283652            2 
  101000    1.1065721   -3.3042752    88.318871  0.072870356  0.083134579            2 
  102000    1.1076058   -3.2705333    89.699747  0.073284107  0.082991773            1 
  103000    1.0789585   -3.2665324    90.147349  0.072934748  0.082843349            3 
  104000    1.1023835   -3.3246802    90.849376  0.072795974  0.082686992            4 
  105000    1.0864997    -3.325574    91.956657  0.072981473  0.082534499            2 
  106000    1.1240677   -3.2716862    92.823331  0.072974316  0.082404418            3 
  107000    1.0923527   -3.2974093    93.598495  0.072896024  0.082269114            3 
  108000    1.0958444   -3.3006334    94.635525  0.073021238  0.082121512            2 
  109000    1.0650466   -3.3480515    94.858756  0.072521984  0.081963203            2 
  110000    1.0939838   -3.3137089    96.064615  0.072776223  0.081815447            1 
  111000    1.0833793   -3.3169581    96.326437  0.072317145   0.08167168            2 
  112000    1.0776864   -3.3196278    97.358041  0.072439018  0.081514313            1 
  113000    1.0936182    -3.316405    98.293731  0.072488002   0.08135982            1 
  114000    1.0814741   -3.3429954    99.165708  0.072489552    0.0812075            3 
  115000    1.0784072   -3.3330389    99.696066  0.072243525  0.081060067            2 
  116000    1.0627927   -3.2991504    101.29797  0.072771529  0.080912174            2 
  117000    1.0907092   -3.3070246    101.62182  0.072380213   0.08077208            2 
  118000     1.077656   -3.3283188    102.79431  0.072594848  0.080639344            3 
  119000    1.0809505   -3.3075272    103.29335  0.072334281  0.080500013            2 
  120000    1.0758237   -3.3272659    103.83629  0.072108536   0.08035359            2 
  121000    1.0860684    -3.333079    105.23801  0.072477966  0.080206971            2 
  122000    1.0768758   -3.3189361    105.39617   0.07199192  0.080061262            1 
  123000    1.0584629   -3.3254653    106.40756  0.072091841  0.079922877            3 
  124000    1.0995675   -3.3467569    107.62218  0.072326736  0.079783761            2 
  125000    1.0736087   -3.3361829    107.75743   0.07183829  0.079651906            2 
  126000    1.0695513   -3.3396374    108.61138  0.071832924  0.079519067            2 
  127000    1.0791955   -3.3525094    109.37182  0.071766284  0.079373819            3 
  128000    1.0618396   -3.3430627    109.79798  0.071483059  0.079220606            2 
  129000    1.0795036   -3.3640519    110.22013  0.071201631   0.07905694            4 
  130000    1.0420766   -3.3569194    111.27329  0.071329031  0.078901871            5 
  131000    1.0461341   -3.3578103    112.13886  0.071335151  0.078743591            3 
  132000    1.0619258   -3.3598546    112.63943  0.071110751  0.078584394            3 
  133000    1.0482247   -3.3714947    113.15731  0.070900569   0.07841966            1 
  134000    1.0563777   -3.3681261     113.4774  0.070570521    0.0782497            3 
  135000    1.0348609   -3.3811203    114.46286  0.070656084  0.078081277            1 
  136000    1.0539385   -3.3508907    115.48205  0.070761058  0.077920485            2 
  137000     1.045771    -3.378922    115.88817  0.070491585  0.077757324            4 
  138000    1.0541478   -3.3791739    116.80855  0.070536564  0.077589806            2 
  139000    1.0593256   -3.3380117     117.6895  0.070557251  0.077432396            2 
  140000    1.0148567   -3.3764054    118.67701  0.070641075   0.07728463            3 
  141000    1.0290117   -3.3695269    118.79969  0.070212581  0.077134397            1 
  142000    1.0563195   -3.3894754    119.88001   0.07035212  0.076984857            3 
  143000    1.0370994     -3.40504    120.98575  0.070504516  0.076843152            2 
  144000    1.0416185     -3.38219    121.53014  0.070329939   0.07670282            2 
  145000    1.0297335   -3.3758957    121.76732   0.06998122  0.076561251            4 
  146000     1.022617   -3.3474205    123.12878  0.070278985  0.076422908            2 
  147000    1.0417101   -3.4155068     123.9314  0.070255897  0.076286724            2 
  148000    1.0452667   -3.3866303    125.16736  0.070477119  0.076154865            2 
  149000    1.0315636   -3.4049573    125.28166  0.070068043  0.076022791            1 
  150000    1.0269208   -3.3884864    126.56993  0.070316629   0.07589528            2 
  151000     1.045731   -3.3932178    126.32853   0.06971773  0.075771143            3 
  152000    1.0367576   -3.3716411    127.77371  0.070051377  0.075644299            3 
  153000    1.0391832   -3.4309569    128.36075   0.06991326  0.075513794            2 
  154000    1.0176982   -3.4151534    129.26886  0.069950679  0.075391087            5 
  155000    1.0532877   -3.3939761    129.81021  0.069790435  0.075264134            3 
  156000    1.0208325   -3.4383921     130.3641  0.069638942   0.07513788            2 
  157000    1.0352999    -3.410393    131.43071  0.069761521   0.07501578            2 
  158000    1.0188445   -3.3985602    132.23929  0.069746462  0.074891331            2 
  159000    1.0166868   -3.4324633    132.95015  0.069680373   0.07476653            2 
  160000   0.99451307   -3.4333548    133.41328  0.069486085  0.074644298            3 
  161000    1.0091555   -3.4165005    134.59784  0.069667617  0.074529702            3 
  162000      1.01576   -3.4171676    135.75542  0.069833033  0.074417069            4 
  163000    1.0076527   -3.4375257    136.14442  0.069603489  0.074305478            3 
  164000    1.0129371   -3.4452204    136.77313  0.069498542  0.074199895            5 
  165000     1.011569   -3.4174013    137.17442  0.069280008  0.074090963            5 
  166000    0.9942279   -3.4457413    137.82107  0.069187286  0.073983922            1 
  167000   0.99474947    -3.473184    137.89937  0.068812059  0.073867086            2 
  168000   0.98741384   -3.4434737    138.56651  0.068733387  0.073745252            2 
  169000    1.0156429   -3.4485078    140.32149  0.069192054  0.073628418            2 
  170000    1.0102361    -3.438966    140.52641  0.068885494  0.073512331            2 
  171000   0.98744482   -3.4515042    140.65688  0.068546237  0.073394321            2 
  172000    1.0137856   -3.4435857    141.66125  0.068634328  0.073275879            3 
  173000   0.98678323   -3.4275544    141.92075  0.068362597  0.073157415            2 
  174000   0.99192058   -3.4516618    142.92318    0.0684498  0.073035016            4 
  175000   0.97445323   -3.4838835    143.45089  0.068309948  0.072918161            2 
  176000   0.96984009   -3.4565423    144.77679  0.068549616  0.072799423            1 
  177000   0.96545131   -3.4633535    145.49463  0.068500296  0.072688704            2 
  178000    0.9770455   -3.4853486    145.53136  0.068132661  0.072574772            3 
  179000     1.005049   -3.4599563    146.24215  0.068082938  0.072464199            2 
  180000   0.98861639    -3.455385    147.13898  0.068119899  0.072349913            3 
  181000   0.96860128   -3.4597261    147.79111  0.068043787  0.072233198            2 
  182000   0.99661699   -3.4529405    148.02674   0.06777781  0.072120455            6 
  183000   0.97172431   -3.4444418    149.21721  0.067949548  0.072007626            2 
  184000   0.96635569   -3.4753575     149.1153  0.067534102  0.071893638            3 
  185000   0.98296758   -3.4764722    149.68673  0.067426456   0.07177576            2 
  186000   0.95696199    -3.491966    151.47384  0.067864624  0.071666937            2 
  187000   0.96787061   -3.4714886    152.13466  0.067796195  0.071559776            2 
  188000   0.97334065   -3.5260957    152.17134  0.067451833  0.071452238            4 
  189000   0.97927951   -3.4751881    152.59542  0.067281933  0.071342481            3 
  190000    0.9755113     -3.49645    153.42959   0.06729368  0.071236791            2 
  191000   0.96989502   -3.5048703    154.71445  0.067501941  0.071131062            2 
  192000   0.95763898   -3.4960258    154.70027  0.067144213  0.071023771            5 
  193000   0.95537316   -3.5278798    156.18836  0.067438841  0.070919043            2 
  194000   0.94166541   -3.5281665    156.94769  0.067417392  0.070819592            4 
  195000   0.94479371   -3.4993795     157.8568   0.06746017  0.070726571            4 
  196000   0.94078241   -3.5131531    158.39985  0.067346873  0.070632649            4 
  197000   0.96565063   -3.5056538    158.98917  0.067254303  0.070540621            5 
  198000   0.95524604   -3.5150674    160.35804  0.067490757  0.070454763            2 
  199000   0.94276084   -3.5111931    160.63874  0.067269153  0.070369038            5 
  200000   0.95167417   -3.4874721    161.45421  0.067272587  0.070280853            3 
  201000   0.93560713   -3.5233075    161.68008  0.067031543  0.070192067            3 
  202000   0.94452111   -3.5411713    162.49887  0.067037487  0.070103617            3 
  203000   0.92344915   -3.5486156    163.60701  0.067162155  0.070016744            2 
  204000    0.9297241   -3.5055388    164.59842  0.067237916  0.069935742            3 
  205000   0.93465128   -3.4948742    164.58154  0.066903066  0.069849843            2 
  206000   0.94575481   -3.4810582    165.10636  0.066790598  0.069764419            4 
  207000   0.93921417   -3.5284989    165.12824  0.066476748   0.06967577            3 
  208000   0.94807987   -3.5402317    165.65573   0.06636848  0.069582645            3 
  209000   0.92219736    -3.518777    166.58442  0.066421218  0.069487887            4 
  210000   0.94612307   -3.5455421    167.80814  0.066590531  0.069393626            2 
  211000   0.91849296   -3.5555739    168.27619  0.066459792  0.069303814            2 
  212000   0.93656355   -3.5571084    168.51478  0.066240087  0.069215701            3 
  213000   0.92783511   -3.5485365    169.15892  0.066181112  0.069123232            4 
  214000   0.92771052   -3.5640524     169.2686  0.065914565  0.069026661            3 
  215000   0.94343313    -3.532582    169.92532  0.065862528  0.068931828            2 
  216000   0.91243424    -3.562929     169.8302  0.065520909   0.06883693            3 
  217000   0.91053668    -3.574773    171.16657   0.06573217  0.068740459            2 
  218000   0.90614961   -3.5605544    170.87922  0.065320803  0.068640343            3 
  219000   0.91110786   -3.5632268    171.45771  0.065242661  0.068539443            4 
  220000   0.90743653   -3.5795835    172.48948  0.065336922  0.068438964            3 
  221000   0.93069073   -3.5746814    173.39577  0.065383019  0.068340635            2 
  222000    0.9272918   -3.5603071    174.11857  0.065359823  0.068243931            4 
  223000   0.89837283   -3.5596538    174.36008   0.06515698  0.068148041            3 
  224000   0.90295015   -3.5729502    174.92134  0.065074903  0.068050378            2 
  225000   0.90469713    -3.591801    175.74075  0.065089168  0.067952808            7 
  226000   0.92907038   -3.5752943    176.64604  0.065134971  0.067856398            5 
  227000   0.90880218    -3.591247     176.6447   0.06484754  0.067761334            3 
  228000   0.88547916   -3.5941807    177.00542  0.064694962  0.067661662            9 
  229000   0.90621218   -3.5676407     177.8935  0.064735627  0.067564115            3 
  230000    0.8803166   -3.5825567    178.48204  0.064667406  0.067467383            4 
  231000   0.90319018   -3.5865161    178.43911  0.064371972  0.067368659            3 
  232000   0.88579279   -3.5878018    179.70451  0.064549033  0.067268032            5 
  233000   0.90021407   -3.5892654    179.41503  0.064168464  0.067164748            4 
  234000   0.89702522   -3.5858507    180.27574  0.064200763  0.067063008            4 
  235000   0.88489908   -3.5706814    180.35916  0.063957148  0.066961502            2 
  236000   0.91456039    -3.609097    180.87334  0.063867704  0.066857977            5 
  237000   0.90094179     -3.59519     180.6378  0.063515402  0.066751958            4 
  238000   0.91539508   -3.6249734     181.7119  0.063624614  0.066645961            9 
  239000   0.90254422   -3.6151744    182.02217  0.063466586  0.066540779            3 
  240000   0.89411278    -3.614574    183.36217  0.063667421  0.066435017            3 
  241000   0.88351937   -3.6156346    183.71791  0.063526247   0.06632979            2 
  242000   0.86955059   -3.6295839    184.67669  0.063593901  0.066223613            4 
  243000   0.86383788   -3.5906389    184.53981  0.063285257  0.066117186           10 
  244000   0.87767141   -3.6379784    185.00399  0.063184423  0.066011907            3 
  245000   0.88174267   -3.6303312    185.06582  0.062947557  0.065903636            3 
  246000   0.88229368   -3.5988325    186.36864  0.063133009  0.065798025            4 
  247000   0.87469911   -3.6156647    187.09031  0.063120886  0.065688925            4 
  248000   0.85309172   -3.6213843    186.79507  0.062767161  0.065579131            2 
  249000   0.87390442   -3.6501602    187.30643  0.062686222  0.065471738            4 
  250000   0.85915742   -3.6114053    187.94084  0.062646945  0.065363836            3 
  251000   0.85123744   -3.6406294     187.6687  0.062307006  0.065252116            3 
  252000   0.86804162   -3.6609645    188.63749  0.062380123  0.065141056            2 
  253000   0.88101211   -3.6444688    188.51503  0.062093225  0.065029446            6 
  254000   0.86097028   -3.6412116    189.00903  0.062010838  0.064916504            4 
  255000   0.86269134    -3.642285    189.52055  0.061934819  0.064800701            4 
  256000   0.85741091   -3.6509764    189.45241  0.061670707  0.064686119            5 
  257000   0.85570977   -3.6714004    189.69373   0.06150899  0.064569821            2 
  258000   0.85601645   -3.6277815    191.00494  0.061694102  0.064453464            2 
  259000   0.86348046    -3.643008    190.82949  0.061399451  0.064340211            3 
  260000   0.85322421   -3.6679798    191.09091  0.061247086  0.064226526            4 
  261000   0.86890738   -3.6569627     191.7609  0.061226342    0.0641128           10 
  262000   0.86715096   -3.6293019    192.84397  0.061337142  0.064000546            3 
  263000   0.84955884   -3.6672937    192.55644  0.061012815  0.063887475            4 
  264000   0.85102759   -3.6894154    192.52135  0.060770627  0.063772531            2 
  265000   0.83968068    -3.686715    193.56488  0.060869459  0.063655991            4 
  266000   0.84944101   -3.6836313    193.70977  0.060686017  0.063542778            5 
  267000   0.82670082    -3.697431    194.14626  0.060594961  0.063429849           10 
  268000   0.85639723   -3.6683077    195.26624  0.060717113  0.063314992            7 
  269000   0.84700152   -3.7091551    194.67491  0.060308212  0.063198548            5 
  270000   0.81780101   -3.6563493    195.40118  0.060309007  0.063082238            3 
  271000   0.82052296   -3.6735292    195.33059  0.060064757  0.062966959            5 
  272000   0.84471494   -3.6846815    196.51243  0.060206014  0.062850612            4 
  273000   0.83015914   -3.6761023    196.28329  0.059915535  0.062733795            7 
  274000   0.81990217   -3.6770867    196.85232  0.059869927  0.062617396            4 
  275000   0.83586043    -3.656979    197.01498   0.05970151  0.062500339            4 
  276000   0.82214395   -3.7043697    196.87723  0.059443608    0.0623836            4 
  277000   0.82440841   -3.7014905     197.3017  0.059356708  0.062263119            3 
  278000   0.82031684   -3.6903352    198.70566  0.059564048  0.062143962            3 
  279000   0.83639307    -3.710764    199.31557  0.059532727  0.062028205            5 
  280000   0.82054106   -3.7165714    198.84377  0.059179694  0.061912968            5 
  281000   0.82979193   -3.7116986    199.96346  0.059301146  0.061798406            3 
  282000   0.80484083   -3.7043861     200.1597  0.059148847  0.061683553            2 
  283000   0.81850612   -3.7396387    200.19207  0.058949372  0.061567284            6 
  284000   0.82539402   -3.6967628    200.71761  0.058896012  0.061451827            3 
  285000   0.79893071   -3.7422476    200.81343  0.058717376  0.061335705            5 
  286000   0.80913614   -3.7203378    200.85338  0.058523712  0.061219777            4 
  287000   0.81530786   -3.7223426    202.51076  0.058801032   0.06110361            9 
  288000   0.82306404   -3.7288361    202.45434  0.058580539  0.060988274            4 
  289000   0.80522781   -3.7403025    201.96057  0.058235457  0.060873194            5 
  290000   0.81704415    -3.740059    203.01336  0.058337173  0.060756498            5 
  291000   0.79822917   -3.7541252    202.26766  0.057923156  0.060637969            5 
  292000   0.77483446   -3.7179136    203.10826  0.057964685  0.060518679            5 
  293000   0.80189978   -3.7480333    202.84238  0.057691233  0.060398971            5 
  294000   0.81912093    -3.737079    203.52751  0.057689202   0.06027841            3 
  295000   0.78605116   -3.7468288    204.06391  0.057645172  0.060159844            5 
  296000   0.80690229   -3.7421009    204.45083  0.057559356  0.060042668            3 
  297000    0.8145964   -3.7556551    204.88091  0.057486225  0.059925212            3 
  298000   0.80122525   -3.7373669    205.20962  0.057385241   0.05980793            6 
  299000   0.80462484   -3.7645158    205.09892  0.057162465  0.059689419           12 
  300000   0.76944752   -3.7611613    205.97317   0.05721477  0.059572662            9 
  301000   0.78958493   -3.7826218      205.629  0.056929403  0.059455214            8 
  302000   0.79432989   -3.7936088    206.37304  0.056946203  0.059338652            3 
  303000   0.79071076   -3.7874393    206.42275  0.056771934  0.059221945            9 
  304000   0.75971203   -3.7633089       207.81  0.056965461  0.059106486            4 
  305000   0.77990223    -3.793554    206.33317  0.056375183  0.058989999            6 
  306000   0.77024706   -3.7493936    207.39164  0.056479206  0.058871116            2 
  307000   0.77527505   -3.7989421     207.4008  0.056297719  0.058755767            2 
  308000   0.77796058   -3.7823069    208.48973   0.05640956  0.058640214            8 
  309000   0.77439038    -3.794548    208.28771  0.056172521  0.058523431            3 
  310000   0.77110963   -3.7863589     208.4957  0.056047231  0.058407177            4 
  311000   0.76573915   -3.7772804     209.9117  0.056246437  0.058290175            3 
  312000   0.76301881   -3.7801699    208.62384  0.055722178  0.058172843            6 
  313000   0.77492863   -3.7886249    209.87915  0.055878369  0.058055222            5 
  314000   0.76771691   -3.7747256    210.05195  0.055746272  0.057936806            4 
  315000   0.76057578   -3.8106466    210.46208  0.055677799  0.057818207            2 
  316000   0.76485411   -3.7901198    209.99768  0.055379135  0.057700711            3 
  317000    0.7529145    -3.792137    210.62473  0.055369278  0.057583619            5 
  318000   0.75604372   -3.7927018    211.06083  0.055309441  0.057465763            4 
  319000   0.74252291   -3.8075915    211.00189  0.055120662  0.057347311            4 
  320000   0.74444823    -3.815099    211.12851  0.054981382  0.057228491            6 
  321000    0.7437013   -3.8008122    211.56549  0.054923544  0.057107706            2 
  322000   0.74795106    -3.839794    211.38191  0.054705464  0.056989021            4 
  323000   0.75572784   -3.8176434    211.24998   0.05450206  0.056867936            4 
  324000    0.7413163   -3.8303665    211.38535  0.054368661  0.056747578            5 
  325000   0.73466291   -3.8372294    212.06627  0.054375968  0.056626395            6 
  326000   0.75935627   -3.8358288    212.14698  0.054229801  0.056505989            3 
  327000   0.73743633   -3.8377286    212.76313  0.054220982  0.056385509            4 
  328000   0.74139158    -3.834067    213.32282  0.054197872  0.056267055            3 
  329000    0.7569226    -3.832585    212.89514  0.053924807  0.056148178            4 
  330000   0.73758944   -3.8319403    213.69794  0.053964125  0.056031469            6 
  331000   0.72981741   -3.8481586    214.32167  0.053958125  0.055915114            4 
  332000   0.73170488   -3.8395376    214.37967  0.053810159  0.055799058            4 
  333000   0.74374693   -3.8308581     214.7706  0.053746395  0.055682866            8 
  334000   0.75037435    -3.849715    214.48669  0.053514644  0.055566083            6 
  335000   0.73669745   -3.8659182    215.29753    0.0535566  0.055449138            7 
  336000    0.7313559   -3.8386071     216.0294  0.053578721  0.055334318            6 
  337000   0.73395613   -3.8552008    215.10516  0.053191188  0.055220134            5 
  338000   0.72538908   -3.8837448    215.95356  0.053242989  0.055104811            6 
  339000   0.73526961   -3.8803297    216.32139  0.053176349   0.05499092            3 
  340000    0.7406223   -3.8704207    216.69202  0.053110788  0.054876916            3 
  341000   0.74216224    -3.872922    216.72606  0.052963358  0.054761778            8 
  342000   0.74262555   -3.8644368    216.97516  0.052869191  0.054647909            5 
  343000    0.7144107   -3.8787511    217.03147  0.052728734  0.054532428            8 
  344000    0.7223913    -3.849739    217.03842  0.052577137  0.054417308            6 
  345000   0.72334153    -3.878852    216.80122  0.052367445  0.054302272           14 
  346000   0.70581403   -3.8787332    217.80206  0.052457143  0.054186345            5 
  347000   0.72351201   -3.9012356    218.08468  0.052373842  0.054071831            7 
  348000   0.71193007   -3.8900256    217.75314  0.052143951  0.053957257            8 
  349000   0.70761899   -3.8906812    218.99027   0.05228994  0.053843581            5 
  350000   0.71171617    -3.902999    219.02851  0.052149645  0.053732187            4 
  351000   0.70627623   -3.9221001    219.48392  0.052109192  0.053619983            5 
  352000   0.69784136    -3.923497    218.91926  0.051827476  0.053507286            5 
  353000   0.69476244   -3.8831623    219.30229   0.05177108  0.053395717            6 
  354000   0.71621623   -3.9267243    219.34366  0.051634572  0.053283535            3 
  355000   0.69571286   -3.9164922    220.03831  0.051652185   0.05317059            4 
  356000   0.71669158   -3.9387561    219.73797  0.051436791  0.053057215           11 
  357000    0.7008087   -3.9245305    219.68387  0.051280081  0.052944091            8 
  358000   0.70588918   -3.9131977    220.12888  0.051240428  0.052831016            9 
  359000   0.69718151   -3.9268403    220.19925  0.051114033  0.052718216            4 
  360000   0.69638657   -3.9241868    220.44134  0.051028087  0.052604885            7 
  361000   0.70442878   -3.9231022    221.34011  0.051094207  0.052492048           11 
  362000   0.69003376   -3.9514067    220.81443  0.050832051  0.052379498            7 
  363000   0.67924483   -3.9297148    221.10785  0.050759378  0.052267298            5 
  364000    0.6999539   -3.9473399    220.55406  0.050493145  0.052153875            4 
  365000   0.68598264   -3.9258388    222.24843  0.050741651   0.05204075            5 
  366000   0.70671154   -3.9342088     220.9782  0.050313798  0.051927058            4 
  367000   0.67589625   -3.9589017    221.16886  0.050219995  0.051813099           10 
  368000   0.68108796   -3.9373169     221.7981   0.05022602  0.051699562            4 
  369000   0.67023546   -3.9482559    221.45607  0.050012662  0.051584943            7 
  370000   0.66461118   -3.9375479    221.60987  0.049912133  0.051471871            4 
  371000   0.69518082   -3.9595164    221.91107  0.049845253  0.051357417            5 
  372000   0.66961607   -3.9329388    223.00051   0.04995531  0.051244593            9 
  373000   0.68690856   -3.9414121    222.19173  0.049640691  0.051131371            4 
  374000   0.68798065   -3.9653157    222.79093  0.049641472  0.051018991            5 
  375000   0.67743992   -3.9788764    222.80085    0.0495113  0.050906735            6 
  376000   0.66454784   -3.9844768    223.05536  0.049436029  0.050794864            5 
  377000   0.66741197   -3.9447752     223.1784  0.049332095  0.050683629            6 
  378000   0.67712778    -3.975951    223.16682  0.049199034  0.050572305            7 
  379000    0.6687078   -3.9875227    223.38529  0.049117258  0.050460223            5 
  380000   0.65655644   -3.9693135    223.07249  0.048919406  0.050347677            5 
  381000   0.66918201   -3.9581919    223.45854  0.048875446  0.050236154            7 
  382000    0.6551737   -4.0043562    222.84077  0.048612733  0.050124437            4 
  383000   0.64374342   -3.9777547    224.14197  0.048768922   0.05001248            7 
  384000   0.64398338   -3.9629983    224.36558  0.048690447   0.04990043            9 
  385000   0.65243856   -3.9798489    224.41482  0.048574637  0.049789407            4 
  386000   0.65590557    -3.967283    224.67641   0.04850527  0.049678532            5 
  387000    0.6294279    -4.002826    223.71502  0.048172916  0.049566422            7 
  388000   0.65926991   -3.9945474    224.20103  0.048153141  0.049454171            9 
  389000   0.65313211   -4.0327784    224.07212   0.04800174  0.049341678            4 
  390000   0.64622546   -4.0265813    224.92081  0.048060003  0.049230087            8 
  391000   0.63679417   -3.9976953    224.77727  0.047906494  0.049119117           12 
  392000   0.63829291   -4.0120159    224.56228  0.047738581  0.049008024            5 
  393000   0.64627945   -4.0178785    224.95767  0.047700948  0.048897021            5 
  394000    0.6299274   -4.0034558    225.71924  0.047740955  0.048785381            6 
  395000   0.63579432   -4.0410236    224.82231  0.047430868  0.048674224           11 
  396000    0.6086392   -4.0260199    224.56493   0.04725693  0.048563374            5 
  397000   0.63596103    -4.026587    225.17357  0.047265653  0.048452561            6 
  398000   0.62716856   -4.0462906    225.68254  0.047253462  0.048341945            7 
  399000   0.63335568   -4.0335617    225.16818  0.047027607  0.048231228            8 
  400000    0.6181856   -4.0406796      225.737  0.047028541  0.048121469           14 
  401000   0.61514142   -4.0336963    225.71744    0.0469072  0.048012114            6 
  402000   0.62235279   -4.0608824    226.35632  0.046922952  0.047902363            9 
  403000   0.64104266   -4.0394589    225.76835  0.046684937  0.047792005            9 
  404000   0.61859402   -4.0488603    225.56197  0.046526808  0.047682059           11 
  405000   0.62005077   -4.0626827    225.87615  0.046476575  0.047572163            9 
  406000   0.62088245   -4.0422209    226.49707  0.046489547  0.047462103           10 
  407000   0.61095673   -4.0492194    226.62891  0.046402316   0.04735236           12 
  408000   0.61838822   -4.0569196    227.00572  0.046365547  0.047242906            5 
  409000   0.60900836   -4.0695331    226.62633  0.046174883  0.047133879            7 
  410000    0.6145808   -4.0693045    226.72479  0.046082274  0.047025999           10 
  411000   0.62944603   -4.0883601    226.36112  0.045896415  0.046917614            7 
  412000   0.58741211   -4.0941667     226.4006  0.045793001  0.046808076           11 
  413000   0.62321431   -4.0823324    226.95188  0.045793358  0.046699378           16 
  414000   0.60425464   -4.0889985    226.74897  0.045641903  0.046590405            7 
  415000   0.59962541   -4.0923202    226.67999   0.04551807  0.046481274            5 
  416000   0.59845301   -4.0811718    226.92593  0.045457918  0.046371909            6 
  417000   0.60204706   -4.1246689    226.93787  0.045351294  0.046262929           11 
  418000   0.59666896   -4.0796317    226.94285  0.045243789  0.046154055           13 
  419000    0.6055632   -4.0855547    227.27315  0.045201501  0.046045555            5 
  420000   0.57884109   -4.1069235    227.32537  0.045104241  0.045936539           10 
  421000   0.60181046   -4.1040764     226.6639  0.044866172  0.045827657           10 
  422000   0.59020527    -4.126804    226.61268  0.044749739  0.045718728           13 
  423000   0.58558788   -4.1041456    226.59729  0.044640915  0.045609423           10 
  424000   0.58340991   -4.1237363    226.91805  0.044598673  0.045500761           11 
  425000   0.59198085   -4.1037968    227.32891  0.044574296   0.04539244            9 
  426000   0.60109352   -4.1099249      227.755  0.044553012  0.045284815           10 
  427000   0.58653209    -4.132098    227.19296  0.044338985  0.045176568            8 
  428000   0.57930253   -4.1073294    227.30785  0.044257759  0.045068632           10 
  429000   0.59203608   -4.1299755    227.08046  0.044110423  0.044960596           20 
  430000   0.58771305   -4.1367307    227.83323  0.044153727  0.044852704           27 
  431000   0.58811325   -4.1315384    228.25498  0.044132827  0.044745323           17 
  432000   0.57819997    -4.124239    227.45264  0.043875894  0.044638321           18 
  433000   0.58355378   -4.1312961    226.90493  0.043669155  0.044530451           11 
  434000   0.58583364   -4.1508167    226.83017  0.043554181  0.044422886           10 
  435000   0.58308939   -4.1544963    227.35202  0.043554026  0.044315912            7 
  436000   0.56477927   -4.1234174    228.16825   0.04361014  0.044209649            5 
  437000    0.5760757   -4.1610604     228.3969  0.043553948  0.044103275            8 
  438000   0.56244752   -4.1608357    228.28558   0.04343333  0.043997302            6 
  439000    0.5767187   -4.1482829    228.07372  0.043294176  0.043891612           10 
  440000   0.57738706   -4.1569851    227.81325  0.043146449   0.04378601            8 
  441000   0.56295091   -4.1504981    228.06973  0.043097077  0.043680599            7 
  442000   0.56813828   -4.1746147    228.09824  0.043004948  0.043574989           14 
  443000   0.55998762   -4.1776303    228.34387  0.042954077  0.043470042           10 
  444000   0.56513542   -4.1569911    228.39175   0.04286632  0.043365471            5 
  445000   0.56398049    -4.165908    227.99214  0.042695158  0.043261847           13 
  446000    0.5616968   -4.1761393    228.45396  0.042685718  0.043157747            9 
  447000   0.55412221    -4.180951       229.02  0.042695749  0.043054197           12 
  448000    0.5358159   -4.1609947    228.85621   0.04256998  0.042951124            5 
  449000   0.55556273   -4.1884941    228.12161  0.042338829  0.042848113           16 
  450000   0.53615034   -4.1948832    228.62048  0.042337125  0.042744563            8 
  451000   0.53792914    -4.169518     228.8235  0.042280765  0.042641216           10 
  452000   0.53595278   -4.2003533    229.08452  0.042235346  0.042537875           11 
  453000   0.54823721   -4.2018718    229.21186  0.042165536  0.042435297           17 
  454000   0.54113876   -4.2101271    228.57286  0.041955371   0.04233213           36 
  455000   0.54822884   -4.2092817    228.22639  0.041799705   0.04222916           13 
  456000    0.5404555   -4.2088106    228.80711  0.041814165  0.042126663           23 
  457000   0.53921353   -4.2075251    228.83573  0.041727886  0.042024869           29 
  458000   0.54634962   -4.2287581    229.23769  0.041709914  0.041923519           12 
  459000   0.52453366   -4.2190609    229.33657  0.041636995  0.041822408           11 
  460000    0.5341915   -4.2355541    229.58965  0.041592329  0.041721188           16 
  461000   0.53798883   -4.2185673    229.63148  0.041509667  0.041620244           14 
  462000   0.53442003   -4.2221586    229.79715  0.041449702  0.041519801           27 
  463000   0.51859709   -4.2385999    229.40754  0.041290054  0.041419575           23 
  464000   0.52375764   -4.2313705    229.38992  0.041197902  0.041319007           16 
  465000   0.52598461   -4.2447304    229.36666  0.041105136  0.041218363           34 
  466000   0.51790594   -4.2511213    228.99669  0.040950767  0.041118021           26 
  467000   0.51342663   -4.2474036    229.06102  0.040874557  0.041017745           10 
  468000   0.52325024   -4.2563804     229.0622  0.040787428  0.040917476           23 
  469000   0.52122176   -4.2471785    229.07425  0.040702604  0.040817604           11 
  470000   0.50784539    -4.236619    228.90594  0.040586159  0.040718195           19 
  471000   0.51228546   -4.2638708    229.11815  0.040537536  0.040618791           11 
  472000   0.52259232   -4.2689533     228.9776  0.040426836   0.04051942           18 
  473000    0.5167718   -4.2720258    229.07617  0.040358732  0.040420018           19 
  474000   0.51029626   -4.2693422    228.94791  0.040251038  0.040320498           12 
  475000   0.50155177   -4.2626102      229.435  0.040251754  0.040221173           20 
  476000   0.51190408   -4.2481538    229.06347  0.040102148  0.040121974           15 
  477000   0.50952879   -4.2799201    228.94864  0.039998015   0.04002282           16 
  478000   0.51085773   -4.2584882    229.27437  0.039971125  0.039923933           15 
  479000   0.51010831   -4.2824853    228.84211  0.039812475  0.039825782           11 
  480000   0.49262467   -4.2881023    228.63598  0.039693747  0.039727599           13 
  481000   0.49539574   -4.2848962    229.35988  0.039736638  0.039629507           22 
  482000   0.50352216   -4.2860576    229.37514  0.039656837  0.039531483           17 
  483000   0.49018889   -4.2730298    229.56334  0.039607202   0.03943412           24 
  484000   0.48604832   -4.3132755    229.32662   0.03948461  0.039336927           36 
  485000    0.4900039   -4.3035148    229.29567  0.039397881  0.039239431           17 
  486000   0.48506407   -4.3092645     229.0179  0.039269188  0.039142005           37 
  487000   0.48328391   -4.3106375    229.01144  0.039187447  0.039044719           26 
  488000   0.49541619   -4.3164586    229.15479  0.039131624  0.038947611           24 
  489000   0.48019744   -4.3174655    229.09556  0.039041507  0.038850342           17 
  490000   0.49205313   -4.3187416    229.59061  0.039046022  0.038753591           11 
  491000   0.49529902   -4.3238948    229.50048  0.038951201  0.038657087           31 
  492000   0.48929698   -4.3228482     228.8336  0.038759078  0.038560868           13 
  493000   0.47909237   -4.3207888    229.36041  0.038769508  0.038464537           14 
  494000   0.48428611   -4.3220183    228.79765  0.038596095  0.038368576           28 
  495000   0.47906265   -4.3224276    228.70859  0.038503129  0.038273326           17 
  496000    0.4705914     -4.34052    229.65692  0.038584832  0.038177893           40 
  497000   0.47021417   -4.3372737    229.36807  0.038458765  0.038083125           14 
  498000   0.46544136   -4.3518028    229.17153   0.03834865  0.037988421           33 
  499000   0.46869937   -4.3490663    228.95888  0.038236285   0.03789371           35 
  500000   0.47572558     -4.34795     229.3122    0.0382187  0.037799191           14 
  501000   0.46842672   -4.3393194     228.8998   0.03807382  0.037704551           22 
  502000   0.46683551    -4.341578    229.12761  0.038035791  0.037610249           29 
  503000   0.46595444   -4.3508483    228.89383  0.037921443  0.037516091           21 
  504000   0.46303637   -4.3468984    229.52213  0.037950088  0.037422365           12 
  505000   0.45502106    -4.365624    229.29835  0.037838012  0.037328735           36 
  506000   0.45727049   -4.3618016    228.97226  0.037709529  0.037235375           35 
  507000   0.45543497    -4.372009     228.8071  0.037608004  0.037142147           38 
  508000   0.44830686   -4.3648307    228.85962  0.037542589  0.037048692           29 
  509000    0.4544307   -4.3814161    229.09094  0.037506702  0.036955683           17 
  510000   0.44954535   -4.3857555    229.02833  0.037422929  0.036862936           40 
  511000    0.4648356    -4.391714        229.2  0.037377691  0.036770049           19 
  512000   0.44616099    -4.391528    228.89274  0.037254677  0.036677098           46 
Loop time of 1232.75 on 48 procs for 500000 steps with 4000 atoms

Performance: 70086.958 tau/day, 405.596 timesteps/s
99.4% CPU use with 48 MPI tasks x no OpenMP threads

MPI task timing breakdown:
Section |  min time  |  avg time  |  max time  |%varavg| %total
---------------------------------------------------------------
Pair    | 80.944     | 86.111     | 91.73      |  28.8 |  6.99
Neigh   | 8.269      | 8.6113     | 8.9415     |   5.9 |  0.70
Comm    | 77.063     | 83.617     | 90.802     |  35.3 |  6.78
Output  | 0.84466    | 0.84541    | 0.87046    |   0.4 |  0.07
Modify  | 1038.7     | 1041.9     | 1045.7     |   5.6 | 84.52
Other   |            | 11.68      |            |       |  0.95

Nlocal:        83.3333 ave          91 max          75 min
Histogram: 2 2 3 6 5 12 11 2 4 1
Nghost:        2234.69 ave        2253 max        2219 min
Histogram: 2 6 6 6 9 3 7 4 1 4
Neighs:        14963.6 ave       16425 max       12900 min
Histogram: 1 0 6 3 9 4 7 10 4 4
FullNghs:      29926.9 ave       32881 max       26539 min
Histogram: 1 1 4 4 9 10 9 6 2 2

Total # of neighbors = 1436492
Ave neighs/atom = 359.12300
Neighbor list builds = 27053
Dangerous builds = 0

#clear
#
#next RN
#
#jump SELF
Total wall time: 0:20:36
