
units lj                  # Use reduced LJ style units
atom_style atomic         # Uncharged point particles
atom_modify map hash      # Needed for indexing of clusters etc
                          # Used to be able to find where atoms are in relation to each other.

lattice fcc 1.0 spacing 1 1 1
Lattice spacing in x,y,z = 1.5874011 1.5874011 1.5874011
region box block 0 10 0 10 0 10 units lattice
create_box 2 box
Created orthogonal box = (0.0000000 0.0000000 0.0000000) to (15.874011 15.874011 15.874011)
  3 by 4 by 4 MPI processor grid
create_atoms 1 box
Created 4000 atoms
  using lattice units in orthogonal box = (0.0000000 0.0000000 0.0000000) to (15.874011 15.874011 15.874011)
  create_atoms CPU = 0.002 seconds
set type 1 type/fraction 2 0.83 78393
Setting atom values ...
  3314 settings made for type/fraction
mass 1 1.0
mass 2 1.0
pair_style lj/cut  3.5
pair_modify tail  yes
pair_coeff 1  1  1.0  1.0   # Intearaction between 1 and 1 set with epsilon = 1 and sigma = 1
pair_coeff 1  2  1.5  0.8
pair_coeff 2  2  0.5  0.88

write_data data.0
System init for write_data ...
Neighbor list info ...
  update every 1 steps, delay 10 steps, check yes
  max neighbors/atom: 2000, page size: 100000
  master list distance cutoff = 3.8
  ghost atom cutoff = 3.8
  binsize = 1.9, bins = 9 9 9
  1 neighbor lists, perpetual/occasional/extra = 1 0 0
  (1) pair lj/cut, perpetual
      attributes: half, newton on
      pair build: half/bin/atomonly/newton
      stencil: half/bin/3d
      bin: standard
WARNING: Not all mixed pair coeffs generated from mixing. Use write_data with 'pair ij' option to store all pair coeffs. (../write_data.cpp:312)


#############################
#   M E L T   S Y S T E M   #
#############################

velocity all create 2.4 9580093 mom yes dist gaussian # Assign velocities
                                                    # Temperature 2.4, random number seed, zero linear momentum
                                                                                # Gaussian distribution

timestep 0.002   # simulation timestep
thermo 1000       # output thermodynamic data every 1000 steps bf 100

# Define a fix  in this case with index 1 applied to all
# particles in the simulation. This fix is for simulations
# in the anisotropic NPT ensemble. Note that we use the MTK
# correction.
fix 1 all npt temp 2.4 2.4 0.1 iso 5.68 5.68 0.5 mtk yes tchain 5 pchain 5 # Use NPT ensemble
                                                                         # Set temperature and pressure and damping
                                                                         # Numbers of thermostats in chain and in barostat
run 10000          # run for 10000 steps
Per MPI rank memory allocation (min/avg/max) = 3.642 | 3.644 | 3.648 Mbytes
Step Temp E_pair E_mol TotEng Press Volume 
       0          2.4   -3.5381599            0  0.060940148   -3.0801753         4000 
    1000    2.3714685   -2.7563703            0   0.79994311    5.8523591    3847.9543 
    2000    2.4082816   -2.7865499            0   0.82496943    5.7365729    3862.8299 
    3000    2.3887037   -2.7917798            0   0.79038003    5.6316787    3869.3945 
    4000    2.3727053   -2.7562617            0   0.80190646    5.5864145    3896.5661 
    5000    2.3740565   -2.8231214            0   0.73707304    5.5853426    3857.3104 
    6000    2.3683584   -2.8021419            0   0.74950748    5.5555802    3865.9294 
    7000    2.3792667   -2.8130787            0   0.75492912    5.5716922    3854.7906 
    8000    2.3899084    -2.781791            0   0.80217547    5.7116688    3852.9507 
    9000    2.3844936    -2.810494            0   0.76535227    5.3312935    3895.1236 
   10000    2.4488774   -2.8324918            0   0.83990607    5.6331374    3840.1029 
Loop time of 2.5699 on 48 procs for 10000 steps with 4000 atoms

Performance: 672400.391 tau/day, 3891.206 timesteps/s
99.5% CPU use with 48 MPI tasks x no OpenMP threads

MPI task timing breakdown:
Section |  min time  |  avg time  |  max time  |%varavg| %total
---------------------------------------------------------------
Pair    | 1.0806     | 1.198      | 1.4027     |   4.5 | 46.61
Neigh   | 0.20925    | 0.21901    | 0.25141    |   1.3 |  8.52
Comm    | 0.66394    | 0.87703    | 0.98106    |   6.3 | 34.13
Output  | 0.00024501 | 0.00025093 | 0.00031846 |   0.0 |  0.01
Modify  | 0.22622    | 0.26035    | 0.29967    |   5.3 | 10.13
Other   |            | 0.0153     |            |       |  0.60

Nlocal:        83.3333 ave          91 max          71 min
Histogram: 1 1 1 3 3 11 11 5 6 6
Nghost:        1690.48 ave        1714 max        1653 min
Histogram: 2 1 2 4 8 4 6 9 3 9
Neighs:        9953.96 ave       11153 max        8404 min
Histogram: 2 2 2 4 11 8 3 6 5 5

Total # of neighbors = 477790
Ave neighs/atom = 119.44750
Neighbor list builds = 908
Dangerous builds = 228

# Equilibrate just above the melting temperature to avoid step fn in T

fix 1 all npt temp 1.25 1.25 0.1 iso 5.68 5.68 0.5 mtk yes tchain 5 pchain 5
run 2000
Per MPI rank memory allocation (min/avg/max) = 3.643 | 3.645 | 3.649 Mbytes
Step Temp E_pair E_mol TotEng Press Volume 
   10000    2.4488774   -2.8324918            0   0.83990607    5.6331374    3840.1029 
   11000     1.239934    -4.175273            0   -2.3158369    5.4077125    2962.2448 
   12000    1.2618449   -4.1188801            0    -2.226586    5.8294868    2962.4807 
Loop time of 0.631966 on 48 procs for 2000 steps with 4000 atoms

Performance: 546865.086 tau/day, 3164.729 timesteps/s
99.6% CPU use with 48 MPI tasks x no OpenMP threads

MPI task timing breakdown:
Section |  min time  |  avg time  |  max time  |%varavg| %total
---------------------------------------------------------------
Pair    | 0.27036    | 0.3051     | 0.34004    |   2.6 | 48.28
Neigh   | 0.039109   | 0.042965   | 0.047456   |   0.7 |  6.80
Comm    | 0.19537    | 0.23582    | 0.27644    |   3.4 | 37.32
Output  | 6.1187e-05 | 6.2941e-05 | 7.9909e-05 |   0.0 |  0.01
Modify  | 0.041166   | 0.043264   | 0.046164   |   0.6 |  6.85
Other   |            | 0.004748   |            |       |  0.75

Nlocal:        83.3333 ave          89 max          71 min
Histogram: 1 0 0 1 1 9 15 9 7 5
Nghost:        2004.00 ave        2035 max        1980 min
Histogram: 3 1 10 6 11 6 5 4 1 1
Neighs:        12882.0 ave       14171 max       11531 min
Histogram: 3 3 4 5 6 11 5 6 2 3

Total # of neighbors = 618338
Ave neighs/atom = 154.58450
Neighbor list builds = 145
Dangerous builds = 16

#############################
# L I N E A R  Q U E N C H  #
#############################

# Define solid atoms. This closely follows ten Wolde  Ruiz-Montero and Frenkel  Faraday Discuss  1996  104  93-110
# Compute components of the per-atom q6 vector
compute q6 all orientorder/atom degrees 1 6 components 6 nnn NULL cutoff 1.3 # compute the Q6 parameter.
                                                                             # Use all neighbours within 1.3 unit cell.

# get number of connections
compute coord_number all coord/atom orientorder q6 0.5

# An atom is solid if it has 8 or more connections (of a possible 14)
variable is_solid atom c_coord_number>=8
group solid dynamic all var is_solid    # Must be dynamic to update
dynamic group solid defined

# do clustering
compute cluster solid cluster/atom 1.3 # Create a cluster where all atoms within are solid and max 1.3 units from another member

# define chunks one chunk per cluster
compute clus_chunks solid chunk/atom c_cluster nchunk every compress yes  # Says which atoms are in which chunk

# count the size of each chunk
compute size_chunks solid property/chunk clus_chunks count


# Find the maximum entry in the vector of chunk sizes
variable max_n equal max(c_size_chunks)


# Thermo style which includes this variable
# thermo_style custom step temp pe vol v_max_n

thermo ${N}  # Print the thermo information every 100 steps
thermo 1000  

# Reset the npt fix at a lower temperature (below freezing)
fix 1  all npt temp  ${temp} ${temp}  0.1  iso  5.68  5.68  0.5  mtk yes tchain  5  pchain  5
fix 1  all npt temp  0.45 ${temp}  0.1  iso  5.68  5.68  0.5  mtk yes tchain  5  pchain  5
fix 1  all npt temp  0.45 0.45  0.1  iso  5.68  5.68  0.5  mtk yes tchain  5  pchain  5

dump dmp2 all dcd ${N} traj.dcd
dump dmp2 all dcd 1000 traj.dcd


compute msd all msd com yes
variable twopoint equal c_msd[4]/6/(step*dt+1.0e-6)
fix 9 all vector 10 c_msd[4]
variable fit equal slope(f_9)/6/(10*dt)
thermo_style custom step temp pe c_msd[4] v_twopoint v_fit v_max_n

fix 1 all npt temp 1.25 ${temp} 0.1 iso 5.68 5.68 0.5 mtk yes tchain 5 pchain 5
fix 1 all npt temp 1.25 0.45 0.1 iso 5.68 5.68 0.5 mtk yes tchain 5 pchain 5
run 500000 # 5000000  # Run for this many steps
Neighbor list info ...
  update every 1 steps, delay 10 steps, check yes
  max neighbors/atom: 2000, page size: 100000
  master list distance cutoff = 3.8
  ghost atom cutoff = 3.8
  binsize = 1.9, bins = 8 8 8
  4 neighbor lists, perpetual/occasional/extra = 1 3 0
  (1) pair lj/cut, perpetual
      attributes: half, newton on
      pair build: half/bin/atomonly/newton
      stencil: half/bin/3d
      bin: standard
  (2) compute orientorder/atom, occasional
      attributes: full, newton on
      pair build: full/bin/atomonly
      stencil: full/bin/3d
      bin: standard
  (3) compute coord/atom, occasional
      attributes: full, newton on
      pair build: full/bin/atomonly
      stencil: full/bin/3d
      bin: standard
  (4) compute cluster/atom, occasional
      attributes: full, newton on
      pair build: full/bin/atomonly
      stencil: full/bin/3d
      bin: standard
Per MPI rank memory allocation (min/avg/max) = 9.829 | 9.836 | 9.840 Mbytes
Step Temp PotEng c_msd[4] v_twopoint v_fit v_max_n 
   12000    1.2618449   -4.1188801 4.2837119e-30 2.9747998e-32 8.3333333e+20            2 
   13000    1.2110739   -4.1485223   0.83913529 0.0053790722  0.071285886            3 
   14000     1.243782   -4.1527512    1.7163343  0.010216275  0.072198442            3 
   15000     1.279893   -4.1370293    2.6097196  0.014498442  0.072997598            3 
   16000    1.2457666   -4.1901103    3.4557001  0.017998437  0.072932583            3 
   17000     1.237535   -4.1794157    4.3718895   0.02143083  0.073328445            1 
   18000    1.2164733   -4.1528536    5.3279444  0.024666409  0.073768261            4 
   19000    1.2190586   -4.1868195    6.2744746  0.027519625  0.074771517            1 
   20000    1.2187617   -4.1862538    7.0325142  0.029302142  0.074631756            2 
   21000    1.2367207   -4.2016034     7.864411  0.031207979  0.074221098            3 
   22000    1.2143493   -4.1581622    8.7210702  0.033034356  0.073574559            1 
   23000    1.2422321   -4.2126202    9.4277257  0.034158426  0.072953453            2 
   24000    1.1964265   -4.1850828    10.391375  0.036081164  0.072496579            2 
   25000    1.2736686   -4.2067723    11.122138  0.037073794  0.072215484            1 
   26000    1.2074666   -4.1706516    12.033002  0.038567315  0.071857293            2 
   27000    1.2286157   -4.1877296    12.753302  0.039362042  0.071373587            1 
   28000    1.2172909   -4.2034752    13.486429  0.040138182  0.070937625            1 
   29000    1.2378069   -4.2101309    14.350433  0.041236876  0.070548016            3 
   30000    1.2119835   -4.2181533    15.178779  0.042163274  0.070258226            4 
   31000    1.2136688   -4.2221221    15.998954   0.04300794  0.070088011            3 
   32000    1.2237617   -4.1995055    16.721839  0.043546455  0.069853036            1 
   33000    1.2056563   -4.2028878    17.567496  0.044362362  0.069593836            8 
   34000    1.2164114   -4.1926059     18.48616  0.045309215  0.069444481            3 
   35000    1.2279041   -4.2329255    19.245302  0.045822148  0.069357289            4 
   36000    1.2046774   -4.2382969    19.919469  0.046109882    0.0692034            1 
   37000    1.2011715   -4.2364669    20.875953  0.047017911  0.069075062            2 
   38000    1.2116959   -4.1963777     21.72895  0.047651207  0.068984067            2 
   39000     1.189347   -4.2650382    22.496523  0.048069493  0.068893769            1 
   40000    1.2082694    -4.229013     23.45256  0.048859499  0.068883809            2 
   41000    1.1928925   -4.2618236     24.26452   0.04931813  0.068912036            2 
   42000    1.1906003   -4.2211253    25.189183  0.049978536  0.068957116            3 
   43000    1.2044072   -4.2315996    26.174307    0.0507254  0.069017059            3 
   44000    1.2031968    -4.247824    27.003092  0.051142219  0.069152647            3 
   45000    1.1817922   -4.2679348    27.937903  0.051736857  0.069317501            3 
   46000    1.1948136   -4.2329917    28.785441  0.052147538  0.069465829            3 
   47000    1.1482564     -4.23507    29.619976  0.052517688   0.06954844            1 
   48000    1.1896227   -4.2316577      30.4121  0.052798784  0.069614888            1 
   49000    1.1783554   -4.2254211     31.14096  0.052960816  0.069650865            1 
   50000    1.1967928   -4.2885646    31.914805  0.053191341  0.069665798            2 
   51000    1.1807878     -4.25307    32.734391  0.053487566  0.069688627            3 
   52000    1.1538569   -4.2744451    33.522969  0.053722707  0.069684449            2 
   53000    1.1702165   -4.2823818    34.336518  0.053988235  0.069654754            2 
   54000    1.1789827   -4.2344621    35.247752  0.054394679  0.069643411            2 
   55000    1.1810676   -4.2938432    35.756411  0.054176379  0.069576265            2 
   56000    1.1735356   -4.2746447    36.465161  0.054263631  0.069479363            1 
   57000     1.190908   -4.2293542    37.400795  0.054679525  0.069385763            4 
   58000    1.1756791   -4.2571823    38.341023  0.055087676  0.069316203            1 
   59000    1.1567709   -4.2487574     38.91884  0.054970113  0.069237166            2 
   60000    1.1547838    -4.261857    39.882519  0.055392387  0.069165175            5 
   61000    1.1764716   -4.2564976    40.615524  0.055485687  0.069086654            2 
   62000    1.1943918   -4.2914704    41.439105  0.055697721  0.069027849            2 
   63000    1.1770231   -4.2478285    42.258569  0.055897578  0.068968559            2 
   64000    1.1594069   -4.2786997    43.053305  0.056058991  0.068918528            1 
   65000    1.1736259   -4.2832409    43.747527  0.056086573   0.06886049            1 
   66000    1.1780089   -4.2769414    44.400087  0.056060716  0.068773713            3 
   67000    1.1732643   -4.2741055    45.332265  0.056383414  0.068706932            2 
   68000    1.1855801   -4.2786605    46.388537  0.056848697  0.068658493            2 
   69000    1.1542567    -4.274938    47.262573  0.057080402  0.068625634            1 
   70000    1.1334756   -4.3079073    47.757876  0.056854614   0.06858665            2 
   71000    1.1343857   -4.2881487    48.445689  0.056861137  0.068532012            3 
   72000    1.1601404   -4.3296755    48.789925   0.05646982  0.068452792            4 
   73000    1.1465364   -4.3158559    49.799085  0.056848271  0.068370117            2 
   74000    1.1380912   -4.3286419    50.602711  0.056985035  0.068290158            2 
   75000    1.1409193    -4.332724    50.896162  0.056551291  0.068202613            1 
   76000    1.1538531   -4.2837148    52.069546    0.0570938  0.068097685            1 
   77000    1.1437444   -4.2989129    52.575012  0.056899363  0.067986896            1 
   78000    1.1598724   -4.3337168    53.327831  0.056974178  0.067857608            1 
   79000    1.1188575   -4.3075064    54.360879  0.057342699  0.067749641            1 
   80000    1.1299662   -4.3167217     54.92153  0.057209926  0.067626613            1 
   81000     1.118519   -4.3414899    55.587535  0.057188822  0.067522358            3 
   82000    1.1354016   -4.3224847    56.249125  0.057163745  0.067404847            3 
   83000    1.1290291    -4.357614    56.471931  0.056698726  0.067268466            2 
   84000    1.1087201   -4.3530223    57.238242  0.056783969  0.067123132            5 
   85000      1.13024    -4.345811    57.618961  0.056489177  0.066977096            1 
   86000    1.1147095    -4.393538    58.423614  0.056612029   0.06680616            6 
   87000    1.1373952   -4.3637341    59.200542  0.056705499  0.066649018            5 
   88000    1.1302044   -4.3611706     60.23469  0.057040425  0.066500355            6 
   89000    1.1497147   -4.3448079    60.999143  0.057115302  0.066369685            3 
   90000     1.119252   -4.3701439    61.688491  0.057118973  0.066254419            3 
   91000    1.1262588   -4.3607957    62.444205  0.057183338  0.066135471            3 
   92000    1.1277327    -4.361636    63.040541  0.057101939  0.066024979            3 
   93000    1.1149911   -4.3632302    63.912403  0.057269178  0.065935549            1 
   94000    1.1218986   -4.3326307    64.632024  0.057297894  0.065849681            3 
   95000     1.122667   -4.3929719    65.299759   0.05728049  0.065753761            4 
   96000     1.133393     -4.32249    66.069206  0.057351741  0.065649832            2 
   97000    1.1104619   -4.4057838    66.728438  0.057326837  0.065556036            3 
   98000    1.1007151    -4.363156    67.597668   0.05748101   0.06546327            4 
   99000     1.102454    -4.361851    67.980165  0.057222361  0.065364975            4 
  100000    1.1206292   -4.4131426    68.790894  0.057325745  0.065262691            3 
  101000    1.1045594   -4.4014061    69.876134  0.057653576  0.065171391            2 
  102000    1.1247897   -4.3453644    70.299475  0.057434212  0.065081525            5 
  103000    1.0825099   -4.3895343    70.694146   0.05719591  0.064983829            2 
  104000    1.0899531   -4.3887842    71.388585  0.057202392  0.064876698            3 
  105000    1.1121905   -4.4072993    71.809652  0.056991787  0.064762129            2 
  106000    1.1149961   -4.4014701    72.207816  0.056767151  0.064639185            3 
  107000     1.088874   -4.3949781    73.275132   0.05706786  0.064528709            3 
  108000    1.0962844   -4.3783097    73.598948  0.056789311   0.06442037            5 
  109000    1.0892571   -4.3747048    74.855531  0.057228999  0.064312592            2 
  110000    1.1050432   -4.4097031    74.928025  0.056763655  0.064198528            5 
  111000    1.0901674   -4.4067345    75.657176  0.056799681  0.064086897            4 
  112000    1.0603495   -4.4083343    76.621115  0.057009758  0.063973127            5 
  113000    1.0848804   -4.4299226      76.7609  0.056608333  0.063859343            5 
  114000    1.1135531   -4.4115734    77.576107   0.05670768  0.063744767            2 
  115000    1.0953595   -4.4093047    78.331844  0.056762205  0.063637306            3 
  116000    1.0893347   -4.4374672    78.545113  0.056426087  0.063523115            3 
  117000    1.0819651   -4.4285764    79.404744  0.056556085  0.063412336            3 
  118000    1.0690571   -4.4248081    79.976433  0.056480532  0.063303893            4 
  119000    1.0902601   -4.4632857    80.551925  0.056408911  0.063194218            3 
  120000      1.06717    -4.434925    81.162252  0.056362675  0.063072248            4 
  121000    1.0729043     -4.45087    81.507896  0.056134914  0.062948532            3 
  122000    1.0722585   -4.4733992    81.622906  0.055753351  0.062818687            2 
  123000    1.0733195   -4.4565157    83.066996  0.056278452  0.062690291            1 
  124000    1.0753996    -4.418772    83.303666  0.055983646  0.062568849            3 
  125000    1.0831185   -4.4554597    84.006302  0.056004201   0.06244229            1 
  126000    1.0754707   -4.4526749     84.30295  0.055755919  0.062310221            6 
  127000    1.0586727   -4.4595022    84.769748  0.055623194  0.062179632            3 
  128000    1.0659995   -4.4261673     85.74586  0.055824127  0.062046709            2 
  129000    1.0728061   -4.4005854     86.56189  0.055918533  0.061918419            5 
  130000    1.0650019   -4.4737801    86.687939  0.055569191  0.061793716            3 
  131000     1.070695   -4.4594081    87.167094  0.055449805   0.06166978            1 
  132000    1.0764762   -4.4963665    87.927831  0.055509994  0.061545558            4 
  133000    1.0743236   -4.4666984    88.352361  0.055358622  0.061420054            2 
  134000    1.0643512   -4.4805441    88.797658  0.055222424  0.061295092            4 
  135000      1.06177    -4.490414     89.34316  0.055150098  0.061170488            4 
  136000    1.0380009   -4.4721509    90.005918  0.055150685  0.061046516            5 
  137000    1.0479265   -4.4991498    90.799563  0.055230877  0.060928591            2 
  138000    1.0458731   -4.4906322    91.479826  0.055241441  0.060813356            5 
  139000    1.0276488   -4.4859793    91.725083  0.054991057  0.060696601            4 
  140000     1.042358   -4.5362446    92.529742  0.055077227   0.06057573            3 
  141000    1.0309584   -4.4860737    92.987281  0.054957022  0.060453791            4 
  142000    1.0376602   -4.5021546    93.774061  0.055031726  0.060332169            3 
  143000    1.0389532   -4.4778213    94.328385  0.054969921  0.060208131            4 
  144000    1.0259181   -4.4940971    94.484554  0.054678561  0.060084481            4 
  145000    1.0433711    -4.519601    94.965021  0.054577598  0.059958819            3 
  146000    1.0354772   -4.5195587    95.263033  0.054373877  0.059832049            4 
  147000    1.0157666   -4.5651299    95.539021  0.054160443  0.059702785            3 
  148000    1.0301172   -4.5195426    96.431599  0.054297071  0.059575777            4 
  149000    1.0395743   -4.5253513    96.787573  0.054131752  0.059449777            3 
  150000    1.0358657   -4.5005974    97.444057  0.054135587  0.059323163            3 
  151000    1.0321207   -4.5126999    98.027286  0.054098944  0.059201947            3 
  152000    0.9909248   -4.5179068    98.934747  0.054240541  0.059080075            3 
  153000    1.0253257   -4.5353083    98.949553  0.053894092  0.058955651            3 
  154000    1.0215833   -4.5314268    99.690899  0.053945292  0.058836659            3 
  155000    1.0347355   -4.5320851    100.24397  0.053894605  0.058716583            2 
  156000    1.0185028   -4.5431074    100.76325   0.05382652  0.058596021            2 
  157000    1.0028276   -4.5743415    100.96774  0.053592218  0.058471679            2 
  158000    1.0177477    -4.536626     101.7402  0.053660445  0.058349466            3 
  159000   0.99580997   -4.5706756     102.2534  0.053591928  0.058223276            3 
  160000    1.0159269   -4.5704141    102.53732  0.053404854  0.058096924            4 
  161000    1.0066162   -4.5449757    103.06266  0.053345061  0.057971108            3 
  162000   0.99922288   -4.5318679    103.62518  0.053305134  0.057847328            6 
  163000    1.0080178   -4.5735696    103.95129  0.053144833  0.057725386            2 
  164000    1.0127651   -4.5786521    103.96593  0.052828215  0.057604394            3 
  165000    1.0234263    -4.575115     104.9882  0.053024346  0.057483422            3 
  166000   0.97763804   -4.5617613    105.23319  0.052827908  0.057365412            2 
  167000    1.0021366   -4.5552466    106.11916  0.052953672  0.057240474            5 
  168000   0.98164181   -4.5326492    106.31097  0.052733618   0.05711998            2 
  169000   0.97848242   -4.5726407    107.06385  0.052792825  0.056994428            2 
  170000   0.99910946    -4.585762    107.57556  0.052733118  0.056871838            2 
  171000   0.99399953   -4.5637185    107.26147   0.05227167  0.056749584            3 
  172000   0.98689475   -4.5995527    108.53017  0.052582445  0.056631116            4 
  173000    1.0020881   -4.5615488    109.11538  0.052560393  0.056516676            6 
  174000   0.99063138   -4.5705806    109.09079  0.052246545  0.056399768            2 
  175000    1.0010272     -4.59845    109.38843  0.052089728  0.056281306            2 
  176000   0.97551669   -4.5931953    109.91131  0.052041341   0.05615745            5 
  177000   0.99578806   -4.5981212    110.39827  0.051976588  0.056034266            4 
  178000   0.99489068   -4.6017062    110.99188  0.051962489  0.055911035            6 
  179000   0.99552775   -4.5878567    111.29603  0.051813794  0.055790752            2 
  180000    0.9951743   -4.6102458    111.50778   0.05162397  0.055670616            7 
  181000    0.9799543   -4.6011809    111.67368  0.051415136  0.055547408            5 
  182000    0.9740018   -4.6005488    112.81539    0.0516554  0.055422982            2 
  183000   0.98390312   -4.5887395      112.856  0.051391622  0.055296721            2 
  184000   0.99651331   -4.6258269     113.2253  0.051279574  0.055172187            4 
  185000   0.97009442   -4.6439313    113.41521  0.051087932   0.05504816            4 
  186000   0.96473157   -4.6406543    114.33569  0.051225667  0.054926938            3 
  187000   0.97275186   -4.6519695    114.66517  0.051098561  0.054814101            3 
  188000   0.96363415   -4.6365692    115.44396  0.051171968  0.054701847            3 
  189000    0.9683101   -4.6461126     115.8803  0.051093605  0.054592527            3 
  190000    0.9734116   -4.6333488    116.45984  0.051078876  0.054481333            2 
  191000   0.96243451   -4.6332598    117.60872  0.051312705  0.054375575            2 
  192000   0.98526654   -4.6438762    117.77496  0.051117605  0.054270101            6 
  193000   0.96624272   -4.6759721    117.99179  0.050946367  0.054164492            9 
  194000   0.95626051   -4.6423979    119.02232  0.051126425  0.054060332            6 
  195000   0.95303784   -4.6312925    119.00916  0.050858616  0.053960926            4 
  196000   0.96378387   -4.6697033    119.31741  0.050730192  0.053856615            3 
  197000   0.96382514   -4.6464795    119.19857  0.050422406  0.053746243            4 
  198000   0.92590343   -4.6547201    120.25376  0.050611853  0.053636717            4 
  199000   0.94881121   -4.6536997    119.91232  0.050214538   0.05352316            4 
  200000   0.94872085   -4.6450727    121.03658   0.05043191  0.053412092            5 
  201000   0.95871142   -4.6960193    120.87968  0.050115955  0.053303633            5 
  202000   0.94090166   -4.6790754    120.98482  0.049911228  0.053192515            3 
  203000   0.94127917   -4.6476034    121.78547  0.049994036   0.05308144            3 
  204000   0.95038545   -4.6808412     121.6172   0.04968023  0.052965066            4 
  205000   0.96593748   -4.6685831    122.17622  0.049665129  0.052849851            3 
  206000   0.93164898   -4.6832789    122.10733   0.04939617  0.052734708            8 
  207000   0.92428049   -4.7121574    122.58094  0.049348206  0.052619944            4 
  208000   0.93023376   -4.6737196    123.51398  0.049484766  0.052507606            5 
  209000   0.93155827   -4.7011245    123.66091  0.049306581  0.052392915            4 
  210000    0.9327165   -4.6856275    124.29891  0.049324963  0.052277195            2 
  211000   0.93665752   -4.7158842    124.49728  0.049169542   0.05216567            3 
  212000   0.93514323   -4.6835915    125.29934  0.049252886  0.052058219            5 
  213000   0.92735836   -4.7110208    125.49991  0.049100121  0.051951205            5 
  214000   0.95801833   -4.7071955    125.84171   0.04900378  0.051842748            5 
  215000   0.92394496   -4.7176404    126.22941  0.048926129     0.051735            5 
  216000   0.93448144   -4.7098753    126.70044  0.048881341  0.051626984            3 
  217000    0.9408809   -4.7426973    126.64456  0.048634623  0.051517752           10 
  218000   0.91508353   -4.7063804    127.33206  0.048674336  0.051408194            4 
  219000   0.92897355   -4.7232695    127.42415   0.04848712  0.051298903            6 
  220000   0.93634054   -4.7415306    127.59331  0.048330797  0.051188308            9 
  221000   0.92097499   -4.6927881    128.57048  0.048480572  0.051077076            4 
  222000   0.93407464   -4.7310947    129.04365   0.04843981  0.050967878            3 
  223000   0.91533226   -4.7165042    129.56889  0.048418869  0.050859801            3 
  224000   0.91815508   -4.7403473    129.73197  0.048263381  0.050753762            5 
  225000   0.90717387   -4.7197558     129.9279  0.048121444  0.050646729            4 
  226000   0.90325036    -4.738029    130.41134  0.048086779  0.050540282            4 
  227000   0.90208454   -4.7472119    130.97908  0.048083363   0.05043448            5 
  228000   0.90059581   -4.7417655     131.0481  0.047897697  0.050328178            4 
  229000   0.89919599   -4.7223374    131.21272  0.047748441  0.050223068            5 
  230000   0.89982121   -4.7695682    131.56347  0.047667925  0.050114804            8 
  231000   0.90792898   -4.7721892     131.7314   0.04752215  0.050006236            4 
  232000    0.8858493   -4.7128748    132.82018  0.047708399  0.049900164            3 
  233000   0.89888025   -4.7561659    132.29276  0.047315006  0.049794998            2 
  234000    0.8760421   -4.7907266    132.69118  0.047254694  0.049686853            5 
  235000   0.88952971   -4.7773125    132.61704   0.04702732  0.049578259            5 
  236000   0.89559716   -4.7948076    133.12266  0.047006588  0.049469472            4 
  237000   0.88706481   -4.7780769    133.75275  0.047029798  0.049360726            9 
  238000   0.89243997   -4.7845506     133.9823  0.046912569   0.04925143            3 
  239000   0.88715787   -4.7759754    133.70002  0.046617861  0.049143616            2 
  240000   0.88338185   -4.7850834    134.29313  0.046629559  0.049033328           13 
  241000   0.88816739   -4.8045549    134.57839  0.046534713  0.048923475            5 
  242000   0.87070842   -4.8181321    134.55728   0.04633515  0.048813913            4 
  243000   0.87203941   -4.7872028    135.03867  0.046309556  0.048705812            3 
  244000   0.88360611   -4.8012782    134.97524  0.046098101  0.048596305            3 
  245000   0.89105904   -4.7873806    135.86391  0.046212215  0.048488162            2 
  246000   0.88928928   -4.8199127    136.28886  0.046168314   0.04837915           10 
  247000   0.89135514   -4.8148489    136.54288    0.0460671  0.048271361            3 
  248000   0.86628791   -4.7951154    137.18068  0.046095658  0.048164762            4 
  249000   0.84772189   -4.8111067    136.98921  0.045846454  0.048057893            7 
  250000   0.89260074   -4.8179388    137.37974  0.045793247  0.047951533            5 
  251000   0.85042714   -4.8450691    137.49702  0.045649739  0.047843844            5 
  252000   0.84085126   -4.8120799    138.07311  0.045659097  0.047736714            9 
  253000   0.87189703   -4.8450936    137.48305  0.045284273   0.04763071            3 
  254000   0.84977764    -4.818237    138.89854  0.045570388  0.047525007            5 
  255000   0.86972634   -4.8346389    138.39243  0.045226285  0.047420509            5 
  256000   0.84606004   -4.8557953    139.14572  0.045294832  0.047314882            6 
  257000   0.85170029    -4.843597    139.69351  0.045296209  0.047208297            3 
  258000   0.86442748   -4.8563307    140.07405  0.045243555  0.047103248            4 
  259000   0.86293342   -4.8456257    140.27072  0.045132149  0.046998919            3 
  260000    0.8363072   -4.8788471    139.95602  0.044857698  0.046892192            5 
  261000    0.8845123   -4.8540201    140.43959  0.044840225  0.046785864            6 
  262000   0.82549423   -4.8617795    140.55828  0.044706832  0.046681863            7 
  263000   0.86512579   -4.8841399    141.19635   0.04473902  0.046579792            6 
  264000   0.83772419   -4.8686624    141.62867   0.04470602  0.046478646            4 
  265000   0.83945381   -4.8808989    141.82106  0.044597818  0.046376755            7 
  266000   0.83252152   -4.8798723    142.37106  0.044602463  0.046274845            6 
  267000   0.83447275   -4.8411868    142.49883   0.04447529  0.046175251            4 
  268000   0.82833095   -4.8668743    142.77425  0.044394978  0.046075216            5 
  269000   0.84067768    -4.867741    143.58522  0.044481171  0.045974043            3 
  270000   0.83684792   -4.8639836    143.60181  0.044321547  0.045874235            4 
  271000    0.8408765   -4.8711704    144.03709  0.044291849  0.045774753            5 
  272000   0.83924547   -4.9217959    143.98744  0.044113799  0.045677302            7 
  273000   0.82215055   -4.8599321    144.43684  0.044089389  0.045579764           10 
  274000   0.84880697   -4.8816594    144.68947  0.044005314  0.045480928            5 
  275000   0.84389726   -4.8945452    144.66249  0.043837119  0.045381908            3 
  276000   0.82191421   -4.9202959     144.8377   0.04373119  0.045282045            6 
  277000   0.85246898   -4.9000358    145.05731  0.043639384  0.045182685            4 
  278000   0.83423426   -4.9024404    145.51943  0.043620933  0.045083711            5 
  279000    0.8271699    -4.894378    145.79532  0.043546988  0.044985839            6 
  280000    0.8192063   -4.9081892    145.63385  0.043343409  0.044887163            8 
  281000   0.82326453   -4.9198441    145.90065  0.043268282  0.044788037            5 
  282000   0.82208553   -4.9027332    146.20996  0.043206253   0.04468853            2 
  283000    0.8222232   -4.9275377    145.74123  0.042915556  0.044588022            7 
  284000   0.80503953   -4.8977446    147.02406  0.043140863    0.0444868            7 
  285000   0.82827713   -4.9142392    146.42777  0.042815139  0.044386395            6 
  286000   0.80868486    -4.925109    146.70238  0.042745449  0.044285853            5 
  287000   0.81898364     -4.91098    147.14225  0.042724231  0.044186647            5 
  288000   0.79482814    -4.927607    147.17868  0.042586424  0.044087489            6 
  289000   0.81129932   -4.9481091    147.19345  0.042443324  0.043987346            3 
  290000   0.79916313   -4.9726198    147.22155  0.042305042  0.043885395            7 
  291000   0.79458048   -4.9587985    147.19174  0.042151129  0.043782209            7 
  292000   0.81518996   -4.9503308    147.41017  0.042069112  0.043678656            4 
  293000   0.79315578   -4.9690105    147.78842  0.042033111  0.043575965            4 
  294000   0.78934133   -4.9773373    147.56558  0.041826979  0.043472734            5 
  295000   0.79038036   -4.9357669    148.04948  0.041821887  0.043369071            5 
  296000   0.78702283   -4.9889519    148.32789  0.041758979  0.043264679            9 
  297000   0.78911167   -4.9362852    148.35113  0.041624896  0.043160709            6 
  298000   0.79444056   -4.9414693    148.25043  0.041457055  0.043055719            5 
  299000   0.78218894   -4.9787304    148.70178  0.041444198   0.04295106            6 
  300000   0.77337426   -4.9907962     148.3825   0.04121736  0.042846458            8 
  301000    0.7931783   -4.9875797    148.76403  0.041186054  0.042741187            7 
  302000   0.77954443   -5.0031559    148.58864  0.041001281  0.042636892            8 
  303000   0.77447104   -5.0086928    149.45588  0.041104478  0.042533585            7 
  304000   0.78294508   -4.9939881     149.7133  0.041039829  0.042431693            6 
  305000   0.79065978   -4.9909625    150.23419  0.041047593  0.042330125            3 
  306000   0.78214928    -5.025719    150.29556  0.040930163  0.042228704            3 
  307000   0.80043139   -4.9939623     150.1807  0.040765662  0.042127089            6 
  308000   0.79018978     -5.00765    150.46227  0.040709488  0.042025733            6 
  309000   0.78384156   -4.9808894    150.43492  0.040570366  0.041924535            5 
  310000   0.77662097    -4.998932    150.96828  0.040582872  0.041823749            7 
  311000    0.7676033   -5.0198775    151.09228  0.040485605  0.041722777            7 
  312000   0.75957341   -5.0255822     151.3382  0.040421528   0.04162228            9 
  313000   0.76354117   -5.0111361    151.67586  0.040382285  0.041522847            7 
  314000   0.76825057   -5.0183349     151.7002  0.040260138  0.041423834            9 
  315000   0.75957483   -5.0194053    151.72204  0.040138105  0.041324509           10 
  316000    0.7627147   -5.0188527    152.11143  0.040113772  0.041225203            5 
  317000   0.75503097   -5.0260173    152.45187  0.040076727  0.041126861           13 
  318000   0.76334771   -5.0378569    152.31961  0.039916039  0.041028518            5 
  319000   0.75323926   -5.0319714    152.48136  0.039833166  0.040929542            4 
  320000   0.76253176   -5.0273631    152.36687  0.039678873  0.040830612            3 
  321000   0.75679738   -5.0469431    152.54235  0.039600818  0.040731151            9 
  322000   0.74484861   -5.0153433    153.14083   0.03963272  0.040631992            4 
  323000    0.7531499   -5.0498994     153.3123  0.039554257  0.040534113            9 
  324000   0.75004083   -5.0726178    153.13052  0.039385423   0.04043652            3 
  325000   0.74457392   -5.0676141    153.17175  0.039274808  0.040338625            5 
  326000   0.74340646   -5.0524694    153.27665  0.039181147  0.040242703            6 
  327000    0.7452763   -5.0721226    153.79173  0.039192591  0.040145201           12 
  328000   0.76578644   -5.0751201    153.55075  0.039011876  0.040048345            6 
  329000   0.73867657   -5.0616113    153.36969  0.038847438  0.039951393            9 
  330000   0.75835998   -5.0576188    154.61691  0.039044675  0.039854032            7 
  331000   0.73006276   -5.0779703    154.58661  0.038919086   0.03975733            8 
  332000   0.72898613   -5.0733712    153.84059  0.038614606  0.039660882            7 
  333000   0.74580798   -5.0829228    155.08486  0.038810025  0.039565209            6 
  334000   0.73180956    -5.117458    154.49176  0.038545849  0.039470315            3 
  335000    0.7252502   -5.0729238    155.11847  0.038586684  0.039374901            4 
  336000    0.7318251   -5.0825069    154.61798  0.038347714   0.03927832            5 
  337000   0.71692284   -5.1050246    155.00913  0.038330647  0.039181244            4 
  338000   0.73119827   -5.0973901    155.39148  0.038311509  0.039085451            5 
  339000   0.72979264    -5.121954    155.52144  0.038230441  0.038991108            5 
  340000   0.72456265   -5.1419991    155.53518  0.038121367  0.038896363            4 
  341000   0.71100178   -5.1181912    155.41014  0.037979017  0.038801939            9 
  342000   0.74462987   -5.1126218    155.30799  0.037843077  0.038707739           13 
  343000    0.7185199   -5.1364994    155.73751  0.037837101   0.03861367            9 
  344000   0.72233404   -5.1238165    155.88394  0.037762581   0.03851889            5 
  345000     0.726686   -5.1360354    155.38162  0.037531793  0.038424238            8 
  346000   0.72301665    -5.086478     156.2219  0.037625699   0.03832928            7 
  347000   0.70456081    -5.112008    156.13048  0.037495312  0.038234983            7 
  348000   0.72736028   -5.1117567    156.17145  0.037397377  0.038140307           11 
  349000   0.70229619   -5.1422792    156.31764  0.037325128  0.038045855           10 
  350000    0.7058906   -5.1514473    156.57789  0.037280451  0.037951442            7 
  351000   0.69881406   -5.1479464    156.70086  0.037203432  0.037856917            9 
  352000   0.69835738   -5.1384579    156.44578  0.037037354   0.03776265           10 
  353000   0.68887018   -5.1496192    156.91336  0.037042814  0.037669318           11 
  354000   0.69108153   -5.1676025    156.65492  0.036877334  0.037575448            5 
  355000   0.70384824    -5.130972    157.22422  0.036907094  0.037481702           10 
  356000   0.69619445   -5.1780502    156.90406  0.036728478  0.037388631            5 
  357000   0.70894333   -5.1718883    157.02406   0.03665361  0.037295597            8 
  358000   0.69329614   -5.1740402    157.32362  0.036620953  0.037202736            6 
  359000   0.69415825   -5.1847605    157.34381  0.036523633   0.03710985            6 
  360000   0.67887049   -5.1394057      158.191  0.036618288  0.037017099           14 
  361000   0.67378905   -5.1919678     157.2582  0.036301524  0.036925157            9 
  362000   0.67824962   -5.1658637    157.62501  0.036285683  0.036832706            6 
  363000    0.6822314   -5.1679553    157.94236  0.036258577  0.036740617            7 
  364000   0.69673076   -5.1930853     157.3282   0.03601836  0.036648015            9 
  365000   0.68140763   -5.2117628      157.385  0.035932648  0.036555907            9 
  366000   0.70192532   -5.2068199    158.04127  0.035983896  0.036463823            6 
  367000   0.67624768   -5.2025296    157.83226  0.035838387   0.03637215            8 
  368000   0.66778527     -5.19751    158.35964  0.035860425  0.036280442            8 
  369000   0.68459024   -5.2122615    158.10453   0.03570563   0.03618993           16 
  370000   0.67955302   -5.2079174    158.35965  0.035666588  0.036099601           11 
  371000   0.66736275   -5.2288572     158.2803  0.035552627  0.036007948            6 
  372000   0.68010097   -5.1982092    158.71402  0.035554216  0.035916991            9 
  373000   0.65952887   -5.2142843    159.37884  0.035607427   0.03582763            7 
  374000   0.65930579   -5.2153215     159.2154  0.035475802  0.035738684            9 
  375000   0.66589944   -5.2153482    159.05269  0.035345041  0.035649777           11 
  376000   0.65785094   -5.2517201    159.11924  0.035265789  0.035561252           14 
  377000   0.66469658   -5.2510649    159.13474  0.035175672  0.035472845            5 
  378000   0.66513991   -5.2385159    159.08551  0.035071761  0.035384458           17 
  379000   0.65852355   -5.2308946    159.53626  0.035078333  0.035295389           22 
  380000   0.65059187   -5.2451087     159.4933  0.034976601  0.035207022           17 
  381000   0.65946149   -5.2573107     159.2755  0.034837161  0.035119058            6 
  382000    0.6541477   -5.2514597    159.58042  0.034812483  0.035030916            5 
  383000    0.6424069    -5.245419    159.30812  0.034662341  0.034942348           10 
  384000   0.64820481   -5.2440367    159.73062  0.034663763  0.034853946            8 
  385000   0.64619159   -5.2644567    160.03418  0.034639433  0.034766668           14 
  386000   0.65038888   -5.2507857    160.19161   0.03458368  0.034679857           19 
  387000   0.65052242   -5.2957089    160.16426  0.034488428  0.034592919            4 
  388000   0.64920949    -5.302202    159.83902  0.034329686  0.034505534           10 
  389000   0.65387449   -5.2838258    160.09659  0.034296613  0.034418663           12 
  390000   0.64736057   -5.2769722    160.17646  0.034225739  0.034332594           10 
  391000   0.63790651   -5.2897016    160.06579  0.034114618  0.034246483            6 
  392000   0.63216875    -5.287735    160.54783  0.034130067  0.034160853            8 
  393000   0.66052629   -5.3099034    160.71781  0.034079263  0.034075376           11 
  394000   0.64517676   -5.2939413    160.93579  0.034038874  0.033990837           12 
  395000   0.63969435   -5.3026753    160.87572  0.033940025  0.033906076           12 
  396000   0.62724481   -5.3341707    160.71338  0.033820156  0.033820925            7 
  397000   0.64618817   -5.3211663    161.05315  0.033806287  0.033736272            8 
  398000   0.61783609   -5.3173583    160.99055   0.03370824  0.033651402           15 
  399000   0.63347646   -5.3454675    160.64659   0.03355192  0.033566502            9 
  400000   0.63050502    -5.309777     161.0629   0.03355477  0.033481814           10 
  401000   0.62075934   -5.3101536    161.39793  0.033540717  0.033397461           11 
  402000   0.63184573   -5.3277385    161.09356  0.033394187  0.033313055           28 
  403000   0.61863808   -5.3395855    161.19042  0.033331352  0.033229356           18 
  404000    0.6107368    -5.322788    161.35874  0.033283569  0.033145756            8 
  405000   0.63046511   -5.3397619    161.28867  0.033186969  0.033062282           25 
  406000   0.61855321   -5.3508164    161.35488  0.033118817  0.032978151           18 
  407000   0.61901268    -5.344759    160.98599  0.032961915  0.032894313            7 
  408000   0.61026706   -5.3652632    160.96483  0.032876803  0.032810241           10 
  409000   0.62456245    -5.342153     161.4161  0.032888366  0.032726475           10 
  410000   0.62222146   -5.3222393     161.5508  0.032835529  0.032643156           17 
  411000   0.59922811   -5.3621546    161.34509  0.032713928  0.032560403           15 
  412000   0.61866897   -5.3479052    161.84137  0.032734906  0.032477304            8 
  413000   0.62181918   -5.3704123    161.44521  0.032575708  0.032394821           18 
  414000   0.60569221   -5.3551644    161.60044  0.032528269  0.032312117           18 
  415000   0.59472255   -5.3857319    161.42913  0.032415488  0.032229282           33 
  416000   0.59437711   -5.3950175    161.26912  0.032305513  0.032146211           14 
  417000    0.5951876   -5.4055255    161.64182  0.032302522  0.032063071           16 
  418000   0.59580205   -5.3815563    161.40294  0.032177619  0.031980117            6 
  419000   0.60002271   -5.3873212    161.17628  0.032055743  0.031896875           22 
  420000   0.59775508   -5.3983769    161.67865  0.032079097  0.031813747           11 
  421000   0.59261696   -5.3816227    161.32879  0.031933648  0.031731312           20 
  422000   0.60019512   -5.3929635    161.54372   0.03190042  0.031649242           19 
  423000   0.57619247   -5.4119647    161.55627  0.031827476  0.031566989           12 
  424000   0.58516493   -5.4189915    161.67906  0.031776545  0.031484782           13 
  425000    0.5983776   -5.4036207    161.21424  0.031610635  0.031403104           15 
  426000     0.600793   -5.4130092    161.63043  0.031617846  0.031322013            9 
  427000   0.59790205   -5.4152265    161.79513  0.031575942  0.031241435           20 
  428000   0.58855998   -5.4165238    161.75257  0.031493881  0.031160642           11 
  429000   0.59652529   -5.4136595    161.83768  0.031437001   0.03108002           14 
  430000    0.5663829   -5.4142311    162.00834  0.031396965  0.030999404            8 
  431000   0.57276281   -5.4490802    161.60605  0.031246336  0.030918348            9 
  432000   0.58146978   -5.4384343     161.9865  0.031247395  0.030837625           14 
  433000   0.56819438   -5.4369454     161.8864  0.031155967  0.030756628           12 
  434000   0.59160343    -5.448167    161.90238  0.031087246  0.030675772           18 
  435000   0.58097096   -5.4675141    161.69952   0.03097692  0.030595123           14 
  436000   0.57977391   -5.4514553    161.39875  0.030848384  0.030514503           14 
  437000   0.56851725   -5.4698752    161.56918  0.030810293  0.030433512           12 
  438000   0.56601981   -5.4632615     161.5548  0.030737214  0.030353131           17 
  439000   0.56660395   -5.4484726    161.52908  0.030662316  0.030273085           10 
  440000   0.55987103   -5.4511394    161.69824  0.030624667  0.030193137            9 
  441000   0.55285559   -5.4544315    161.37995  0.030495078  0.030113021           39 
  442000   0.54875547   -5.4808758     161.4509  0.030439461  0.030032802           15 
  443000   0.56330626    -5.483512    161.67515  0.030412933  0.029952913           14 
  444000   0.55507612   -5.4843243    161.42061  0.030296661  0.029872951           26 
  445000   0.56209075   -5.4759886    161.62873  0.030267553  0.029793104           15 
  446000    0.5696434    -5.473578    161.81016  0.030233587  0.029713734            7 
  447000   0.55597637   -5.4817493    161.27479  0.030066142  0.029634207           16 
  448000   0.54058584   -5.4823203    161.45245  0.030032078  0.029555078            9 
  449000   0.56251365   -5.4836718    161.84268  0.030037617   0.02947632           13 
  450000   0.54153226   -5.5048663    161.39787  0.029888495  0.029397354           16 
  451000   0.54869722   -5.4886056    161.53887  0.029848276  0.029318159           18 
  452000   0.54733025   -5.5119583    160.97328  0.029677964  0.029238683           35 
  453000   0.53612278   -5.4946203    161.50835  0.029710881  0.029159669           31 
  454000   0.54460179   -5.5134591    161.17672  0.029584567  0.029080791           20 
  455000   0.54971789   -5.5449762    161.21972  0.029527422  0.029001893            9 
  456000   0.55234161   -5.5138164    161.14585  0.029449168  0.028923185           18 
  457000   0.53003566   -5.5175613    161.31439  0.029415461  0.028844585           29 
  458000   0.55008482   -5.5261744    161.14128  0.029319739  0.028766124           10 
  459000   0.53779262   -5.5357671      161.107  0.029249637  0.028687814           28 
  460000     0.539106   -5.5397633     160.9515   0.02915788  0.028609471           28 
  461000   0.52121873   -5.5420252    161.04081  0.029110775  0.028531236            8 
  462000    0.5188377   -5.5263621    161.35726  0.029104845   0.02845324           26 
  463000   0.52765272   -5.5422947    161.27974  0.029028031  0.028375837           39 
  464000    0.5376192   -5.5420052    160.98488  0.028912514  0.028298538           17 
  465000   0.53791629   -5.5386146    161.14262  0.028878605  0.028221541           20 
  466000   0.52992391   -5.5400194    161.23062   0.02883237  0.028145056           24 
  467000   0.51491968   -5.5337525    161.15916   0.02875788  0.028068626           15 
  468000   0.50963856   -5.5511765     161.4093  0.028740972  0.027992201           59 
  469000   0.51692328   -5.5567191    161.07891  0.028620987   0.02791551           38 
  470000   0.51127837   -5.5624329    161.35478  0.028609004  0.027839172           20 
  471000   0.52607959   -5.5820484     161.4007  0.028556387  0.027763163           23 
  472000   0.52477695   -5.5645746    160.87478  0.028403033  0.027687435           18 
  473000   0.50936513   -5.5658052    161.11723  0.028385699  0.027611761           20 
  474000   0.52023219   -5.5963791    160.94838  0.028296129  0.027536118           28 
  475000   0.51642081   -5.5842021    160.76415  0.028204237  0.027460452           22 
  476000   0.50778298    -5.578841    161.26097  0.028231962  0.027384962           13 
  477000   0.51288465   -5.6062347    160.52852  0.028044815  0.027309579           23 
  478000   0.50750342   -5.6019472    160.90003  0.028050911  0.027234375           37 
  479000   0.48688609   -5.5973064    160.79863  0.027974709  0.027159309           41 
  480000   0.49206941   -5.6121159    160.59177  0.027880515  0.027084264           29 
  481000   0.49693796   -5.6173679    160.67852  0.027837581    0.0270092           17 
  482000   0.49909417   -5.6158857    160.91714  0.027821081  0.026934528           23 
  483000   0.49106146   -5.6131559    160.52241  0.027695378  0.026860062           29 
  484000   0.49126268   -5.6230761    160.75635  0.027678434  0.026785947           44 
  485000   0.50064217   -5.6167349    160.67859  0.027608006   0.02671204           35 
  486000   0.49907393   -5.6252599    160.57147   0.02753283  0.026638291           24 
  487000   0.48367206   -5.6207577    161.01756  0.027552628  0.026564825           42 
  488000   0.48743222    -5.633698    161.04095  0.027500162  0.026491457           37 
  489000   0.48087602   -5.6557517    160.86118  0.027413289  0.026418276           31 
  490000   0.47875192   -5.6270111    160.72771  0.027334644  0.026345083           24 
  491000   0.48114767   -5.6297445      160.629   0.02726222  0.026272144           41 
  492000   0.47987744   -5.6339201      160.444  0.027175474  0.026199276           49 
  493000    0.4732425   -5.6643736    160.37858  0.027109293  0.026126472           40 
  494000   0.47620379   -5.6560158    159.92995  0.026978737   0.02605371           22 
  495000   0.47483087   -5.6680302    160.07774  0.026949115  0.025981329           25 
  496000   0.47690478   -5.6574683    160.69654  0.026998746  0.025909253           41 
  497000   0.46510057   -5.6713725    160.45372  0.026903709  0.025837375           61 
  498000   0.47563291   -5.6848564     160.5329  0.026862935  0.025765398           41 
  499000   0.47372021   -5.6739516    160.30306  0.026770719  0.025693588           61 
  500000    0.4737275    -5.670496    160.25522  0.026709203   0.02562206           59 
  501000   0.46495244   -5.6869014    159.99076  0.026611903  0.025550789           64 
  502000   0.47135745   -5.6993456    160.42096  0.026630305  0.025479653           34 
  503000   0.46482232   -5.6908704     160.5037   0.02659107  0.025408926           43 
  504000   0.46136633   -5.6732928    159.99432  0.026454088  0.025338459           85 
  505000   0.47087358   -5.7027117    160.16222   0.02642941  0.025267973           23 
  506000   0.45904482   -5.6954838    160.16384  0.026377444  0.025198017           75 
  507000   0.45230672   -5.6944848    160.31538  0.026350326  0.025128194           57 
  508000     0.458805   -5.6883039    160.16467  0.026273731  0.025058433           92 
  509000   0.45611389   -5.7083289     160.1484  0.026219449  0.024988825           53 
  510000   0.45169768   -5.7117293    160.23749  0.026182596  0.024919365           71 
  511000   0.44539629   -5.7120154    160.09865  0.026108716  0.024849927          100 
  512000   0.45587522   -5.7173231    160.13372   0.02606343  0.024780694           60 
Loop time of 1268.06 on 48 procs for 500000 steps with 4000 atoms

Performance: 68135.562 tau/day, 394.303 timesteps/s
99.4% CPU use with 48 MPI tasks x no OpenMP threads

MPI task timing breakdown:
Section |  min time  |  avg time  |  max time  |%varavg| %total
---------------------------------------------------------------
Pair    | 87.6       | 92.042     | 100.65     |  31.6 |  7.26
Neigh   | 8.6183     | 8.8788     | 9.2409     |   5.7 |  0.70
Comm    | 76.628     | 86.253     | 91.701     |  39.8 |  6.80
Output  | 0.88451    | 0.88519    | 0.90792    |   0.4 |  0.07
Modify  | 1063.5     | 1068.6     | 1072.3     |   5.7 | 84.27
Other   |            | 11.39      |            |       |  0.90

Nlocal:        83.3333 ave          90 max          75 min
Histogram: 1 2 1 3 10 8 13 3 3 4
Nghost:        2335.71 ave        2352 max        2310 min
Histogram: 1 0 2 5 8 4 11 9 4 4
Neighs:        15844.5 ave       17210 max       13719 min
Histogram: 1 1 0 6 6 7 7 10 6 4
FullNghs:      31688.6 ave       34568 max       28380 min
Histogram: 1 3 1 7 7 13 7 4 3 2

Total # of neighbors = 1521054
Ave neighs/atom = 380.26350
Neighbor list builds = 26930
Dangerous builds = 0

#clear
#
#next RN
#
#jump SELF
Total wall time: 0:21:11
