
units lj                  # Use reduced LJ style units
atom_style atomic         # Uncharged point particles
atom_modify map hash      # Needed for indexing of clusters etc
                          # Used to be able to find where atoms are in relation to each other.

# Define a lattice with which to populate the simulation cell. With units
# set to 'lj' the second argument to the lattice command is the reduced
# density rho* and the spacings are multiples of that required to acheive
# that density. Also define a simulation cell called 'box' in lattice units
# and fill it with atoms. Here we're creating a box which is ten lattice
# constants in each direction.
lattice fcc 1.0 spacing 1 1 1                 # All equal sizes - gives the right reduced density.
Lattice spacing in x,y,z = 1.5874011 1.5874011 1.5874011

region box block 0 10 0 10 0 10 units lattice # Defines a region, "box", in lattice units
create_box 1 box                              # Creates a simulation box as specified above,
Created orthogonal box = (0.0000000 0.0000000 0.0000000) to (15.874011 15.874011 15.874011)
  3 by 4 by 4 MPI processor grid
                                              # with one type of atom
create_atoms 1 box                            # Creates particles on lattice points
Created 4000 atoms
  using lattice units in orthogonal box = (0.0000000 0.0000000 0.0000000) to (15.874011 15.874011 15.874011)
  create_atoms CPU = 0.002 seconds


# Set the mass of the first (and only) atom type.
mass 1 1.0

# Lennard-Jones interactions between particles, 3.5 sigma cut-off. Apply
# long range tail corrections to energy and pressure and set all coefficients
# to unity since we work in reduced units here. Note that this doesn't shift
# the potential such that it goes to zero at the cutoff. That would require
# pair_modify('shift', 'yes').
pair_style lj/cut  3.5      # non-GPU version
pair_modify tail  yes
pair_coeff 1  1  1.0  1.0   # Intearaction between 1 and 1 set with epsilon = 1 and sigma = 1

write_data data.*
System init for write_data ...
Neighbor list info ...
  update every 1 steps, delay 10 steps, check yes
  max neighbors/atom: 2000, page size: 100000
  master list distance cutoff = 3.8
  ghost atom cutoff = 3.8
  binsize = 1.9, bins = 9 9 9
  1 neighbor lists, perpetual/occasional/extra = 1 0 0
  (1) pair lj/cut, perpetual
      attributes: half, newton on
      pair build: half/bin/atomonly/newton
      stencil: half/bin/3d
      bin: standard

#############################
#   M E L T   S Y S T E M   #
#############################

velocity all create 2.4 9622624 mom yes dist gaussian # Assign velocities
                                                    # Temperature 2.4, random number seed, zero linear momentum
						                                                        # Gaussian distribution

timestep 0.002   # simulation timestep
thermo 1000       # output thermodynamic data every 1000 steps

# Define a fix  in this case with index 1 applied to all
# particles in the simulation. This fix is for simulations
# in the anisotropic NPT ensemble. Note that we use the MTK
# correction.
fix 1 all npt temp 2.4 2.4 0.1 iso 5.68 5.68 0.5 mtk yes tchain 5 pchain 5 # Use NPT ensemble
                                                                         # Set temperature and pressure and damping
                                                                         # Numbers of thermostats in chain and in barostat
run 1000         # run for 10000 steps
Per MPI rank memory allocation (min/avg/max) = 3.642 | 3.644 | 3.648 Mbytes
Step Temp E_pair E_mol TotEng Press Volume 
       0          2.4   -8.3859253            0   -4.7868253   -2.2405722         4000 
    1000    2.3675277   -4.4709979            0  -0.92059417    5.6600046    5150.2326 
Loop time of 0.225183 on 48 procs for 1000 steps with 4000 atoms

Performance: 767376.681 tau/day, 4440.837 timesteps/s
99.2% CPU use with 48 MPI tasks x no OpenMP threads

MPI task timing breakdown:
Section |  min time  |  avg time  |  max time  |%varavg| %total
---------------------------------------------------------------
Pair    | 0.093817   | 0.10015    | 0.10796    |   1.1 | 44.48
Neigh   | 0.01783    | 0.018779   | 0.020213   |   0.4 |  8.34
Comm    | 0.065374   | 0.074266   | 0.082563   |   1.5 | 32.98
Output  | 2.428e-05  | 2.5066e-05 | 3.3447e-05 |   0.0 |  0.01
Modify  | 0.027448   | 0.030425   | 0.033748   |   0.9 | 13.51
Other   |            | 0.001537   |            |       |  0.68

Nlocal:        83.3333 ave          90 max          75 min
Histogram: 3 2 3 4 10 0 12 2 7 5
Nghost:        1388.62 ave        1413 max        1360 min
Histogram: 1 2 4 4 7 12 8 6 2 2
Neighs:        7393.46 ave        8492 max        6395 min
Histogram: 2 3 7 3 11 8 7 4 2 1

Total # of neighbors = 354886
Ave neighs/atom = 88.721500
Neighbor list builds = 87
Dangerous builds = 21

# Equilibrate just above the melting temperature to avoid step fn in T

fix 1 all npt temp 1.25 1.25 0.1 iso 5.68 5.68 0.5 mtk yes tchain 5 pchain 5
run 1000
Per MPI rank memory allocation (min/avg/max) = 3.642 | 3.644 | 3.648 Mbytes
Step Temp E_pair E_mol TotEng Press Volume 
    1000    2.3675277   -4.4709979            0  -0.92059417    5.6600046    5150.2326 
    2000    1.2613379    -5.848842            0   -3.9573082    5.7258602    4335.5859 
Loop time of 0.213824 on 48 procs for 1000 steps with 4000 atoms

Performance: 808141.513 tau/day, 4676.745 timesteps/s
99.6% CPU use with 48 MPI tasks x no OpenMP threads

MPI task timing breakdown:
Section |  min time  |  avg time  |  max time  |%varavg| %total
---------------------------------------------------------------
Pair    | 0.091932   | 0.099949   | 0.11799    |   1.2 | 46.74
Neigh   | 0.015587   | 0.016536   | 0.019272   |   0.4 |  7.73
Comm    | 0.054569   | 0.07313    | 0.081822   |   1.9 | 34.20
Output  | 2.3327e-05 | 2.414e-05  | 3.0842e-05 |   0.0 |  0.01
Modify  | 0.018306   | 0.02226    | 0.026572   |   1.8 | 10.41
Other   |            | 0.001925   |            |       |  0.90

Nlocal:        83.3333 ave          91 max          78 min
Histogram: 6 4 3 15 4 4 7 1 2 2
Nghost:        1554.67 ave        1575 max        1533 min
Histogram: 2 4 1 5 7 14 6 4 2 3
Neighs:        8779.02 ave        9592 max        8178 min
Histogram: 5 6 7 5 5 7 7 1 3 2

Total # of neighbors = 421393
Ave neighs/atom = 105.34825
Neighbor list builds = 76
Dangerous builds = 9


# Small amount of linear quench

fix 1 all npt temp 1.25 ${temp} 0.1 iso 5.68 5.68 0.5 mtk yes tchain 5 pchain 5
fix 1 all npt temp 1.25 1.16 0.1 iso 5.68 5.68 0.5 mtk yes tchain 5 pchain 5
run 2000
Per MPI rank memory allocation (min/avg/max) = 3.643 | 3.645 | 3.648 Mbytes
Step Temp E_pair E_mol TotEng Press Volume 
    2000    1.2613379    -5.848842            0   -3.9573082    5.7258602    4335.5859 
    3000    1.1900814   -5.8829129            0   -4.0982371    5.6533879    4326.0883 
    4000    1.1646564   -5.9539296            0   -4.2073817    5.6791298    4287.6745 
Loop time of 0.440153 on 48 procs for 2000 steps with 4000 atoms

Performance: 785182.042 tau/day, 4543.878 timesteps/s
99.6% CPU use with 48 MPI tasks x no OpenMP threads

MPI task timing breakdown:
Section |  min time  |  avg time  |  max time  |%varavg| %total
---------------------------------------------------------------
Pair    | 0.20098    | 0.21132    | 0.23764    |   1.4 | 48.01
Neigh   | 0.028207   | 0.029325   | 0.032598   |   0.5 |  6.66
Comm    | 0.12152    | 0.14925    | 0.16208    |   2.1 | 33.91
Output  | 4.7047e-05 | 4.7976e-05 | 6.1489e-05 |   0.0 |  0.01
Modify  | 0.039485   | 0.045587   | 0.053089   |   1.9 | 10.36
Other   |            | 0.004628   |            |       |  1.05

Nlocal:        83.3333 ave          89 max          77 min
Histogram: 2 3 4 6 5 7 7 6 6 2
Nghost:        1570.90 ave        1586 max        1554 min
Histogram: 3 2 3 5 4 12 9 5 3 2
Neighs:        8880.69 ave        9567 max        8176 min
Histogram: 2 4 5 5 7 6 8 8 2 1

Total # of neighbors = 426273
Ave neighs/atom = 106.56825
Neighbor list builds = 130
Dangerous builds = 0

#############################
# F R E E Z E  S Y S T E M  #
#############################

# Define solid atoms. This closely follows ten Wolde  Ruiz-Montero and Frenkel  Faraday Discuss  1996  104  93-110
# Compute components of the per-atom q6 vector
compute q6 all orientorder/atom degrees 1 6 components 6 nnn NULL cutoff 1.3 # compute the Q6 parameter.
                                                                             # Use all neighbours within 1.3 unit cell.

# get number of connections
compute coord_number all coord/atom orientorder q6 0.5

# An atom is solid if it has 8 or more connections (of a possible 14)
variable is_solid atom c_coord_number>=8
group solid dynamic all var is_solid    # Must be dynamic to update
dynamic group solid defined

# do clustering
compute cluster solid cluster/atom 1.3 # Create a cluster where all atoms within are solid and max 1.3 units from another member

# define chunks one chunk per cluster
compute clus_chunks solid chunk/atom c_cluster nchunk every compress yes  # Says which atoms are in which chunk

# count the size of each chunk
compute size_chunks solid property/chunk clus_chunks count


# Find the maximum entry in the vector of chunk sizes
variable max_n equal max(c_size_chunks)


# Thermo style which includes this variable
thermo_style custom step temp pe vol v_max_n

thermo ${N}  # Print the thermo information every 100 steps
thermo 1000  

# Reset the npt fix at a lower temperature (below freezing)
fix 1  all npt temp  ${temp} ${temp}  0.1  iso  5.68  5.68  0.5  mtk yes tchain  5  pchain  5
fix 1  all npt temp  1.16 ${temp}  0.1  iso  5.68  5.68  0.5  mtk yes tchain  5  pchain  5
fix 1  all npt temp  1.16 1.16  0.1  iso  5.68  5.68  0.5  mtk yes tchain  5  pchain  5

dump dmp2 all dcd ${N} traj_${rand}.dcd
dump dmp2 all dcd 1000 traj_${rand}.dcd
dump dmp2 all dcd 1000 traj_462431.dcd


# fix rnuntil all halt ${N} v_max_n >= 3980 error soft message no   # Stop when solidified


run 1000000 # 5000000  # Run for this many steps
Neighbor list info ...
  update every 1 steps, delay 10 steps, check yes
  max neighbors/atom: 2000, page size: 100000
  master list distance cutoff = 3.8
  ghost atom cutoff = 3.8
  binsize = 1.9, bins = 9 9 9
  4 neighbor lists, perpetual/occasional/extra = 1 3 0
  (1) pair lj/cut, perpetual
      attributes: half, newton on
      pair build: half/bin/atomonly/newton
      stencil: half/bin/3d
      bin: standard
  (2) compute orientorder/atom, occasional
      attributes: full, newton on
      pair build: full/bin/atomonly
      stencil: full/bin/3d
      bin: standard
  (3) compute coord/atom, occasional
      attributes: full, newton on
      pair build: full/bin/atomonly
      stencil: full/bin/3d
      bin: standard
  (4) compute cluster/atom, occasional
      attributes: full, newton on
      pair build: full/bin/atomonly
      stencil: full/bin/3d
      bin: standard
Per MPI rank memory allocation (min/avg/max) = 9.357 | 9.362 | 9.368 Mbytes
Step Temp PotEng Volume v_max_n 
    4000    1.1646564   -5.9539296    4287.6745            4 
    5000    1.1699724   -5.9700238    4275.5258            3 
    6000    1.1602239   -5.9878822    4279.0579            4 
    7000    1.1539225   -5.9873378    4281.1335            4 
    8000    1.1465883   -5.9363945    4285.5069            4 
    9000     1.173335   -5.9818027    4290.1266            7 
   10000    1.1359413   -5.9701759    4290.5644            5 
   11000    1.1476908   -6.0190303    4286.7587            3 
   12000    1.1619549   -5.9449895    4281.4842            3 
   13000    1.1638544   -6.0241777    4272.2634            5 
   14000    1.1321757     -6.02664    4276.2138            3 
   15000     1.173716   -5.9841834    4287.1836            4 
   16000    1.1484757   -5.9693413    4268.5967            4 
   17000    1.1469688   -5.9855945    4250.8368            4 
   18000    1.1565132   -5.9965081    4282.4002            3 
   19000    1.1729138   -5.9947933    4269.6404            3 
   20000    1.1572268   -6.0047473      4267.02            6 
   21000    1.1545434   -6.0299596     4266.505            7 
   22000    1.1621637   -6.0228214    4274.3662            3 
   23000    1.1733399   -6.0102006    4270.5022            2 
   24000    1.1368941   -5.9888678    4271.8254            3 
   25000    1.1507911   -5.9935808    4267.9468            5 
   26000    1.1683045   -5.9964012    4278.4612            3 
   27000    1.1552934   -5.9896197    4267.7226            2 
   28000    1.1617535   -5.9890361    4271.6362            4 
   29000    1.1639517   -6.0026689    4254.7239            5 
   30000    1.1465431   -5.9763671    4276.6985            3 
   31000     1.161977   -6.0051819    4271.9996            5 
   32000    1.1369639   -5.9959185    4281.9246           10 
   33000    1.1756487   -5.9486227    4273.7698            4 
   34000    1.1497674   -5.9464382    4285.9156            3 
   35000    1.1552835   -5.9875551    4284.0129            3 
   36000    1.1739763   -5.9674314    4275.6243            2 
   37000    1.1817143   -5.9800129    4295.4733            5 
   38000    1.1475919   -5.9711523    4273.9408            7 
   39000    1.1350836    -5.982345    4269.8372            4 
   40000    1.1638261   -5.9509008    4272.1287            5 
   41000     1.158602   -5.9827648    4288.5635            4 
   42000     1.166877   -6.0164717     4251.681            3 
   43000    1.1471093   -5.9941469    4269.0968            3 
   44000    1.1423908   -6.0079341    4260.7178            2 
   45000    1.1529051   -5.9807099    4276.8511            5 
   46000    1.1636712   -5.9636799    4287.6243            2 
   47000    1.1687866   -5.9659501    4276.0632            6 
   48000    1.1914789   -5.9960872    4295.9961            7 
   49000    1.1919042   -5.9936164     4276.789            6 
   50000    1.1982533   -6.0134075    4269.2063            4 
   51000    1.1405577   -5.9642667    4262.8365            3 
   52000    1.1612562   -5.9802504    4272.6389            3 
   53000    1.1354391   -5.9840636    4295.2742            4 
   54000    1.1355327   -5.9838821    4264.5535            4 
   55000    1.1547699   -5.9638791    4268.6199            5 
   56000    1.1762431    -5.988464    4304.3462            2 
   57000    1.1590401   -6.0218086    4271.6309            2 
   58000    1.1879476   -5.9713358     4279.261            2 
   59000    1.1498972   -5.9777319     4282.389            4 
   60000    1.1533021   -5.9702832    4258.9838            5 
   61000    1.1508001   -5.9869592    4282.9102            3 
   62000     1.179261   -6.0036205    4273.7035            4 
   63000    1.1723906   -6.0008601    4284.9714            3 
   64000     1.168006   -5.9819188    4258.8901            3 
   65000     1.146254   -5.9745925    4282.9915            3 
   66000    1.1806975    -5.978701    4275.7083            4 
   67000     1.140393   -6.0122849    4258.9346            5 
   68000    1.1505129   -5.9740506    4282.2911            6 
   69000    1.1343841   -6.0159818    4270.2465            4 
   70000    1.1579642   -5.9854504    4275.9283            4 
   71000    1.1642906   -6.0002856    4275.1174            5 
   72000     1.173178   -6.0262913    4272.1724            5 
   73000    1.1595055   -5.9880168    4269.9374            5 
   74000    1.1535401   -5.9723999    4277.7018            3 
   75000    1.1733485   -6.0015322    4264.7873            3 
   76000    1.1691461   -5.9960167    4275.2599            5 
   77000    1.1649475   -5.9953378     4283.998            5 
   78000    1.1461342   -5.9623002    4294.3151            6 
   79000    1.1729714   -6.0126056    4263.0021            3 
   80000    1.1777105   -6.0002964    4279.8539            8 
   81000    1.1470593    -5.945087    4272.2959            4 
   82000    1.1355103   -6.0050134    4265.7104            4 
   83000    1.1556731   -6.0015936    4262.8524            3 
   84000    1.1632898   -6.0023681    4276.3857            4 
   85000    1.1630176    -5.950645    4283.4387            4 
   86000    1.1577755    -5.964632     4278.953            3 
   87000    1.1696318   -5.9586067     4290.749            3 
   88000    1.1687725   -5.9568454    4287.6261            6 
   89000    1.1778712   -6.0353025    4268.9939            4 
   90000    1.1451432   -5.9791037    4267.9235            2 
   91000    1.1443104   -5.9674205    4266.6873            2 
   92000    1.1671048   -6.0027546    4270.1303            3 
   93000    1.1801098   -6.0028601     4274.144            4 
   94000    1.1805698   -5.9850297    4273.1959           10 
   95000    1.1599989   -6.0080493    4270.5365            4 
   96000    1.1489615   -5.9950152     4248.414            3 
   97000    1.1640385   -6.0091687    4262.5114            4 
   98000    1.1378771   -6.0031324     4269.259            3 
   99000     1.177405   -5.9991841    4274.7859            3 
  100000    1.1501956   -5.9853577    4265.0849            3 
  101000    1.1405943   -5.9926964    4269.4981            4 
  102000    1.1635751   -5.9683592     4266.538            5 
  103000    1.1458019   -6.0147486    4261.3734            2 
  104000    1.1769099   -6.0227951    4276.6139            3 
  105000    1.1240547   -6.0217426    4267.6397            4 
  106000    1.1481572   -5.9948104    4261.9294            4 
  107000    1.1628959   -5.9968397    4277.4872            5 
  108000    1.1451598   -5.9678069    4280.1036            2 
  109000    1.1870885   -5.9777657     4248.394            6 
  110000    1.1475721   -6.0050609    4260.9792            5 
  111000    1.1560836   -5.9862982    4286.6184           10 
  112000    1.1644933   -5.9909144    4278.6139            6 
  113000    1.1879387   -6.0379346    4256.9129            3 
  114000    1.1343595   -6.0015532    4263.3444            4 
  115000    1.1523835   -6.0441021    4261.9324            4 
  116000    1.1661113   -5.9853622    4256.8905            3 
  117000    1.1819583    -6.009615    4287.6708            5 
  118000    1.1574043   -6.0138787    4287.8144            6 
  119000    1.1574428   -6.0181375    4272.9999            3 
  120000    1.1725417   -6.0132699    4271.0338           13 
  121000    1.1625324   -6.0041581    4270.1767            2 
  122000    1.1555263   -5.9808743    4280.8085            3 
  123000    1.1668675    -5.998148    4266.0888            7 
  124000    1.1396905   -5.9649746     4278.874            3 
  125000    1.1762185   -6.0333082    4274.3047            2 
  126000    1.1770802   -6.0209109    4257.5915            9 
  127000    1.1598439   -6.0002212     4288.085            5 
  128000    1.1570609   -5.9995285    4273.9054            3 
  129000     1.151255   -5.9765342    4259.0405            4 
  130000    1.1430011   -5.9838736    4265.6746            3 
  131000    1.1436305   -6.0288389    4273.4112            6 
  132000    1.1705504   -5.9772266    4283.7275            4 
  133000    1.1650535   -5.9679835     4278.424            7 
  134000    1.1755425   -5.9723652    4273.3784            2 
  135000    1.1446103    -6.016364    4269.6314            3 
  136000    1.1775894   -5.9495634    4291.3346            4 
  137000    1.1791911   -5.9969244    4274.7722            4 
  138000    1.1710963   -5.9654814    4297.6019            3 
  139000    1.1642127   -5.9441929    4276.6657            4 
  140000    1.1785358   -6.0182922    4275.8208            4 
  141000    1.1514151   -5.9816856      4280.04            3 
  142000    1.1469764   -5.9934823    4270.7316            2 
  143000    1.1824448   -5.9424616    4274.1341            3 
  144000    1.1931226   -6.0252205     4277.891            2 
  145000    1.1729527   -5.9773762    4293.4162            2 
  146000    1.1677299   -5.9563859    4273.3355            3 
  147000     1.149046   -6.0055376    4276.7302            4 
  148000    1.1354773   -5.9734078    4260.1037            7 
  149000    1.1701577   -5.9733672    4279.0414            7 
  150000    1.1519702   -6.0247181    4278.0279           16 
  151000    1.1494639   -6.0214094    4272.8907            4 
  152000    1.1743741   -5.9733164    4283.0365            4 
  153000    1.1556989   -5.9803004    4273.4776            7 
  154000    1.1510211   -5.9764289     4289.044            2 
  155000    1.1315088   -6.0072175    4278.7171            4 
  156000    1.1779335   -5.9563339    4283.2077            3 
  157000    1.1656856   -6.0125844    4264.6853            5 
  158000    1.1610627   -5.9960103    4261.9733            3 
  159000    1.1610075   -5.9774949    4282.9254            3 
  160000    1.1762939   -5.9889322    4272.8516            7 
  161000    1.1353234   -5.9730043    4264.1342            4 
  162000    1.1647323   -5.9806257    4286.2304            9 
  163000    1.1526727   -5.9888064     4274.902            2 
  164000    1.1679841   -5.9960236    4276.5387            9 
  165000    1.1471698   -6.0122314    4270.0042            3 
  166000    1.1660497   -5.9920862    4271.2845            6 
  167000    1.1541492   -5.9837221    4264.6152            3 
  168000    1.1547727   -6.0137924    4258.8089            5 
  169000    1.1598729   -6.0006757    4278.0908            2 
  170000     1.156452   -6.0345539    4273.2315            4 
  171000    1.1699922   -5.9766508    4278.9114            3 
  172000    1.1703973   -5.9541575    4284.4927            3 
  173000    1.1698934   -6.0109451    4259.1948            2 
  174000    1.1640357   -5.9763016    4280.7322            6 
  175000    1.1391974    -6.002619    4274.6577            4 
  176000    1.1393742   -5.9608297    4269.1213            5 
  177000    1.1852839   -6.0352384    4269.2963            4 
  178000    1.1578489   -5.9673194    4287.9257            2 
  179000    1.1705779   -5.9490212    4269.7515            5 
  180000    1.1579843    -5.985721    4270.1567            4 
  181000    1.1566344   -5.9683981    4270.6639            4 
  182000    1.1662134    -5.996523    4283.9892            3 
  183000    1.1587817    -5.968877    4275.2401            3 
  184000     1.175555   -5.9594334     4266.967           17 
  185000    1.1796095   -6.0374089      4257.63            2 
  186000    1.1857015   -6.0175557    4279.6249            3 
  187000    1.1831011   -6.0109985    4261.3956            3 
  188000    1.1857942   -5.9674958    4277.0885            3 
  189000    1.1502811    -6.003687    4264.7257            3 
  190000    1.1428952   -5.9850352    4266.5618            3 
  191000     1.174475   -5.9551338    4263.4981            4 
  192000     1.172144   -5.9524161    4284.9832            4 
  193000    1.1625497   -5.9972589    4278.3273            2 
  194000    1.1753879    -5.994042     4283.823            6 
  195000    1.1577592   -5.9759914     4294.453            3 
  196000    1.1545843   -6.0015272    4270.3706            6 
  197000    1.1918002    -5.970247     4279.851            6 
  198000    1.1467943   -5.9842046    4270.9146            5 
  199000    1.1769158   -6.0049313    4246.6111            3 
  200000    1.1437038   -5.9363984    4280.4437            2 
  201000    1.1731063   -5.9671651    4294.8693            6 
  202000    1.1499077   -6.0222798    4273.5608            2 
  203000    1.1466704   -6.0047572    4287.7285            6 
  204000    1.1464204   -5.9961243    4273.9162            4 
  205000    1.1679664   -5.9964931    4267.3408            3 
  206000    1.1560064   -5.9693708    4299.9217            3 
  207000    1.1357157   -5.9888139    4272.6127            5 
  208000    1.1676559   -6.0038195    4267.8748            3 
  209000    1.1621915   -5.9935863    4270.9525            6 
  210000    1.1647865   -6.0194977    4247.7308            5 
  211000    1.1611232   -5.9769504    4270.9633            6 
  212000     1.154019   -5.9935583    4266.0073            2 
  213000    1.1619479   -5.9899335    4254.8357            6 
  214000    1.1487078   -5.9807233    4268.3351            2 
  215000    1.1723271   -5.9823867    4266.3361            4 
  216000    1.1484441   -5.9829958    4274.9586            2 
  217000    1.1662573   -6.0005726    4268.5132            6 
  218000    1.1542181   -5.9808738    4278.5684            5 
  219000    1.1738677   -6.0026871    4268.3858            4 
  220000     1.129511   -6.0294799    4274.3202            3 
  221000    1.1560724   -5.9726118    4277.6514            3 
  222000    1.1628322   -6.0110044    4276.0778            6 
  223000    1.1665451   -6.0043383    4275.3846            4 
  224000    1.1729848   -6.0187339     4265.385            6 
  225000    1.1407822   -5.9915701    4273.5844            4 
  226000    1.1540754   -6.0177672    4279.1533            5 
  227000    1.1591547   -5.9897296    4272.3128            7 
  228000    1.1641017    -6.005902    4266.7586            3 
  229000    1.1631017   -6.0322888    4266.3852            3 
  230000    1.1433666   -5.9614857    4284.6148            9 
  231000    1.1464531   -5.9387049    4294.0225            5 
  232000    1.1643316   -5.9843514    4275.9956            3 
  233000    1.1615494   -5.9907355    4283.4991            5 
  234000    1.1593343   -5.9852647    4259.8503            4 
  235000    1.1778794   -5.9862895    4275.2815            4 
  236000    1.1643712   -6.0009126     4261.978            4 
  237000    1.1581638   -5.9845028    4290.1218            3 
  238000    1.1458495   -5.9902213    4271.0172            4 
  239000    1.1878129   -5.9604181     4266.881            2 
  240000    1.1718592   -5.9690762    4278.4299            3 
  241000     1.151737   -6.0062512    4260.1823            2 
  242000    1.1864514   -5.9784711    4283.7795            4 
  243000    1.1573533   -5.9758842    4274.9115            4 
  244000    1.1437716   -5.9762635    4264.7202            7 
  245000    1.1554071   -6.0332132    4264.8145            2 
  246000    1.1602194   -5.9832034    4273.9085            3 
  247000    1.1426547   -6.0115489    4272.1563            2 
  248000    1.1829618   -6.0118024    4274.2994            5 
  249000    1.1672519   -6.0045029    4274.0914            2 
  250000    1.1519889   -5.9880509    4295.3165            4 
  251000    1.1628038   -5.9677933    4262.2361            3 
  252000    1.1702897   -6.0117318    4268.7735            4 
  253000    1.1718401   -6.0244273    4249.9423            6 
  254000    1.1619765   -6.0290685    4282.6033            4 
  255000    1.1619511   -5.9762457    4289.6442            3 
  256000    1.1474454   -5.9648843    4270.3755            6 
  257000    1.1594645   -6.0086717    4269.0607            7 
  258000    1.1698855   -5.9730894    4281.6852            2 
  259000    1.1767537   -5.9828515    4290.7249            6 
  260000    1.1591117   -5.9472522    4285.7073            3 
  261000    1.1714314   -5.9911622    4269.3103            5 
  262000    1.1477901   -6.0084539    4260.0922            3 
  263000     1.185391   -5.9626741    4275.0939            3 
  264000    1.1702845   -5.9728666    4291.5652            4 
  265000      1.17841   -5.9621484    4286.3146            5 
  266000    1.1663756   -5.9995333    4269.6458            4 
  267000    1.1522975    -5.977085    4263.1419            2 
  268000    1.1534423   -5.9988834    4260.8092            2 
  269000    1.1624328   -5.9964043    4292.1603            5 
  270000    1.1724138   -5.9876283    4277.1105           11 
  271000    1.1589336   -6.0029068    4254.0941            8 
  272000    1.1783071   -5.9869022    4274.6802            2 
  273000    1.1430356   -5.9999931    4303.4128            3 
  274000    1.1599897   -6.0116858     4264.657            8 
  275000    1.1650613   -5.9795394    4283.9681            6 
  276000    1.1481913   -5.9833946      4273.61            2 
  277000    1.1500529   -6.0083802    4272.9404            6 
  278000     1.152738   -5.9996435    4282.6467            3 
  279000     1.152113   -5.9910525    4252.1525            7 
  280000    1.1662795    -6.007129    4260.2639            3 
  281000    1.1786458   -5.9749675    4261.0981            7 
  282000    1.1509064   -5.9693884    4275.5603            5 
  283000    1.1165744   -6.0133581    4295.8931            2 
  284000    1.1546509   -5.9760944    4280.8528            7 
  285000    1.1664796   -5.9642148     4275.639            3 
  286000    1.1721266   -5.9938941    4269.5339            1 
  287000    1.1606115   -5.9804318    4277.4107            3 
  288000    1.1585682   -5.9915321    4260.2533            6 
  289000     1.157513   -5.9839639     4271.686            5 
  290000    1.1804144   -5.9299395    4288.8804            1 
  291000    1.1329958   -6.0145138    4266.8335            5 
  292000    1.1547561   -5.9619732    4259.9711            5 
  293000    1.1875333   -6.0027481    4265.1642            8 
  294000    1.1549122   -5.9665518    4278.3407            6 
  295000    1.1750995   -5.9776634    4268.2388            6 
  296000    1.1744549   -6.0147776    4288.8323            3 
  297000    1.1717156   -6.0119441    4257.5848            5 
  298000    1.1830872   -5.9771279    4263.0663            6 
  299000    1.1411396   -5.9927095    4249.0109            3 
  300000    1.1631353   -5.9667842    4280.4648            2 
  301000    1.1841632   -5.9950703    4275.8594            2 
  302000    1.1840896   -6.0037468     4284.782            3 
  303000    1.1402005   -5.9790911    4290.2804            4 
  304000    1.1647004   -5.9986568     4267.966            4 
  305000    1.1605111   -5.9867993    4284.1444            2 
  306000    1.1455105   -6.0279997    4292.6212            3 
  307000    1.1577082   -5.9587307    4290.4597            4 
  308000    1.1626869   -6.0119074    4270.3459            4 
  309000    1.1438519   -5.9900987    4278.7578            2 
  310000    1.1843961   -5.9784458    4263.0658            8 
  311000    1.1621613   -5.9879444    4286.5174            2 
  312000    1.1807987   -6.0039893    4280.8132            4 
  313000     1.140632   -5.9779597    4269.2119            4 
  314000     1.149042   -6.0091598    4291.4892            5 
  315000    1.1508231    -5.985945    4263.0484            2 
  316000    1.1350145   -6.0058792    4274.8664            3 
  317000    1.1466634   -5.9524835    4288.0936            3 
  318000    1.1707362   -5.9517629    4264.2357            2 
  319000    1.1561739    -5.980394    4270.4257            5 
  320000    1.1563295   -6.0085689    4263.5732            3 
  321000    1.1583851   -5.9623527    4283.9799            6 
  322000    1.1619972   -5.9625519    4280.7638            3 
  323000    1.1529098   -5.9987842    4275.8457            4 
  324000    1.1511078   -6.0051735    4282.3461            6 
  325000    1.1552339   -6.0065625    4261.1859            4 
  326000    1.1223883   -6.0098079     4251.873            3 
  327000    1.1571011   -5.9887578    4265.6203            3 
  328000    1.1691052   -5.9893878    4281.5994            4 
  329000    1.1766942   -5.9883418    4271.5925            2 
  330000     1.148525   -6.0262469    4262.3727            6 
  331000    1.1616545   -5.9899027    4264.1087            3 
  332000    1.1344469   -5.9679001    4261.3777            9 
  333000     1.165806   -6.0112981    4249.5422            6 
  334000    1.1717643   -5.9572813    4272.3347            7 
  335000      1.16514   -5.9992479    4284.7451            4 
  336000    1.1555125   -5.9936781    4283.7024            4 
  337000    1.1710761   -6.0138167    4271.8949            5 
  338000    1.1693716   -5.9985983    4250.7915            7 
  339000    1.1592691   -6.0143489     4265.097            5 
  340000    1.1621092    -5.969778    4281.2625            3 
  341000    1.1665078   -6.0196569    4278.0974            3 
  342000    1.1596975   -5.9947251     4276.296            5 
  343000    1.1569111   -5.9988498    4279.5578            6 
  344000     1.169123   -5.9619496    4272.3999            3 
  345000    1.1495663   -5.9966623    4287.0742            4 
  346000     1.158341    -5.977464    4288.9551            8 
  347000    1.1944703   -5.9835645    4294.3898            3 
  348000    1.1567845   -5.9730605    4279.5811            2 
  349000    1.1375793   -5.9645664    4279.5456            6 
  350000    1.1486462   -5.9711901    4277.8897            4 
  351000     1.157693   -5.9969544     4256.673            3 
  352000    1.1588864   -6.0170082    4266.1521            5 
  353000     1.165544    -6.002012       4278.5            4 
  354000    1.1649808   -6.0137719     4290.017            4 
  355000     1.127747   -5.9860407    4282.5962            2 
  356000    1.1629284   -6.0113559    4261.3811            8 
  357000    1.1476621   -6.0261016    4267.4344           20 
  358000    1.1555289   -5.9934594    4270.2778            5 
  359000    1.1392847   -5.9810035     4284.309            4 
  360000    1.1460558   -5.9987606    4255.7483            4 
  361000    1.1597236   -5.9778167    4298.4022            2 
  362000    1.1653109   -5.9934832    4284.3976            3 
  363000    1.1664111   -5.9921367    4240.8406            5 
  364000    1.1604609   -6.0026953     4273.621            5 
  365000     1.159374   -6.0038595    4253.5642            5 
  366000    1.1334266    -6.014078    4269.9671            3 
  367000    1.1529077   -5.9742425    4273.5435            2 
  368000    1.1626104   -6.0056792    4286.3292            3 
  369000    1.1594989   -5.9893412    4264.0602            5 
  370000    1.1735347   -5.9983463    4268.5331           11 
  371000    1.1390846   -5.9773605    4274.5444            2 
  372000    1.1636545   -6.0332042      4285.04            5 
  373000    1.1443428   -5.9776292    4270.2014            2 
  374000    1.1538291   -5.9945295    4263.7933            3 
  375000    1.1589814   -6.0183551    4271.6457            6 
  376000    1.1410252   -6.0183975    4272.6404            4 
  377000    1.1561115   -5.9935472    4267.8071            7 
  378000    1.1916014   -6.0244201     4281.976            4 
  379000    1.1569066    -5.985385    4286.8784            4 
  380000    1.1610052   -5.9845424    4269.0944            2 
  381000    1.1612265   -6.0150084    4253.8133            5 
  382000    1.1719803   -5.9733722    4261.4471            4 
  383000    1.1741787   -5.9891735     4304.153            4 
  384000    1.1627463   -5.9827393    4283.2169            2 
  385000    1.1631738   -6.0064869    4283.3747            3 
  386000    1.1486758   -5.9410395     4268.639            7 
  387000     1.153949   -5.9679547    4258.3613            2 
  388000    1.1677531   -5.9783524    4275.3723            5 
  389000    1.1752004   -6.0016588    4276.6588            6 
  390000    1.1565284   -5.9681702    4288.4852            2 
  391000    1.1550977   -5.9721778    4282.6307            6 
  392000    1.1609043   -5.9880168    4259.9773            4 
  393000    1.1721315   -6.0058083    4257.4105            4 
  394000     1.163914   -6.0128363    4269.4263            5 
  395000    1.1539362   -6.0230415    4268.2302            3 
  396000    1.1677084   -6.0090637    4265.0495            3 
  397000     1.151135   -5.9805598    4289.6426            3 
  398000      1.14602   -5.9849754    4276.7674            4 
  399000    1.1359716   -5.9930823    4284.1934            4 
  400000    1.1363368   -6.0015047    4274.5158            2 
  401000     1.178262   -6.0269371    4278.3783            5 
  402000    1.1498586   -6.0315576    4268.7598            4 
  403000    1.1646357   -5.9752176    4282.3692            8 
  404000    1.1660029   -5.9804253    4282.5162            3 
  405000    1.1509185    -5.978626    4276.9904            5 
  406000    1.1845768   -6.0168634      4286.63            4 
  407000    1.1314072   -5.9562636    4268.6473            5 
  408000    1.1332616   -5.9768226    4293.9561            1 
  409000    1.1712088   -5.9830062    4280.7836            7 
  410000    1.1721788   -5.9743479    4283.2013            4 
  411000    1.1609751   -5.9516752    4292.6652            3 
  412000    1.1483496   -6.0132625    4256.1267            3 
  413000    1.1659801   -6.0027392    4274.7757            4 
  414000     1.164161     -6.00124    4275.3842            3 
  415000    1.1601898    -5.996796    4252.8192            3 
  416000    1.1713353   -6.0216508    4264.8778            3 
  417000    1.1734261   -5.9939967    4288.8324            3 
  418000    1.1597411   -5.9601723    4275.5815            3 
  419000      1.16911   -6.0052829    4266.0067            3 
  420000    1.1691185   -5.9710564    4270.3398            4 
  421000    1.1686046   -5.9572418    4285.0111            4 
  422000    1.1712924   -5.9629462    4269.7171            2 
  423000    1.1723399   -5.9713076    4271.8908            7 
  424000    1.1537146   -6.0015788    4274.0963            5 
  425000    1.1671693   -5.9634094    4276.8685            3 
  426000    1.1604609   -6.0061879    4276.3143            3 
  427000    1.1617189   -5.9974318    4280.5247            8 
  428000    1.1828826   -6.0299633    4271.3734            9 
  429000    1.1569974   -5.9649465    4263.4522            4 
  430000     1.165541   -6.0062341    4274.4698            7 
  431000      1.20898   -5.9311984     4290.836            5 
  432000    1.1478718   -5.9889164    4281.2775            4 
  433000    1.1586426   -5.9835578    4288.2859           10 
  434000    1.1327789   -5.9988733    4270.1706            2 
  435000    1.1519108    -5.960038    4282.4157            3 
  436000    1.1629492   -5.9847862    4278.0599            4 
  437000    1.1722278   -5.9818808    4296.6552            3 
  438000    1.1751441   -5.9727712    4273.8249            5 
  439000      1.15553    -6.008733    4276.6844            4 
  440000    1.1566851   -6.0036423    4269.3299            3 
  441000    1.1513397   -6.0053998    4270.7481            3 
  442000     1.154667   -6.0063967    4267.7245            2 
  443000    1.1745098   -6.0047964     4253.309            4 
  444000    1.1450165   -6.0190423    4281.6464            5 
  445000    1.1488675   -5.9944151    4274.0237            3 
  446000     1.135614   -5.9886262     4285.914            4 
  447000    1.1571069   -6.0280023    4267.3219           11 
  448000    1.1502222   -5.9867625    4278.1194            3 
  449000    1.1782619    -5.967966    4285.5343            4 
  450000    1.1436766   -5.9862297    4273.5102            3 
  451000    1.1774839   -5.9948438     4267.068            3 
  452000    1.1501443   -5.9811585    4282.1812            2 
  453000    1.1462914   -6.0137172    4275.1276            4 
  454000    1.1709911   -5.9729689    4264.6126            2 
  455000    1.1503897   -5.9934896    4270.1167            5 
  456000    1.1182993   -5.9550607    4287.2932            2 
  457000    1.1646722   -5.9701683    4281.3321            2 
  458000    1.1722843   -6.0033016    4273.5041            4 
  459000    1.1701491   -5.9717752    4268.2856            7 
  460000     1.177487   -5.9844599    4273.5955            4 
  461000    1.1775235   -5.9801467    4269.2741            3 
  462000     1.179466   -5.9723566    4258.1182            6 
  463000    1.1645682   -5.9595703    4285.4725            6 
  464000    1.1734413   -5.9649334    4284.9979            4 
  465000       1.1494   -6.0018198    4292.2791            2 
  466000    1.1948427   -5.9977356    4290.1861            4 
  467000    1.1743455   -5.9879531    4283.6732            4 
  468000    1.1339674   -5.9801895    4261.7902            6 
  469000    1.1660039   -5.9768171    4266.6516            4 
  470000    1.1565498   -5.9778999    4284.1517            5 
  471000     1.142094   -6.0007914    4280.0901            6 
  472000    1.1424163   -5.9535864    4268.4806            3 
  473000    1.1663968   -6.0107012    4276.4627            4 
  474000    1.1524037    -5.950829    4271.8247            5 
  475000    1.1645057   -5.9602717    4287.4561            2 
  476000    1.1490508   -5.9762812    4272.4849            7 
  477000    1.1783844   -5.9650212    4280.7535            6 
  478000    1.1709358    -6.013906     4257.214            5 
  479000    1.1493368   -5.9662684    4272.5951            4 
  480000    1.1440811   -5.9964598    4284.7266            5 
  481000    1.1461448   -5.9689411    4267.0201            3 
  482000    1.1623494   -5.9968326    4288.4349            3 
  483000    1.1451396   -5.9762925    4272.8566            4 
  484000    1.1380984   -5.9910806    4276.3798            3 
  485000    1.1524221   -5.9987205    4290.0457           13 
  486000    1.1693448   -5.9653843    4288.6685            3 
  487000    1.1706592   -6.0012424    4274.9669            6 
  488000    1.1523587   -6.0034239    4293.1351            6 
  489000    1.1539334   -6.0104151    4284.8591            4 
  490000    1.1508968   -5.9993034    4268.7166            5 
  491000    1.1622921    -5.984294    4278.1004            4 
  492000    1.1554883    -6.001936     4271.712            5 
  493000    1.1696607   -5.9903658    4270.6584            2 
  494000    1.1457835   -6.0116701    4278.3267            5 
  495000    1.1490748   -5.9982256     4274.178            3 
  496000    1.1487138   -5.9754181    4279.4078            4 
  497000     1.141141   -5.9895465    4281.8166            4 
  498000    1.1548734   -5.9575941    4295.1726            3 
  499000    1.1491058   -6.0273361    4270.4161            3 
  500000    1.1819281   -5.9967869    4271.4748            4 
  501000    1.1389454   -5.9927153    4256.7933            2 
  502000     1.176421   -5.9653955    4279.6509            1 
  503000    1.1574441   -5.9791318     4280.711            3 
  504000    1.1623908   -6.0149595    4249.1694            3 
  505000    1.1590696   -5.9689623    4285.6948            5 
  506000    1.1384041   -5.9954031    4274.3586            8 
  507000    1.1603143   -5.9856191    4283.0587            4 
  508000    1.1375069   -6.0275934    4266.7892            5 
  509000    1.1628741     -5.98226    4284.9658            4 
  510000    1.1548771   -5.9970943    4258.8207            2 
  511000    1.1738463   -5.9741273    4277.5766            4 
  512000    1.1669989   -5.9789938    4272.8822            4 
  513000    1.1631354   -5.9661256     4267.571            5 
  514000     1.182614   -6.0274032    4285.8064           10 
  515000    1.1566895   -6.0014623    4258.1153            7 
  516000    1.1493975   -5.9887911    4289.2675            5 
  517000    1.1581687   -5.9826455    4283.5459            3 
  518000     1.157156   -6.0174246    4270.4932            4 
  519000    1.1709446   -5.9516667    4293.2662            2 
  520000    1.1532434   -5.9986696    4280.8824            3 
  521000    1.1390931   -5.9990401     4256.027            2 
  522000    1.1606842   -5.9737639    4281.9558            6 
  523000    1.1630429   -6.0020477     4294.965            4 
  524000    1.1578686   -6.0135647    4291.1699            3 
  525000    1.1683303   -5.9956342    4266.4604            7 
  526000    1.1627277   -6.0105838    4274.7942            5 
  527000    1.1452344   -5.9991346     4276.539            4 
  528000    1.1709877   -6.0210446    4273.0458            5 
  529000    1.1545596   -6.0053422    4285.5826            4 
  530000    1.1683404   -6.0121042    4269.8037            5 
  531000    1.1490506   -5.9776993    4281.7082            2 
  532000    1.1756911   -6.0394809    4285.0371            4 
  533000    1.1633862    -5.978575     4283.512            3 
  534000    1.1279241   -6.0162161    4273.6939            5 
  535000    1.1472888   -5.9816368    4265.3793            4 
  536000    1.1450978   -5.9749968    4271.9872            4 
  537000    1.1598313   -5.9405841    4295.4591            5 
  538000    1.1773791   -6.0064956     4267.835            5 
  539000     1.164815   -5.9917106    4253.5236            5 
  540000    1.1422035    -5.997341    4263.0125            5 
  541000    1.1854353   -6.0020177    4260.3214            4 
  542000    1.1414104   -6.0164209    4264.0675           11 
  543000    1.1479823   -6.0051657    4265.9956            5 
  544000    1.1727197   -6.0007004    4270.9928            2 
  545000    1.1406203   -5.9684203    4275.8625            3 
  546000     1.169088   -5.9494858    4272.4815            4 
  547000    1.1787871   -6.0306541    4252.9555            3 
  548000    1.1551134   -5.9946925    4277.4901            3 
  549000    1.1651841   -6.0040626    4271.5497            5 
  550000    1.1413855   -5.9845304    4248.1409            7 
  551000    1.1661071   -5.9930315    4267.3004            2 
  552000    1.1356123   -6.0125993    4277.3341            4 
  553000    1.1727898   -5.9836474    4288.1355            3 
  554000    1.1670779   -5.9753896    4268.7358            6 
  555000    1.1682076   -5.9894323    4291.0348            3 
  556000    1.1773027   -5.9990614     4264.263            2 
  557000    1.1385289   -6.0675335    4269.4799            3 
  558000     1.156355   -5.9615073    4296.1458            7 
  559000    1.1596611   -6.0214098    4281.2514            4 
  560000    1.1452562   -5.9779205    4276.7118            5 
  561000    1.1667077   -5.9899245    4264.5086            4 
  562000    1.1597256   -5.9661384    4268.9896            3 
  563000    1.1303985   -5.9878051    4275.3775            2 
  564000    1.1730142   -5.9648632    4277.4627            3 
  565000    1.1492762   -6.0227903    4265.1536            6 
  566000    1.1525663   -5.9887757    4258.0371            2 
  567000    1.1632895   -5.9977098    4267.2231            5 
  568000    1.1676371   -6.0272598    4275.4849            4 
  569000    1.1889303   -5.9928982    4254.3295            4 
  570000    1.2009653   -6.0009586    4287.7353            4 
  571000    1.1732079   -6.0043162    4273.1645            6 
  572000      1.18785   -5.9769117    4272.5054            3 
  573000    1.1514992   -5.9496532    4282.4649            2 
  574000    1.1254043   -6.0071362    4270.6922            3 
  575000    1.1534104   -6.0062176    4266.2577            4 
  576000    1.1548047   -6.0066602    4277.3668            6 
  577000    1.1657125   -6.0095624    4255.4288            4 
  578000    1.1831439   -5.9967459    4269.7433            5 
  579000    1.1663931   -5.9942961    4255.9248            4 
  580000    1.1840842   -6.0044184    4268.8553            6 
  581000    1.1511158     -5.99942     4266.603            4 
  582000    1.1598263   -5.9502789    4280.6671            4 
  583000    1.1880514   -5.9952472    4287.0323            8 
  584000    1.1654575   -5.9867736    4262.3555            4 
  585000    1.1651543   -5.9708297    4273.9201            3 
  586000    1.1324807   -5.9795149     4269.747            5 
  587000    1.1725856    -5.976173    4293.5506            4 
  588000     1.160368   -5.9620742    4286.0342            7 
  589000    1.1482103   -5.9909556    4285.2057            4 
  590000    1.1792656   -5.9114173    4290.8484            6 
  591000    1.1938512   -6.0039153     4271.435            4 
  592000    1.1848244   -5.9817529    4270.5714            8 
  593000    1.1385379   -5.9936729    4268.7635            7 
  594000    1.1670346    -5.994109    4281.3032            7 
  595000    1.1528391   -5.9731698    4270.0786            3 
  596000     1.175599   -5.9838827    4287.7335            7 
  597000    1.1757502   -5.9940942    4272.6518            4 
  598000     1.190118   -5.9774912    4277.6778            4 
  599000    1.1503474   -5.9788558    4280.1354            5 
  600000    1.1573516   -5.9724123    4292.7003            3 
  601000    1.1946054   -6.0034024    4266.7713            3 
  602000    1.1247911   -6.0254281    4293.1794            3 
  603000    1.1723164   -5.9879324    4273.7998           12 
  604000    1.1527337   -5.9984109     4275.839            6 
  605000    1.1904414   -5.9959812    4277.2949            3 
  606000    1.1383638   -5.9970944    4274.6063            3 
  607000    1.1569023   -5.9916382    4275.7134            4 
  608000    1.1571521   -5.9657584    4300.5546            3 
  609000    1.1652309   -6.0156859    4270.6274            4 
  610000    1.1622317   -5.9755214    4253.3493            5 
  611000    1.1833362   -5.9838521    4255.7419            3 
  612000     1.135407   -5.9866727    4269.7891            4 
  613000    1.1620041   -6.0162486    4277.3611            3 
  614000    1.1522263   -5.9738182    4263.9117            2 
  615000    1.1685459   -6.0332212    4265.3763            3 
  616000    1.1616294   -5.9866922    4275.1181            3 
  617000    1.1600878   -6.0116465    4261.9067            4 
  618000    1.1668001   -6.0198426    4285.7255            9 
  619000    1.1709534   -5.9830863     4293.097            4 
  620000    1.1914824   -5.9795376    4265.4473            3 
  621000    1.1469751   -5.9744995    4268.8357            3 
  622000    1.1589901   -5.9655097    4289.5378            2 
  623000    1.1564078   -5.9916689    4265.9613            2 
  624000    1.1517634   -5.9936434    4284.3275            5 
  625000    1.1741572   -5.9932297    4263.0665            5 
  626000    1.1672829   -5.9687056    4290.7669            3 
  627000    1.1440767   -5.9862922    4267.2349            2 
  628000    1.1572549   -5.9812728    4276.0058            7 
  629000    1.1639493   -6.0037862    4283.5654            3 
  630000    1.1384017   -5.9443705    4305.4108            4 
  631000    1.1498386   -6.0142812    4262.5246            4 
  632000    1.1428453   -5.9858651     4289.008            4 
  633000     1.181787   -5.9942458    4272.2923            4 
  634000    1.1452617   -5.9605091    4271.5402            4 
  635000    1.1406003   -5.9874567     4271.469            2 
  636000    1.1717105   -6.0039963    4274.3518            2 
  637000    1.2019947   -5.9549278    4265.5554            5 
  638000    1.1723893   -5.9592986    4290.2916            5 
  639000    1.1464579   -6.0103425    4263.7444            4 
  640000    1.1668489   -5.9788614    4280.3207            3 
  641000    1.1752767   -6.0109685    4281.8772            3 
  642000     1.139326   -5.9767063     4280.138            2 
  643000    1.1480465   -6.0135779    4262.5514            3 
  644000    1.1506442   -6.0052804    4260.5826            4 
  645000     1.151674   -5.9790182    4289.6978            6 
  646000    1.1556261   -6.0147003    4255.8908            7 
  647000    1.1616368   -6.0179204    4270.6746            5 
  648000    1.1633121   -5.9483474    4287.6463            4 
  649000    1.1269339   -5.9688347    4286.3636            8 
  650000    1.1482835   -5.9995576    4270.5099            4 
  651000    1.1503014   -5.9981438    4275.8312            4 
  652000    1.1532975   -6.0190175    4266.5569            3 
  653000    1.1437564   -6.0037861    4259.7051            4 
  654000    1.1535884   -6.0085742    4270.5464            3 
  655000    1.1382508   -5.9652675     4287.148            7 
  656000    1.1430874   -5.9877078    4279.8682            3 
  657000    1.1797189   -5.9795214    4294.1987            2 
  658000     1.183091   -6.0142917     4260.569            4 
  659000    1.1771182    -6.041975    4270.3733            3 
  660000    1.1562773    -6.016739    4278.9823            4 
  661000    1.1632747   -5.9839294    4274.2144            8 
  662000    1.1340148   -6.0079435    4268.0588            5 
  663000    1.1659446   -5.9825933    4281.8154            3 
  664000    1.1414149   -6.0023081    4257.9637            3 
  665000    1.1800266   -5.9659613    4291.1913            2 
  666000    1.1637281   -5.9823433    4294.8093            3 
  667000    1.1584745   -5.9920304    4276.0633           11 
  668000    1.1709718   -5.9864667    4294.6064            4 
  669000    1.1599036   -6.0226703    4274.2438            3 
  670000    1.1448855    -5.976707    4256.6223            5 
  671000    1.1689404   -5.9641194    4274.3944            5 
  672000    1.1502472   -6.0097367    4276.3566            3 
  673000    1.1626637   -5.9746659    4271.7055            4 
  674000    1.1822372   -5.9872305    4285.8633            6 
  675000    1.1351146   -6.0282264    4272.9188            8 
  676000    1.1603371   -5.9984802    4259.0165            5 
  677000     1.159975   -5.9540268    4273.7043            7 
  678000    1.1393018   -5.9767997    4274.7662            4 
  679000    1.1560849   -5.9897443    4269.1123            6 
  680000    1.1284926    -5.982545    4273.8578            5 
  681000    1.1383542   -6.0032096    4265.7194            4 
  682000    1.1428435   -6.0071185    4281.9652            6 
  683000    1.1540611   -5.9917338    4279.7465            2 
  684000    1.1525958   -5.9818779     4269.612            2 
  685000    1.1485306   -6.0342649    4254.1982            4 
  686000    1.1611584   -5.9731417    4287.1832            3 
  687000    1.1770446   -6.0163644    4259.7281            2 
  688000    1.1606476   -5.9876631    4280.2969            4 
  689000    1.1522217   -5.9510269    4280.9358           10 
  690000    1.1523584   -5.9917413    4295.9803            3 
  691000    1.1779754   -6.0125374    4251.1754            5 
  692000    1.1845971   -5.9564245    4282.9792            4 
  693000    1.1805264   -6.0064375    4258.8296            4 
  694000    1.1568754   -5.9732987    4290.6029            3 
  695000    1.1798989   -5.9999809    4274.0168            4 
  696000    1.1480415   -5.9963278    4275.3476            4 
  697000     1.171662   -5.9944534    4272.5519           13 
  698000     1.163054   -5.9922672      4262.43            4 
  699000    1.1488057    -6.012248    4269.1399            3 
  700000    1.1871671   -5.9797086    4291.4737            3 
  701000    1.1871449    -5.978455    4266.4131            3 
  702000    1.1769448   -5.9833684     4270.279            3 
  703000    1.1679847   -5.9961246    4281.2972            6 
  704000    1.1871137   -6.0159569    4281.6903            2 
  705000    1.1398428   -5.9811263    4280.7575            5 
  706000    1.1621942   -5.9768025    4274.3475            3 
  707000    1.1449303   -6.0034099    4251.7926            5 
  708000     1.137922   -5.9852916    4281.1823            2 
  709000    1.1869144   -6.0005779    4273.1025           12 
  710000    1.1417512   -5.9811665    4255.8532            4 
  711000    1.1732215    -5.989541    4277.8163            3 
  712000    1.1845476   -5.9895903     4270.378            3 
  713000    1.1569862   -5.9565925    4291.6208            5 
  714000    1.1741433   -5.9847712    4282.1879            3 
  715000    1.1778076   -5.9877452    4268.1133            3 
  716000    1.1460803   -6.0067008    4277.1945            4 
  717000    1.1607794   -5.9928319    4279.9874            3 
  718000      1.14019    -5.986033     4261.788            4 
  719000    1.1636484   -5.9795697    4273.1975            3 
  720000    1.1466752   -5.9759692    4274.7159            2 
  721000    1.1681425    -5.960005    4290.0972            5 
  722000    1.1579687   -5.9821709    4265.7987            4 
  723000    1.1426988    -5.987284    4280.8952            4 
  724000    1.1793271    -5.981048    4287.3213            2 
  725000    1.1603116   -6.0320624     4259.398            5 
  726000    1.1439419   -6.0321444     4262.687            6 
  727000    1.1574168   -5.9737144    4264.5686            3 
  728000    1.1494568   -5.9870107    4272.1642            4 
  729000    1.1636939   -5.9847384     4278.032            8 
  730000    1.1724911   -6.0093735    4274.7891            7 
  731000    1.1863657   -5.9950655    4262.5506            3 
  732000     1.160826   -5.9799267    4274.2657            2 
  733000     1.185618   -5.9930403    4268.0832            3 
  734000    1.1601371   -5.9860735    4294.2891            5 
  735000    1.1777846   -6.0150169    4262.4281            5 
  736000    1.1748166   -5.9811188    4276.8144            2 
  737000    1.1439566   -5.9885359    4289.3546            5 
  738000    1.1505012   -5.9932956    4272.3835            2 
  739000     1.178325    -6.000549    4252.5566            3 
  740000     1.143335   -6.0383492    4268.2983            5 
  741000    1.1306407   -5.9748899    4263.4991            4 
  742000    1.1495913   -5.9672795    4266.5956            6 
  743000    1.1796695   -5.9831748    4283.0757            3 
  744000    1.1523829   -5.9572729    4275.0015            3 
  745000    1.1606547   -6.0031375    4283.4064            2 
  746000    1.1433057   -6.0088884    4281.8198            6 
  747000    1.1690702   -6.0313719    4283.2394            8 
  748000     1.157774   -6.0499892    4260.0563            6 
  749000    1.1635097   -5.9928541    4267.0513            3 
  750000    1.1898673   -5.9921444    4265.3826            6 
  751000    1.1453324   -6.0247604    4248.8433            5 
  752000     1.164475   -5.9754492    4261.5214            7 
  753000     1.145959   -5.9558297    4285.2175            4 
  754000     1.172623   -5.9812722    4273.3881            2 
  755000    1.1641078   -6.0001832    4278.0151            5 
  756000    1.1653439   -5.9544255    4259.6102            2 
  757000    1.1489577    -5.997838    4251.9633            4 
  758000    1.1808734   -5.9837057    4275.8399            5 
  759000     1.162894   -5.9716686    4282.7682            3 
  760000    1.1595876   -5.9802267    4269.5897            3 
  761000    1.1094753   -6.0014168    4273.7311            4 
  762000    1.1840721   -6.0191908    4265.8026            4 
  763000    1.1634123   -6.0107547    4283.9297            2 
  764000    1.1834537   -6.0044989    4270.7639            4 
  765000    1.1472514   -5.9675298    4271.2081            4 
  766000    1.1861114   -6.0045651    4258.8424            4 
  767000    1.1671183   -6.0168463    4276.1006            7 
  768000    1.1708082   -5.9840012    4274.8164            5 
  769000    1.1780191   -6.0064786    4274.6141            4 
  770000    1.1569441   -5.9348432    4287.5655            3 
  771000    1.1242384   -5.9764996    4279.5914            4 
  772000    1.2060463   -6.0125721    4278.6151            3 
  773000     1.175444    -5.989968    4272.7344            4 
  774000    1.1291749   -5.9956345    4268.1687            4 
  775000    1.1306556   -5.9942016    4275.7908            3 
  776000    1.1480188   -5.9668193    4279.9709            3 
  777000    1.1388427   -5.9954823     4288.881            2 
  778000    1.1576526   -5.9805548    4273.1119            4 
  779000    1.1792608   -5.9634407    4289.0189            4 
  780000    1.1664122   -5.9681777    4269.9958            4 
  781000    1.1672982   -5.9521022    4270.4803            4 
  782000    1.1904145   -5.9974847    4269.5027            3 
  783000    1.1822009   -6.0087233     4283.882            4 
  784000    1.1528095   -5.9834753    4274.0371            3 
  785000    1.1748504   -6.0320949    4258.6813            3 
  786000    1.1767322   -5.9665013    4261.4194            6 
  787000    1.1481285   -5.9671708     4278.918            7 
  788000    1.1512378   -6.0217717    4255.3013            3 
  789000    1.1565156   -5.9810336    4289.0481            3 
  790000    1.1558189   -6.0372092     4255.864            7 
  791000    1.1690482    -5.976097     4288.538            6 
  792000    1.1696737   -5.9776458    4300.3299            4 
  793000    1.1836052   -5.9916668    4278.2286            4 
  794000    1.1581874   -5.9823516    4291.7156            3 
  795000    1.1627397   -6.0083006    4267.2977            4 
  796000    1.1425299   -5.9474473    4292.5284            4 
  797000    1.1806212   -5.9694276      4281.44            4 
  798000    1.1461652   -5.9651896    4256.0779            8 
  799000    1.1477526    -6.014356    4260.4777            5 
  800000    1.1597471   -5.9617007    4293.2088            4 
  801000    1.1721048   -5.9684139    4293.9292            2 
  802000    1.1652043   -5.9762378    4279.9847            5 
  803000    1.1424159   -6.0229663    4282.1734            3 
  804000    1.1615569   -5.9892035    4267.7558            8 
  805000    1.1508447   -5.9957475    4265.6603            5 
  806000    1.1548662   -5.9738832    4289.3605            5 
  807000    1.1590932   -6.0007497    4281.8714            4 
  808000    1.1808752   -5.9728437    4283.9682            5 
  809000    1.1757048   -5.9737284     4279.957            4 
  810000    1.1926072   -5.9927437    4277.6245            3 
  811000    1.1519314   -6.0200052    4270.0026            4 
  812000    1.1723733   -6.0125129    4264.3315            2 
  813000    1.1521605    -5.996519    4269.9093            4 
  814000     1.157931   -5.9939773     4291.203            9 
  815000    1.1573134   -5.9792139    4283.3519            2 
  816000    1.1635381   -6.0273457    4255.1676            4 
  817000    1.1528112   -5.9630618     4291.325            2 
  818000    1.1670881   -6.0060669    4281.1723            6 
  819000     1.150766   -5.9937009    4281.7209            4 
  820000    1.1679919   -5.9854563    4274.3909            6 
  821000    1.1737543   -6.0001783    4259.8053            3 
  822000    1.1588905   -5.9776784    4275.0478            3 
  823000    1.1351195   -6.0185291    4264.0989            4 
  824000    1.1447872   -6.0241803    4293.5057            3 
  825000    1.1514217   -5.9822241    4268.0435            7 
  826000    1.1857005   -5.9829036    4262.4634            3 
  827000    1.1770543   -6.0075329    4266.6607            6 
  828000    1.1567201   -5.9750586    4264.0062            4 
  829000    1.1508446   -5.9499422    4271.4698            5 
  830000    1.1513807   -5.9858507    4295.3412            4 
  831000    1.1494023   -6.0102998    4272.9957            6 
  832000     1.160591   -5.9785807    4280.0844            8 
  833000    1.1571241   -6.0453437    4269.0983            2 
  834000    1.1366867    -5.988698    4262.5663            2 
  835000     1.173239   -6.0257674    4276.5119            3 
  836000    1.1385226   -6.0133778    4278.9446            4 
  837000    1.1555184   -6.0020437    4269.0416            3 
  838000    1.1589211   -5.9861318    4274.0931            3 
  839000    1.1625966   -6.0128604    4284.9249            2 
  840000    1.1670275    -6.004409    4276.1267            2 
  841000    1.1789454   -6.0115943    4272.1663            6 
  842000     1.175935   -5.9755589    4278.2711            4 
  843000    1.1787566   -5.9941459    4277.0801            6 
  844000    1.1773557   -6.0071025    4269.1448            4 
  845000    1.1309319   -5.9675006    4269.0783            3 
  846000    1.1632222   -5.9794075    4277.3831            6 
  847000    1.1656788   -5.9933263    4289.5319            5 
  848000    1.1464733   -5.9525297    4282.0715            3 
  849000    1.1626592   -6.0009608    4257.0672            5 
  850000    1.1492242   -5.9943622    4265.7946            4 
  851000    1.1319406   -5.9789091    4276.6134            5 
  852000    1.1539856   -5.9493992    4271.7675            5 
  853000    1.1749588   -6.0068922     4260.699            3 
  854000    1.1727874   -5.9809835     4262.014            5 
  855000    1.1546117   -5.9824295    4281.1066            5 
  856000    1.1504771   -6.0203769     4273.109            8 
  857000    1.1682771   -5.9823869    4271.4092            3 
  858000    1.1351005   -5.9934818    4264.1728            5 
  859000    1.1609032   -5.9914707    4290.3034            2 
  860000    1.1461564   -5.9962307     4276.633            3 
  861000    1.1683785   -5.9849183    4286.0169            4 
  862000    1.1420262   -5.9997633    4251.4911            4 
  863000    1.1574882   -5.9773538    4273.8025            4 
  864000     1.147081    -5.972887    4287.9955            9 
  865000     1.148183   -5.9978978    4273.2057            2 
  866000    1.1692053   -5.9626809    4271.3756            4 
  867000    1.1605333   -5.9772454    4285.6401            6 
  868000    1.1730368   -5.9840282    4272.9449            2 
  869000    1.1472803   -6.0001376    4274.2614            6 
  870000    1.1631316   -5.9865736    4264.6078            7 
  871000    1.1763366   -5.9882076    4279.2658            4 
  872000    1.1890211    -5.980162    4285.6609            4 
  873000    1.1425219   -6.0069612    4257.2957            3 
  874000    1.1620473   -5.9908695    4269.2873            3 
  875000    1.1853184   -6.0065105    4296.3492            6 
  876000    1.1409265   -5.9880221    4295.5276            5 
  877000    1.1455479   -5.9844335    4279.7003            3 
  878000     1.150155   -5.9775929    4281.7949            4 
  879000    1.1648766   -5.9652848    4275.5972            4 
  880000     1.148605   -6.0120055    4278.1775            2 
  881000    1.1565603   -5.9878387    4289.0008            3 
  882000    1.1645799   -6.0174956    4280.8882            6 
  883000    1.1538121   -6.0199092    4284.5898            5 
  884000    1.1803996    -6.000392    4263.1371            6 
  885000     1.163787   -6.0277896    4267.2817            5 
  886000    1.1599759   -5.9867593    4259.5323            2 
  887000    1.1678694   -5.9442892    4281.8561            2 
  888000    1.1284256   -6.0035367    4269.3166            4 
  889000    1.1716101   -5.9707906    4278.0522            3 
  890000    1.1772138   -6.0075808    4244.5646            5 
  891000     1.168644   -5.9618947    4278.4609            1 
  892000    1.1499519   -6.0062916    4281.4132            3 
  893000    1.1410321    -6.041369    4260.4638            3 
  894000    1.1690059   -5.9947223    4266.4085            6 
  895000    1.1595837   -6.0207416     4280.804            3 
  896000    1.1578132    -6.012089    4262.0107            3 
  897000    1.1624199   -6.0153533    4263.8942            4 
  898000    1.1693237   -5.9961355    4284.1747            1 
  899000    1.1456635   -5.9704034     4289.236            5 
  900000    1.1613992   -6.0058559    4261.8525            2 
  901000    1.1632234   -5.9805222    4282.3669            5 
  902000    1.1385988   -5.9704793    4272.3063            5 
  903000    1.1598474    -5.987986    4273.9583            3 
  904000    1.1428164   -6.0032713     4260.977            2 
  905000    1.1412013    -6.016602    4277.8737            4 
  906000    1.1959271   -5.9620616    4276.4054            2 
  907000     1.182047   -5.9880357    4279.0608            7 
  908000    1.1403904   -5.9873552    4296.9683            9 
  909000    1.1775383   -5.9892874    4283.8732            3 
  910000    1.1726996   -6.0007846     4256.277            5 
  911000    1.1872968   -6.0107749    4270.6416            7 
  912000    1.1503415   -5.9984637    4289.6942            5 
  913000      1.17788   -5.9927961    4294.1837            3 
  914000    1.1554878   -6.0392509    4255.6373            8 
  915000    1.1741765   -5.9977805     4282.255            3 
  916000    1.1597333   -5.9959719     4280.241            5 
  917000    1.1530001   -6.0142382    4267.4733            4 
  918000    1.1882695   -5.9749523    4255.3707            5 
  919000    1.1630915   -5.9924813    4264.0861            5 
  920000    1.1762224   -6.0093863    4266.8095            5 
  921000    1.1688767   -6.0137004    4262.8562            3 
  922000    1.1581879   -5.9607625     4264.781            3 
  923000     1.148879   -6.0477064    4265.2705            3 
  924000    1.1401362   -5.9665905    4293.8609            4 
  925000     1.162246   -5.9863582    4279.3895            4 
  926000    1.1255407   -5.9779136    4272.4596            4 
  927000    1.1529216   -5.9756905    4276.2033           16 
  928000    1.1437945   -5.9930194      4288.18            4 
  929000     1.143304   -5.9872114     4276.163            5 
  930000    1.1475885   -6.0057133    4266.4062            5 
  931000    1.1629134   -6.0006237    4277.6913            3 
  932000      1.15507   -6.0185024    4264.5524            6 
  933000    1.1819049    -5.981726    4287.2242            4 
  934000    1.1389341   -5.9972862    4288.0985            3 
  935000    1.1379778    -5.974536    4267.0599            8 
  936000    1.1669756   -6.0288228    4266.9791            5 
  937000    1.1448683   -6.0130186    4252.3239            5 
  938000    1.1650576   -5.9662079    4267.8228            1 
  939000    1.1589167   -6.0121408    4264.7989            2 
  940000    1.1710868   -5.9858455    4272.9683            3 
  941000    1.1755748   -5.9989108    4264.9588            3 
  942000    1.1329153   -6.0005792    4256.4035            9 
  943000    1.1478371   -6.0140459     4281.727            5 
  944000    1.1532532   -6.0126536    4273.3352            3 
  945000    1.1539975   -5.9937881    4292.0763            3 
  946000    1.1482452   -5.9821518    4278.1539            2 
  947000    1.1717463    -6.007184    4289.8818            2 
  948000    1.1643153   -6.0026805    4268.2547            3 
  949000    1.1425751   -5.9706889    4276.9714            4 
  950000     1.153788   -5.9778537     4259.995           11 
  951000    1.1408961   -5.9935977    4277.6423            3 
  952000    1.1872711   -5.9960917    4259.6046            5 
  953000    1.1665167   -6.0017953    4263.0278            5 
  954000    1.1579564   -5.9929472    4282.7515            4 
  955000    1.1394662   -5.9884931    4280.0359            5 
  956000     1.156444   -5.9847947     4260.882            5 
  957000    1.1728231   -5.9676881    4276.9645            3 
  958000    1.1726611   -6.0142378     4258.554            7 
  959000    1.1523337   -6.0073664    4285.2035            3 
  960000    1.1460388   -5.9805041    4277.5074            4 
  961000    1.1366955   -6.0097834    4279.7633            3 
  962000    1.1630887   -5.9885761    4276.1339            2 
  963000    1.1511587    -5.950303      4272.61            4 
  964000    1.1483751    -5.963228    4286.7591            6 
  965000    1.1531607   -5.9775778    4288.4082            5 
  966000     1.170463       -5.957    4274.5936            6 
  967000    1.1505737   -5.9949862    4305.1102            3 
  968000     1.167216   -5.9618449     4292.568            4 
  969000    1.1810961   -6.0036549     4281.121            3 
  970000    1.1794071   -5.9518265    4277.1031            3 
  971000    1.1606416   -5.9626769    4277.4761            4 
  972000    1.1848694   -5.9845437    4282.5871            4 
  973000    1.1463636   -5.9915617    4284.3758            3 
  974000    1.1726275   -5.9915958    4283.6281            2 
  975000     1.170907   -5.9505617    4262.7982            4 
  976000     1.147742   -6.0024128    4280.3407            4 
  977000    1.1427016   -5.9612763    4292.3419            2 
  978000    1.1580932   -6.0116583    4279.2831            4 
  979000    1.1737255   -6.0172135    4266.1396            4 
  980000    1.1441914   -5.9983584    4272.8819            3 
  981000     1.160936   -6.0285402    4261.7098            2 
  982000    1.1736054   -5.9700489    4287.8652            3 
  983000    1.1452024   -6.0156497    4281.5677            3 
  984000    1.1593884   -5.9966502     4261.152            5 
  985000    1.1787845   -5.9658103    4282.9746            3 
  986000    1.1889915    -6.001489    4265.4048            3 
  987000    1.1838309   -5.9957855    4289.9684            4 
  988000    1.1972636   -5.9747704    4281.2757           10 
  989000    1.1439739   -5.9690601    4293.4307            5 
  990000      1.17201   -5.9896958    4271.7149            5 
  991000    1.1640735   -5.9924843    4279.7353            4 
  992000    1.1557269   -5.9737982    4285.0068            4 
  993000    1.1624289     -6.00628    4261.5547            4 
  994000    1.1655688   -6.0174475    4264.5678            1 
  995000    1.1593714   -5.9940756    4283.0019            3 
  996000    1.1457249   -6.0256586    4257.7879            3 
  997000    1.1681672   -5.9464981    4288.5208            4 
  998000    1.1707007   -5.9668459    4268.3574            3 
  999000    1.1803917   -5.9821725    4277.4257            4 
 1000000    1.1649011   -5.9744909    4271.3904            6 
 1001000    1.1792394   -5.9810542    4280.5646            4 
 1002000     1.168523   -6.0318314    4265.6493            8 
 1003000    1.1276585   -5.9940222    4275.2971            5 
 1004000    1.1582036   -5.9798731    4272.9389            5 
Loop time of 2065.81 on 48 procs for 1000000 steps with 4000 atoms

Performance: 83647.461 tau/day, 484.071 timesteps/s
99.4% CPU use with 48 MPI tasks x no OpenMP threads

MPI task timing breakdown:
Section |  min time  |  avg time  |  max time  |%varavg| %total
---------------------------------------------------------------
Pair    | 118.76     | 128.76     | 138.75     |  45.0 |  6.23
Neigh   | 15.837     | 16.006     | 16.219     |   2.2 |  0.77
Comm    | 113.39     | 121.09     | 130.65     |  38.6 |  5.86
Output  | 1.9436     | 1.9445     | 1.9595     |   0.2 |  0.09
Modify  | 1772.5     | 1779.8     | 1788.9     |   9.8 | 86.16
Other   |            | 18.16      |            |       |  0.88

Nlocal:        83.3333 ave          89 max          77 min
Histogram: 2 1 4 4 5 19 4 3 3 3
Nghost:        1572.40 ave        1588 max        1557 min
Histogram: 2 3 6 4 6 12 7 3 3 2
Neighs:        8910.50 ave        9706 max        8114 min
Histogram: 1 1 5 8 5 16 6 3 1 2
FullNghs:      17820.5 ave       19202 max       16304 min
Histogram: 1 1 4 7 9 10 8 3 3 2

Total # of neighbors = 855383
Ave neighs/atom = 213.84575
Neighbor list builds = 64223
Dangerous builds = 0

#clear
#
#next RN
#
#jump SELF
Total wall time: 0:34:26
