
units lj                  # Use reduced LJ style units
atom_style atomic         # Uncharged point particles
atom_modify map hash      # Needed for indexing of clusters etc
                          # Used to be able to find where atoms are in relation to each other.

# Define a lattice with which to populate the simulation cell. With units
# set to 'lj' the second argument to the lattice command is the reduced
# density rho* and the spacings are multiples of that required to acheive
# that density. Also define a simulation cell called 'box' in lattice units
# and fill it with atoms. Here we're creating a box which is ten lattice
# constants in each direction.
lattice fcc 1.0 spacing 1 1 1                 # All equal sizes - gives the right reduced density.
Lattice spacing in x,y,z = 1.5874011 1.5874011 1.5874011

region box block 0 10 0 10 0 10 units lattice # Defines a region, "box", in lattice units
create_box 1 box                              # Creates a simulation box as specified above,
Created orthogonal box = (0.0000000 0.0000000 0.0000000) to (15.874011 15.874011 15.874011)
  3 by 4 by 4 MPI processor grid
                                              # with one type of atom
create_atoms 1 box                            # Creates particles on lattice points
Created 4000 atoms
  using lattice units in orthogonal box = (0.0000000 0.0000000 0.0000000) to (15.874011 15.874011 15.874011)
  create_atoms CPU = 0.002 seconds


# Set the mass of the first (and only) atom type.
mass 1 1.0

# Lennard-Jones interactions between particles, 3.5 sigma cut-off. Apply
# long range tail corrections to energy and pressure and set all coefficients
# to unity since we work in reduced units here. Note that this doesn't shift
# the potential such that it goes to zero at the cutoff. That would require
# pair_modify('shift', 'yes').
pair_style lj/cut  3.5      # non-GPU version
pair_modify tail  yes
pair_coeff 1  1  1.0  1.0   # Intearaction between 1 and 1 set with epsilon = 1 and sigma = 1

write_data data.*
System init for write_data ...
Neighbor list info ...
  update every 1 steps, delay 10 steps, check yes
  max neighbors/atom: 2000, page size: 100000
  master list distance cutoff = 3.8
  ghost atom cutoff = 3.8
  binsize = 1.9, bins = 9 9 9
  1 neighbor lists, perpetual/occasional/extra = 1 0 0
  (1) pair lj/cut, perpetual
      attributes: half, newton on
      pair build: half/bin/atomonly/newton
      stencil: half/bin/3d
      bin: standard

#############################
#   M E L T   S Y S T E M   #
#############################

velocity all create 2.4 6229865 mom yes dist gaussian # Assign velocities
                                                    # Temperature 2.4, random number seed, zero linear momentum
						                                                        # Gaussian distribution

timestep 0.002   # simulation timestep
thermo 1000       # output thermodynamic data every 1000 steps

# Define a fix  in this case with index 1 applied to all
# particles in the simulation. This fix is for simulations
# in the anisotropic NPT ensemble. Note that we use the MTK
# correction.
fix 1 all npt temp 2.4 2.4 0.1 iso 5.68 5.68 0.5 mtk yes tchain 5 pchain 5 # Use NPT ensemble
                                                                         # Set temperature and pressure and damping
                                                                         # Numbers of thermostats in chain and in barostat
run 1000         # run for 10000 steps
Per MPI rank memory allocation (min/avg/max) = 3.642 | 3.644 | 3.648 Mbytes
Step Temp E_pair E_mol TotEng Press Volume 
       0          2.4   -8.3859253            0   -4.7868253   -2.2405722         4000 
    1000    2.3673149   -4.4811735            0  -0.93108891    5.4341652    5181.8809 
Loop time of 0.219123 on 48 procs for 1000 steps with 4000 atoms

Performance: 788598.620 tau/day, 4563.649 timesteps/s
99.4% CPU use with 48 MPI tasks x no OpenMP threads

MPI task timing breakdown:
Section |  min time  |  avg time  |  max time  |%varavg| %total
---------------------------------------------------------------
Pair    | 0.091732   | 0.10031    | 0.11537    |   1.5 | 45.78
Neigh   | 0.017916   | 0.018855   | 0.021718   |   0.5 |  8.60
Comm    | 0.060476   | 0.075513   | 0.084651   |   1.9 | 34.46
Output  | 2.4449e-05 | 2.5207e-05 | 3.245e-05  |   0.0 |  0.01
Modify  | 0.018584   | 0.022883   | 0.027066   |   1.8 | 10.44
Other   |            | 0.001539   |            |       |  0.70

Nlocal:        83.3333 ave          93 max          73 min
Histogram: 3 0 4 4 7 9 11 6 2 2
Nghost:        1387.69 ave        1414 max        1367 min
Histogram: 3 5 6 3 12 8 6 2 2 1
Neighs:        7359.17 ave        8798 max        6287 min
Histogram: 3 2 7 11 7 9 6 0 1 2

Total # of neighbors = 353240
Ave neighs/atom = 88.310000
Neighbor list builds = 87
Dangerous builds = 25

# Equilibrate just above the melting temperature to avoid step fn in T

fix 1 all npt temp 1.25 1.25 0.1 iso 5.68 5.68 0.5 mtk yes tchain 5 pchain 5
run 1000
Per MPI rank memory allocation (min/avg/max) = 3.642 | 3.644 | 3.648 Mbytes
Step Temp E_pair E_mol TotEng Press Volume 
    1000    2.3673149   -4.4811735            0  -0.93108891    5.4341652    5181.8809 
    2000    1.2267189   -5.8365426            0   -3.9969242     5.526825     4357.147 
Loop time of 0.213654 on 48 procs for 1000 steps with 4000 atoms

Performance: 808785.779 tau/day, 4680.473 timesteps/s
99.7% CPU use with 48 MPI tasks x no OpenMP threads

MPI task timing breakdown:
Section |  min time  |  avg time  |  max time  |%varavg| %total
---------------------------------------------------------------
Pair    | 0.093062   | 0.099794   | 0.10961    |   1.1 | 46.71
Neigh   | 0.015679   | 0.016522   | 0.017828   |   0.3 |  7.73
Comm    | 0.065647   | 0.073202   | 0.082693   |   1.5 | 34.26
Output  | 2.3687e-05 | 2.4306e-05 | 3.0538e-05 |   0.0 |  0.01
Modify  | 0.018279   | 0.022205   | 0.024676   |   1.2 | 10.39
Other   |            | 0.001907   |            |       |  0.89

Nlocal:        83.3333 ave          92 max          76 min
Histogram: 3 5 0 11 8 7 8 3 2 1
Nghost:        1554.94 ave        1577 max        1535 min
Histogram: 2 2 4 9 7 14 2 6 1 1
Neighs:        8736.65 ave        9525 max        7851 min
Histogram: 2 5 3 3 9 8 3 9 4 2

Total # of neighbors = 419359
Ave neighs/atom = 104.83975
Neighbor list builds = 76
Dangerous builds = 8


# Small amount of linear quench

fix 1 all npt temp 1.25 ${temp} 0.1 iso 5.68 5.68 0.5 mtk yes tchain 5 pchain 5
fix 1 all npt temp 1.25 0.97 0.1 iso 5.68 5.68 0.5 mtk yes tchain 5 pchain 5
run 2000
Per MPI rank memory allocation (min/avg/max) = 3.643 | 3.645 | 3.648 Mbytes
Step Temp E_pair E_mol TotEng Press Volume 
    2000    1.2267189   -5.8365426            0   -3.9969242     5.526825     4357.147 
    3000    1.1246838   -6.0417641            0   -4.3551602    5.7220078    4249.3149 
    4000    0.9934867   -6.2757241            0   -4.7858666    5.7965808    4143.5373 
Loop time of 0.437077 on 48 procs for 2000 steps with 4000 atoms

Performance: 790707.769 tau/day, 4575.855 timesteps/s
99.7% CPU use with 48 MPI tasks x no OpenMP threads

MPI task timing breakdown:
Section |  min time  |  avg time  |  max time  |%varavg| %total
---------------------------------------------------------------
Pair    | 0.20386    | 0.21318    | 0.22562    |   1.1 | 48.77
Neigh   | 0.026894   | 0.027743   | 0.029      |   0.3 |  6.35
Comm    | 0.13577    | 0.14805    | 0.16016    |   1.5 | 33.87
Output  | 4.7625e-05 | 4.8774e-05 | 6.1537e-05 |   0.0 |  0.01
Modify  | 0.039622   | 0.043241   | 0.048298   |   1.2 |  9.89
Other   |            | 0.004816   |            |       |  1.10

Nlocal:        83.3333 ave          88 max          78 min
Histogram: 2 2 3 5 3 5 12 7 7 2
Nghost:        1605.83 ave        1623 max        1587 min
Histogram: 3 1 6 4 9 6 4 10 2 3
Neighs:        9200.31 ave        9889 max        8672 min
Histogram: 6 4 4 8 8 4 5 7 1 1

Total # of neighbors = 441615
Ave neighs/atom = 110.40375
Neighbor list builds = 123
Dangerous builds = 0

#############################
# F R E E Z E  S Y S T E M  #
#############################

# Define solid atoms. This closely follows ten Wolde  Ruiz-Montero and Frenkel  Faraday Discuss  1996  104  93-110
# Compute components of the per-atom q6 vector
compute q6 all orientorder/atom degrees 1 6 components 6 nnn NULL cutoff 1.3 # compute the Q6 parameter.
                                                                             # Use all neighbours within 1.3 unit cell.

# get number of connections
compute coord_number all coord/atom orientorder q6 0.5

# An atom is solid if it has 8 or more connections (of a possible 14)
variable is_solid atom c_coord_number>=8
group solid dynamic all var is_solid    # Must be dynamic to update
dynamic group solid defined

# do clustering
compute cluster solid cluster/atom 1.3 # Create a cluster where all atoms within are solid and max 1.3 units from another member

# define chunks one chunk per cluster
compute clus_chunks solid chunk/atom c_cluster nchunk every compress yes  # Says which atoms are in which chunk

# count the size of each chunk
compute size_chunks solid property/chunk clus_chunks count


# Find the maximum entry in the vector of chunk sizes
variable max_n equal max(c_size_chunks)


# Thermo style which includes this variable
thermo_style custom step temp pe vol v_max_n

thermo ${N}  # Print the thermo information every 100 steps
thermo 1000  

# Reset the npt fix at a lower temperature (below freezing)
fix 1  all npt temp  ${temp} ${temp}  0.1  iso  5.68  5.68  0.5  mtk yes tchain  5  pchain  5
fix 1  all npt temp  0.97 ${temp}  0.1  iso  5.68  5.68  0.5  mtk yes tchain  5  pchain  5
fix 1  all npt temp  0.97 0.97  0.1  iso  5.68  5.68  0.5  mtk yes tchain  5  pchain  5

dump dmp2 all dcd ${N} traj_${rand}.dcd
dump dmp2 all dcd 1000 traj_${rand}.dcd
dump dmp2 all dcd 1000 traj_462431.dcd


# fix rnuntil all halt ${N} v_max_n >= 3980 error soft message no   # Stop when solidified


run 1000000 # 5000000  # Run for this many steps
Neighbor list info ...
  update every 1 steps, delay 10 steps, check yes
  max neighbors/atom: 2000, page size: 100000
  master list distance cutoff = 3.8
  ghost atom cutoff = 3.8
  binsize = 1.9, bins = 9 9 9
  4 neighbor lists, perpetual/occasional/extra = 1 3 0
  (1) pair lj/cut, perpetual
      attributes: half, newton on
      pair build: half/bin/atomonly/newton
      stencil: half/bin/3d
      bin: standard
  (2) compute orientorder/atom, occasional
      attributes: full, newton on
      pair build: full/bin/atomonly
      stencil: full/bin/3d
      bin: standard
  (3) compute coord/atom, occasional
      attributes: full, newton on
      pair build: full/bin/atomonly
      stencil: full/bin/3d
      bin: standard
  (4) compute cluster/atom, occasional
      attributes: full, newton on
      pair build: full/bin/atomonly
      stencil: full/bin/3d
      bin: standard
Per MPI rank memory allocation (min/avg/max) = 9.366 | 9.371 | 9.375 Mbytes
Step Temp PotEng Volume v_max_n 
    4000    0.9934867   -6.2757241    4143.5373            5 
    5000   0.96734313   -6.3235597    4135.2109            7 
    6000   0.96960537   -6.3467969    4135.1458            9 
    7000   0.97709328   -6.3024264    4113.8803            8 
    8000   0.95850381   -6.3199837    4116.9993            9 
    9000   0.96781217   -6.3243219    4120.2729            8 
   10000   0.94916672    -6.290286    4118.7387            4 
   11000   0.97281951   -6.3191245    4130.3847            7 
   12000   0.99479553   -6.3401937    4128.2501           15 
   13000   0.98043198    -6.347387    4121.8772           14 
   14000   0.97886726    -6.316333    4141.9992            8 
   15000   0.98225738   -6.2945508    4140.7781            6 
   16000   0.96670578   -6.3055122    4144.4776            6 
   17000   0.98633351   -6.2848324    4138.5806            5 
   18000   0.96490275    -6.270634    4125.3691            6 
   19000   0.97105638   -6.3417543    4112.0668            7 
   20000   0.96451913   -6.3627359    4129.9646            5 
   21000   0.95543771   -6.3208955     4142.023           15 
   22000   0.96102594   -6.3468192    4138.5438            7 
   23000   0.96092098   -6.3175748    4135.7363            9 
   24000    1.0027749   -6.3046568    4129.5804            6 
   25000   0.95009292   -6.3323992    4124.4826            7 
   26000   0.96723722   -6.3027225    4127.6375            5 
   27000   0.96771394   -6.3427849      4136.46            4 
   28000   0.96879526   -6.2998625    4133.8628            9 
   29000   0.96855174   -6.3428628    4127.1584           10 
   30000   0.96024119   -6.3557894    4116.7672            5 
   31000    0.9897755   -6.3275488    4135.7016            7 
   32000   0.97733798   -6.3550141    4105.0181            7 
   33000   0.98658278   -6.3202957    4137.2046            6 
   34000   0.98804797    -6.337611    4126.9245            8 
   35000   0.96645514   -6.3234902    4129.2229            3 
   36000   0.97667898   -6.3137546    4140.7917            4 
   37000   0.95992084   -6.3453748    4133.6677            5 
   38000   0.97394709   -6.3281969    4149.6466            4 
   39000   0.96061117   -6.3315463    4138.9559            4 
   40000   0.98023788   -6.2914751    4150.3364            4 
   41000   0.98240168   -6.2950193     4139.954            5 
   42000   0.95700004   -6.2941075    4118.5353            8 
   43000   0.97500428   -6.3276764    4134.6904            6 
   44000   0.98936325    -6.376472    4121.6368            7 
   45000   0.96002277   -6.3242583    4145.5337            7 
   46000   0.97051697   -6.3466334    4132.0241            7 
   47000   0.96902428   -6.3111778    4142.4293            4 
   48000   0.96741935   -6.3014178    4138.4991           15 
   49000   0.96926965   -6.3357926    4129.1916           13 
   50000   0.96387504   -6.3448716     4124.162            5 
   51000   0.95643598   -6.2850471     4153.893           10 
   52000   0.97118567   -6.3448767    4129.0542            6 
   53000   0.98593641   -6.3520394    4132.6925            9 
   54000   0.99439034     -6.32852    4130.0775            8 
   55000   0.97236519   -6.3118567    4131.0421            9 
   56000   0.97823679   -6.3313409    4123.2885            5 
   57000   0.97734375   -6.3129618    4121.8328            4 
   58000   0.98102727   -6.3110207    4138.8364            6 
   59000   0.98358007   -6.3311055    4138.0811           14 
   60000    1.0027916   -6.3540719    4118.1169           10 
   61000   0.97753497   -6.3462995    4114.0024            9 
   62000   0.96846096   -6.3305395    4119.3783           13 
   63000   0.95383266   -6.3212266    4133.3689            6 
   64000   0.98341506   -6.2826551    4133.6555            5 
   65000   0.96900496   -6.3319454    4122.7433            5 
   66000   0.96119407   -6.2839001    4144.3737            6 
   67000    0.9911527   -6.3383619    4125.0651            4 
   68000   0.94866721   -6.3455608    4111.1575            9 
   69000   0.95734718   -6.3253052    4115.4896            4 
   70000    0.9794424   -6.3481644    4116.3187            8 
   71000   0.96263237   -6.3275283    4122.4036           11 
   72000   0.96458479   -6.3410147    4140.2136            6 
   73000   0.97430825   -6.3344893    4116.7752            8 
   74000   0.97396738   -6.2895053    4128.1337            7 
   75000   0.98538422   -6.3014596    4132.2187            4 
   76000   0.96556962    -6.350637    4135.9917            6 
   77000   0.95665499   -6.3176054    4135.2942            5 
   78000   0.97662184   -6.3396752     4142.067            8 
   79000   0.97079715   -6.3381754    4117.2641            7 
   80000   0.96436486   -6.3124145    4121.0185           13 
   81000   0.96728918   -6.2841876    4132.8183            6 
   82000   0.99199982   -6.3008553    4145.8207            6 
   83000   0.97327367    -6.297474    4139.1612            9 
   84000   0.96352838    -6.338761    4121.2543            6 
   85000    0.9656467   -6.3280907    4123.3675            9 
   86000   0.95693421   -6.3147967    4126.4038            5 
   87000   0.97010863   -6.3403524    4130.4594            6 
   88000   0.97938275   -6.3588222    4118.2195            4 
   89000   0.97706277   -6.3596995    4121.4353           21 
   90000   0.98520702   -6.3499073    4128.7002            5 
   91000   0.96592288   -6.3340683    4126.8995            5 
   92000    0.9569453   -6.3613159    4117.6564            6 
   93000   0.98375478   -6.3309014    4133.4195            6 
   94000   0.97327841   -6.2952192    4120.6764            3 
   95000   0.96730744   -6.3190892    4132.9022            5 
   96000   0.96616129   -6.3239387    4125.4273            7 
   97000   0.95917649   -6.3154243    4139.8761           10 
   98000   0.97410094   -6.3000272     4131.814            5 
   99000    0.9580174   -6.3497706    4124.7668            5 
  100000   0.99223501   -6.3205065    4145.9895            4 
  101000   0.96106286   -6.2997908    4151.5354            6 
  102000   0.96033475   -6.3218484    4140.2894            7 
  103000    0.9648093   -6.3391989    4139.8204            6 
  104000   0.98484001   -6.3420374    4121.9831            5 
  105000   0.95025284   -6.3049282    4118.1014           13 
  106000   0.97561904   -6.3091071    4133.2238            7 
  107000   0.96239277   -6.3610585    4133.6244           11 
  108000   0.95760907   -6.3361385    4118.9624            7 
  109000   0.95738229   -6.3789288    4128.5179            7 
  110000   0.95463813   -6.3045769    4134.0477           11 
  111000   0.97962138   -6.3353598    4115.9317            9 
  112000   0.96129569   -6.3186932    4140.1681            5 
  113000   0.98252021   -6.3135116    4134.6347            5 
  114000   0.97071855   -6.3274049    4141.8029            3 
  115000   0.98197269   -6.3269966    4124.0185            7 
  116000   0.95225505   -6.3242553    4126.3673            9 
  117000   0.98934275   -6.3457364    4135.7688           10 
  118000   0.98322686   -6.3452289    4121.5336           11 
  119000   0.97331357   -6.3609615    4119.2884            8 
  120000   0.98057329   -6.3170565    4124.3296            4 
  121000   0.96227617   -6.3692086     4120.142            7 
  122000   0.95269984   -6.3114259    4113.5321            6 
  123000   0.95870026   -6.3218257    4132.1677           11 
  124000   0.98727449   -6.3139139    4120.6227            7 
  125000   0.95173842   -6.3158724    4134.3593            3 
  126000    0.9913951   -6.3408048     4141.071           12 
  127000    0.9505589    -6.306718    4134.1633            6 
  128000   0.97925927    -6.340894    4152.0139            6 
  129000    1.0007494   -6.3391947    4123.3801           12 
  130000   0.97209147   -6.3259468    4124.0699            9 
  131000   0.97881563   -6.3790346    4111.1262            5 
  132000    0.9580254   -6.3518916    4134.8422           12 
  133000   0.96209803   -6.3665136    4131.0552            5 
  134000   0.96556428   -6.3278186    4130.3613            6 
  135000   0.98850279   -6.3317614    4136.2843            3 
  136000   0.96892046   -6.3443002    4125.9575            8 
  137000   0.97279706   -6.3241333    4139.4034            8 
  138000   0.96051727   -6.3450139    4122.1923            6 
  139000   0.95132004   -6.3472326    4125.9344            7 
  140000   0.96688028   -6.3099196    4129.4867            8 
  141000   0.97840903   -6.2952581    4144.5852            7 
  142000    0.9514112   -6.3564924    4126.7782           27 
  143000   0.96624063   -6.3205736    4132.1114            7 
  144000   0.96371569   -6.3255708    4126.4203           14 
  145000   0.96266369   -6.3479582    4132.3801            4 
  146000   0.96695534   -6.3351382    4132.1492            4 
  147000   0.96889419   -6.3069641    4125.6729            9 
  148000   0.93613063   -6.3466355    4134.5504            7 
  149000   0.96253057   -6.3061994    4144.8817            8 
  150000   0.95344332   -6.3127222    4132.9817            5 
  151000   0.95554094   -6.3094205    4136.6792            6 
  152000   0.96373704   -6.3091374    4132.1653            6 
  153000   0.95859935   -6.3299182    4125.8304            6 
  154000   0.94611707   -6.3068187    4127.4482           11 
  155000    0.9670573   -6.3059127    4129.3777           15 
  156000   0.98873194    -6.361554    4133.3779            6 
  157000   0.95723418   -6.3393391    4129.4106            8 
  158000   0.95701487   -6.3234555    4123.9026            8 
  159000   0.96706102   -6.3397558    4121.1951            9 
  160000   0.97713884   -6.3353513    4127.1545            7 
  161000   0.96549992   -6.3370891    4121.1012            8 
  162000   0.97110052   -6.3598323    4130.9217            7 
  163000   0.97825732   -6.2956013    4144.8954           12 
  164000   0.97568604     -6.33884     4130.033            5 
  165000   0.97196707   -6.3211296     4130.448            7 
  166000   0.94805179   -6.3239071    4138.2453            7 
  167000   0.98408571   -6.3284105    4118.3815            7 
  168000   0.97853514   -6.3241897    4117.9931           10 
  169000   0.98405776   -6.3439114    4130.4022            6 
  170000   0.98588992   -6.3268477    4141.6734            7 
  171000    0.9571756   -6.3222047    4139.8499            5 
  172000   0.98475116   -6.3728892    4118.2638           24 
  173000   0.95875209   -6.3289622    4135.0295            8 
  174000   0.98181666   -6.3175838    4140.9181            8 
  175000   0.96729715   -6.3050057    4143.0325            6 
  176000   0.99758238   -6.2870647    4132.7517            9 
  177000   0.98249564   -6.3275629     4129.747            5 
  178000   0.97494933   -6.3394272    4129.1224            4 
  179000   0.96893391   -6.3524557    4124.2154            9 
  180000   0.92813214   -6.3377933      4131.54            9 
  181000   0.98937783   -6.3244908    4138.2148            4 
  182000   0.96475752   -6.3226682    4120.7737           10 
  183000   0.98382305   -6.3312304    4135.5878            6 
  184000   0.95499263    -6.306919    4144.9983            7 
  185000    1.0001479   -6.3367704    4122.9445           10 
  186000    0.9760683   -6.2790342    4113.6494            7 
  187000   0.96659825   -6.3728792    4118.1014            7 
  188000   0.96636274   -6.3405471    4127.0773            8 
  189000   0.96689427   -6.3388779    4132.1996            6 
  190000   0.96271793   -6.3255449    4137.1369           14 
  191000   0.98934406   -6.3222529    4115.3024            7 
  192000   0.97923847   -6.2897641     4126.734            9 
  193000   0.98300825   -6.3298078    4143.9301            8 
  194000   0.97960742   -6.2848374     4129.722            6 
  195000   0.97104278   -6.3349042    4122.3512           10 
  196000   0.97051981   -6.3322674      4122.68           11 
  197000   0.95687734   -6.3411411    4136.4798            5 
  198000    0.9797704   -6.3289973    4126.9318            5 
  199000   0.96240021   -6.3431503    4132.6944            9 
  200000   0.98752545   -6.3409233    4128.1849            4 
  201000   0.96864132   -6.3308165    4135.1075            5 
  202000   0.98500922   -6.3238367    4112.2091           11 
  203000   0.96091573    -6.313057    4131.6064           13 
  204000   0.98165377   -6.3119089    4123.1204            5 
  205000   0.97922172   -6.3205506    4127.5907            8 
  206000   0.96914425   -6.2776195    4140.8306            8 
  207000   0.95165907   -6.3169322    4132.8838            8 
  208000   0.95719254    -6.311759    4143.7101           11 
  209000   0.93203721   -6.3351624    4131.6833            6 
  210000   0.97340939   -6.3083318    4139.8195           11 
  211000   0.97753271   -6.3392826    4127.8778            9 
  212000   0.98584343    -6.329565    4133.3725            5 
  213000   0.97665301   -6.3470453    4122.2831           12 
  214000   0.98181371   -6.3386024    4150.3657            5 
  215000   0.95479316   -6.3465494     4120.348           11 
  216000    1.0227778    -6.325262    4138.0677            6 
  217000   0.96273501   -6.2983437    4119.5687            4 
  218000   0.99233146   -6.3381981    4126.3141           11 
  219000    0.9585079   -6.3389854    4121.8774           23 
  220000   0.96183094   -6.2931017    4144.9359            3 
  221000   0.95950288   -6.3337249    4113.9057           10 
  222000   0.94982525   -6.2902915    4111.5191           16 
  223000   0.96823324   -6.3422526    4139.1821            5 
  224000   0.94025369   -6.3390023    4124.4747            9 
  225000   0.97197902   -6.3316677    4143.1536            6 
  226000   0.99810352   -6.3405935     4133.874            6 
  227000   0.98112337   -6.3350612    4131.7668            9 
  228000   0.97244617   -6.3230177    4133.1413            9 
  229000   0.98707416   -6.3387214    4127.7133            7 
  230000   0.96056329   -6.2913196    4131.1868            7 
  231000   0.96976628   -6.3085608    4132.9872            8 
  232000   0.96362375   -6.2873676    4125.4394           14 
  233000   0.99035562   -6.3356976    4136.6446           10 
  234000    0.9654361   -6.3402113    4117.1742            4 
  235000   0.97129901   -6.3248694    4135.6942            6 
  236000   0.96032472   -6.3372298    4138.3445            9 
  237000   0.95551561   -6.3423295     4126.495           13 
  238000   0.96899607   -6.3372779    4149.6899            7 
  239000   0.97167755   -6.3160115    4122.9959            8 
  240000    0.9470446   -6.3316059    4135.7755            9 
  241000   0.97845459   -6.3685186     4139.927           10 
  242000   0.96412892   -6.3171285    4137.1312            7 
  243000   0.94994246   -6.3467707    4113.9553            5 
  244000   0.96268379   -6.3537442    4124.0593           12 
  245000   0.98262827   -6.3397279     4128.455            6 
  246000   0.95384456   -6.3511473    4117.9079            5 
  247000   0.97853441   -6.3420105    4139.7197           18 
  248000   0.93927324   -6.2939421    4128.1005           11 
  249000   0.95780258   -6.3439181    4133.4677            5 
  250000   0.96361788   -6.3937422     4121.975           11 
  251000   0.97064134   -6.3343746    4125.6779            8 
  252000   0.97357977   -6.3258501     4138.933            5 
  253000   0.98252392   -6.2759095    4130.1965           10 
  254000   0.96677966   -6.3507193     4124.594            7 
  255000   0.93356841   -6.3634506    4130.4396           13 
  256000   0.96880144   -6.2923535    4122.1913            9 
  257000   0.97072183   -6.3369311    4143.0025            9 
  258000   0.96382545   -6.3147525    4121.5461            6 
  259000   0.97129072   -6.3080088    4140.8134           10 
  260000   0.95926853   -6.3140739    4130.3359            4 
  261000   0.95752857   -6.3178894    4140.1547           11 
  262000   0.97844747   -6.3125793    4115.8821            3 
  263000   0.97834013   -6.3043691    4133.9535            4 
  264000   0.97323475   -6.3353977    4125.0601            4 
  265000   0.98251174   -6.3374116     4130.674           16 
  266000   0.97209521   -6.3240605    4130.8768            4 
  267000   0.98876009   -6.3180914     4134.102            7 
  268000   0.97245603     -6.35321    4125.7907            9 
  269000   0.97577791   -6.3032326    4117.3939            6 
  270000   0.97355058   -6.3339018    4117.0588            8 
  271000   0.98827359   -6.2968039      4140.55            9 
  272000   0.95015391   -6.2972904    4146.2943           13 
  273000   0.95424905   -6.3185206    4149.5425            7 
  274000   0.97356986   -6.2790184    4130.6291            4 
  275000   0.95715571   -6.3603118    4132.4988            6 
  276000   0.95937077   -6.3418551    4127.0386            7 
  277000   0.97867126   -6.3168963    4136.9013           12 
  278000   0.97680658   -6.3225298    4128.1468            8 
  279000    0.9738579   -6.3220835    4122.0407            3 
  280000   0.98905396   -6.3167075    4128.2216            5 
  281000   0.97565312   -6.3245242     4135.852            6 
  282000   0.98266542   -6.3013463     4135.841            6 
  283000   0.96094725   -6.3017279    4141.6353            8 
  284000   0.95082787   -6.3265004    4132.8514            5 
  285000   0.98521621   -6.3130639    4142.1709            9 
  286000   0.94856093   -6.3443887    4128.7209           13 
  287000   0.95449097   -6.3351568    4123.7294            5 
  288000   0.95692052   -6.2948722    4127.7655           12 
  289000   0.99524706   -6.3007819    4139.2444            6 
  290000   0.96928647   -6.3486725     4141.797           13 
  291000    0.9733245   -6.3250971    4132.1172            6 
  292000     0.960477   -6.3288665    4120.8249            5 
  293000   0.96458116   -6.3552858    4127.4899           10 
  294000   0.96081948   -6.3566165    4126.3999            9 
  295000   0.96889844   -6.3442867      4129.19            4 
  296000   0.99015905   -6.2975157    4121.9266            4 
  297000   0.97680431   -6.3226946    4128.6993           10 
  298000   0.97067043   -6.3173855    4151.6442            5 
  299000   0.96468688   -6.3069347    4125.4811            3 
  300000   0.96734894   -6.3129663    4130.6891            8 
  301000   0.98096676   -6.3081929    4140.2701           13 
  302000   0.97356826   -6.3179819    4126.7804            6 
  303000   0.99943678   -6.3127153    4145.2988            8 
  304000   0.97395719      -6.3269    4124.2647           10 
  305000   0.95917955   -6.3310761    4120.8295           16 
  306000   0.97574731   -6.3679477    4104.7645           10 
  307000   0.96359878   -6.3266022    4115.3009           10 
  308000   0.97922047   -6.3137399     4122.305            5 
  309000   0.95601237   -6.3021701    4120.4378            4 
  310000   0.96284093   -6.3314525    4123.5678           11 
  311000   0.97370883   -6.3004889    4140.7358            8 
  312000    0.9626876   -6.3095982    4128.0279           10 
  313000   0.97880474   -6.3527704    4121.0753            3 
  314000   0.95600923   -6.3355422    4138.6169           15 
  315000    0.9718779   -6.2869274    4131.1689            7 
  316000   0.97598359   -6.3491702    4122.2945           11 
  317000   0.95499857   -6.3367689    4139.8625            6 
  318000   0.98021466    -6.333311    4139.4464            4 
  319000   0.96377803   -6.3649455    4125.9504            8 
  320000    0.9654114   -6.3269492     4121.559            5 
  321000   0.99013785   -6.3252254    4135.3119           10 
  322000   0.95943449    -6.321426    4130.6196           12 
  323000   0.99014218   -6.3518347    4135.4501            6 
  324000   0.94055833   -6.3326684    4126.3145            4 
  325000   0.97138856   -6.3340769    4130.6756            6 
  326000   0.95194727   -6.3521897    4120.1436            6 
  327000   0.96088958   -6.3527531    4119.3259            9 
  328000   0.97200883   -6.3310772     4132.704            5 
  329000   0.95209517   -6.3100764    4139.2005            6 
  330000    0.9722618   -6.2992038    4125.2293            5 
  331000    0.9765707   -6.3522539     4123.899            7 
  332000   0.97310536   -6.3073845     4139.738            4 
  333000   0.96559376   -6.3615847    4139.2496            6 
  334000   0.97160719   -6.3301938    4131.2586           12 
  335000   0.96203194   -6.3061805    4134.2787            8 
  336000   0.96333636   -6.3218626    4134.7428            5 
  337000   0.99583265   -6.3308042    4126.6324           10 
  338000   0.95709594   -6.3063476    4133.0597            3 
  339000   0.94583842   -6.2937759    4116.0468           12 
  340000   0.96388885    -6.304552    4145.7415            5 
  341000   0.98060263   -6.3367341    4135.6853            8 
  342000   0.99785841   -6.3309405    4110.7892           10 
  343000   0.95749426   -6.3371459    4110.8904            8 
  344000   0.96994934   -6.3505344    4113.9618            7 
  345000    1.0011892   -6.3171773    4109.5203           16 
  346000   0.94369675   -6.3262702    4133.8265            8 
  347000   0.97013094   -6.3160223    4112.3637            7 
  348000   0.96620498   -6.3108303    4134.2393            7 
  349000   0.96027859   -6.3185169    4117.3766            3 
  350000   0.97953596   -6.3424649    4121.7756           11 
  351000   0.98653522   -6.3144655    4128.4346            4 
  352000   0.97698855   -6.3066093     4120.419           15 
  353000   0.97496758   -6.3375217    4148.5108           12 
  354000   0.96839485   -6.3206597    4141.4873            5 
  355000   0.94729329   -6.3236703    4137.1282            6 
  356000   0.95668217   -6.3298149    4139.3118            4 
  357000   0.97417639   -6.3143596    4156.0239           13 
  358000   0.95703526   -6.3480318    4141.4771            6 
  359000   0.95561545   -6.3412419     4127.377            8 
  360000   0.96279051   -6.3085758    4132.3291            8 
  361000   0.97931548   -6.3223708    4132.2289            5 
  362000    0.9769249   -6.2966155    4144.2146            4 
  363000   0.97069176   -6.3203458    4129.8667           10 
  364000   0.98690723   -6.3248788    4132.4408           11 
  365000   0.97229478   -6.3356002    4129.6465            9 
  366000   0.98328233   -6.3404688    4118.9177           14 
  367000   0.95592688   -6.3346915    4137.8308            8 
  368000   0.96604947   -6.3220169    4148.4862            5 
  369000   0.98194679   -6.3263439    4142.5636            4 
  370000   0.97660291   -6.3127706    4134.1946            8 
  371000   0.96970214    -6.347231    4119.5048           16 
  372000   0.96062291   -6.3658165    4119.7961            8 
  373000   0.97703634   -6.3482926    4130.9048            6 
  374000   0.96196488   -6.3284097    4145.0775           13 
  375000    0.9540421   -6.3044283    4145.7494            3 
  376000   0.97113929   -6.3291626    4128.5435            7 
  377000   0.97934688   -6.3380649    4112.3947           12 
  378000    0.9748202   -6.3044917    4141.3583            8 
  379000   0.96444807   -6.3050088    4130.1889            3 
  380000   0.96876511   -6.3565742    4129.4425            7 
  381000   0.99277154   -6.3442617     4128.286           11 
  382000   0.95893621   -6.2966426    4122.7975            8 
  383000   0.97634868   -6.3521326    4108.7206            5 
  384000   0.97158654   -6.3179938    4138.1241           10 
  385000   0.97564447   -6.3102654    4131.3979            4 
  386000   0.94486622    -6.343014    4125.2721           12 
  387000   0.97838822   -6.3339577    4116.9114            7 
  388000   0.97689528   -6.3202699     4131.692            3 
  389000   0.97372199   -6.3018584    4153.8312           10 
  390000   0.96076668   -6.3069589    4139.1081            6 
  391000   0.98784652   -6.2998772     4124.892            7 
  392000   0.98085913   -6.3456083    4135.2746            9 
  393000   0.95474124   -6.2957856     4135.907            4 
  394000   0.97856871   -6.3142069    4124.2061            8 
  395000   0.97563003    -6.327709    4134.8015            8 
  396000   0.96741915   -6.3394792    4139.0611           10 
  397000   0.98909799   -6.3364472    4139.0799            4 
  398000   0.96191725   -6.3096908    4144.2736            5 
  399000   0.97367816   -6.3227611    4125.3989            6 
  400000    0.9580388   -6.3284938    4138.1155            8 
  401000   0.97859625   -6.3475803    4134.8376            8 
  402000   0.97249541   -6.3663113    4132.6291           10 
  403000   0.97612031   -6.3473636    4140.1777           12 
  404000   0.99409184   -6.3297856    4129.9553           27 
  405000   0.97471813   -6.3061716    4142.1114            7 
  406000    0.9623566   -6.3257007    4137.1412            9 
  407000   0.99128589   -6.3342858    4130.5192           10 
  408000   0.95835931   -6.3155372    4135.0169           13 
  409000   0.97543078    -6.294405     4123.185            5 
  410000   0.96575609   -6.3264756    4133.7461           10 
  411000   0.96211762   -6.3175841    4126.8465            6 
  412000   0.96455678   -6.3393484    4130.0347            9 
  413000   0.97692623   -6.3261726    4137.2516           13 
  414000   0.98867931   -6.3107348    4133.1375            9 
  415000   0.96356901   -6.3469919    4113.5041           17 
  416000   0.97777047   -6.3613242    4141.1632           15 
  417000   0.98643333   -6.3419476    4126.2787            5 
  418000    0.9493734   -6.3324434    4123.3087            9 
  419000   0.97292844   -6.3186669    4145.7868            6 
  420000    0.9482369   -6.3529558    4111.0092            8 
  421000   0.97174713   -6.3252422    4130.3306           12 
  422000   0.96253698   -6.3479601    4124.7266            7 
  423000   0.94778524   -6.3240772    4126.5929            4 
  424000   0.95125898   -6.3433807    4103.5179            8 
  425000   0.96924298   -6.3504059    4117.7424            8 
  426000    0.9596624   -6.3339341    4120.5315           19 
  427000   0.98357394    -6.335538    4127.9496            7 
  428000   0.97349644   -6.3126489    4127.6047            6 
  429000   0.97497199   -6.3257992    4129.0015            4 
  430000   0.95884135   -6.3569288    4123.8055            6 
  431000   0.96834718   -6.3219558    4136.2251            6 
  432000    0.9771448   -6.3586314    4131.0022           10 
  433000   0.97271479   -6.3595186    4127.9109           11 
  434000   0.94514527   -6.3358718    4126.7754           10 
  435000   0.96216854   -6.3251276    4131.0811            9 
  436000   0.98474534   -6.3238273    4125.7178            4 
  437000    0.9532112   -6.3504849    4126.6039           10 
  438000   0.96907295   -6.3303238    4112.8722           10 
  439000   0.97516553   -6.3144603    4135.6609            5 
  440000   0.97702703   -6.3231627    4147.8803            5 
  441000   0.95587505   -6.3476597    4127.0305           16 
  442000   0.95959562   -6.3456882    4136.3065            9 
  443000   0.95765733    -6.324471    4145.1719            5 
  444000   0.96991101   -6.3404376    4117.9701            4 
  445000   0.97744081   -6.3270894    4126.3406            9 
  446000   0.97204577    -6.283192    4133.0367            9 
  447000   0.95283272   -6.3571771    4140.0397            4 
  448000   0.97521079   -6.3316783    4146.5741            9 
  449000   0.96581788   -6.3668157    4128.3503            5 
  450000    0.9722362   -6.3183547    4126.9583            7 
  451000   0.98036491   -6.2991861    4117.4157           13 
  452000   0.96872451   -6.3288771    4136.3795            6 
  453000   0.95892352   -6.3227838    4152.5307            9 
  454000   0.97197008   -6.3165457    4143.5131            8 
  455000   0.97259592   -6.3306894    4130.1285           13 
  456000   0.97050551   -6.3187487    4142.4237            4 
  457000    0.9907076   -6.3127742      4137.81            7 
  458000   0.96101039   -6.3385636    4126.2933            7 
  459000   0.95611829   -6.3183563     4122.798            3 
  460000   0.97897118   -6.3764852    4127.3983            6 
  461000   0.97634776   -6.3643341    4116.0594           28 
  462000   0.95216308   -6.3245975    4126.0616           10 
  463000   0.96037817   -6.3013501    4130.5463            5 
  464000   0.98539217   -6.3253643    4135.1564           10 
  465000   0.95598962   -6.3419743    4131.8607            7 
  466000    0.9907021    -6.317197    4121.0868            4 
  467000    0.9810511   -6.3211041    4142.3259            5 
  468000   0.96079017    -6.366579    4118.3649            7 
  469000   0.99439608   -6.3278415    4128.8976            7 
  470000   0.97825183   -6.3356062    4121.2981            8 
  471000   0.97799331   -6.3226902    4117.5641            7 
  472000   0.95183093   -6.2998429    4142.2373            4 
  473000   0.95481983   -6.3366716    4141.2347            6 
  474000   0.96565493   -6.3146696    4119.6057            5 
  475000   0.98276305   -6.2902914    4127.7829            4 
  476000   0.96877149   -6.3240356    4115.3889            7 
  477000   0.95684905   -6.3335191    4127.1583           11 
  478000    1.0024743   -6.3129464    4138.7189            9 
  479000   0.96375517    -6.304631    4133.2089           13 
  480000   0.96174078   -6.3368238    4132.6775            6 
  481000    0.9587724   -6.2982107    4147.7903            5 
  482000   0.97760249   -6.3455571    4116.1472            7 
  483000   0.96569022   -6.3194051     4137.645            5 
  484000   0.95666523   -6.3324702    4132.7463            8 
  485000   0.97592972   -6.3109762    4116.3017            7 
  486000   0.96803003   -6.3118961    4134.1719            4 
  487000   0.99938638   -6.3355221    4128.4451            6 
  488000   0.98454643   -6.3204292    4121.2746            5 
  489000   0.95504174   -6.3147058    4120.5643            6 
  490000   0.94442474   -6.3034266    4145.5659            8 
  491000   0.98778999   -6.3193841    4129.9309            7 
  492000   0.97171451   -6.3024661    4138.1112            9 
  493000   0.97966443   -6.3216963    4139.3945            6 
  494000    0.9713586   -6.3512746    4116.8461            7 
  495000   0.96680153   -6.3226865    4137.8871            9 
  496000   0.97349349   -6.3593741     4133.141           12 
  497000   0.95332549   -6.2981101    4127.7772            8 
  498000   0.97834757   -6.3280825    4129.7118            3 
  499000   0.99141478   -6.3095407    4132.5929            8 
  500000   0.97051199   -6.3494825    4124.5662            4 
  501000   0.96199869   -6.3283218    4140.5994            8 
  502000   0.97179106   -6.3146113    4141.8885           19 
  503000   0.97971911   -6.3173283    4119.1274            9 
  504000   0.95057853   -6.3384591    4129.7507            6 
  505000   0.94969588   -6.3366796    4141.3506            7 
  506000   0.96891244   -6.3270997    4117.0012           13 
  507000   0.96137355   -6.3180927    4127.0912           10 
  508000   0.97487242   -6.3284354    4119.5056            6 
  509000   0.98017358    -6.345704    4128.2118            5 
  510000    0.9647041   -6.3190556    4136.2675            9 
  511000   0.96117273   -6.3070246    4130.3728            8 
  512000   0.95261565   -6.3346817      4122.85            9 
  513000   0.95239763   -6.3349619    4133.3982            5 
  514000   0.96085693   -6.3069416    4117.4427            7 
  515000   0.96410956   -6.3070339    4134.5885            7 
  516000    0.9553589   -6.3352239    4126.1104            9 
  517000   0.99576487   -6.2830518    4140.8351            4 
  518000    0.9704057   -6.3135759    4131.7277            3 
  519000     0.967037   -6.3214379    4118.0569           10 
  520000   0.95885966   -6.3208634    4115.4583            5 
  521000   0.95611606   -6.3396362    4121.1145            5 
  522000   0.97186764   -6.3689108    4127.9599           15 
  523000   0.95783204   -6.3456158    4111.3167           11 
  524000   0.96165495   -6.3584039    4139.7585            6 
  525000    0.9727185   -6.2943952    4126.5964            7 
  526000   0.97520769   -6.3420759    4120.7246            6 
  527000   0.97774504   -6.3303316    4120.0761            7 
  528000   0.98246247   -6.3160095    4155.0177            4 
  529000   0.98145692   -6.3353884    4112.3482            7 
  530000   0.95542513   -6.3272231    4110.9499           13 
  531000   0.99277507   -6.3415502     4127.757            5 
  532000   0.97795116   -6.3090477    4122.0243           29 
  533000   0.96753782   -6.3319361    4132.6543            7 
  534000   0.95781361   -6.3197937    4118.6948            6 
  535000    0.9622826   -6.3413597    4129.5957            9 
  536000   0.95243959   -6.3054998    4140.3916            4 
  537000   0.96073799   -6.3304963    4122.3376            6 
  538000   0.95872571     -6.31402    4129.6466           11 
  539000   0.97191547   -6.2814978     4134.404           10 
  540000   0.96892855    -6.342982      4125.57            5 
  541000   0.95402884   -6.3343808     4132.482            5 
  542000   0.99677193   -6.3401503    4129.5276           10 
  543000   0.97115033   -6.3531447    4117.2937            4 
  544000   0.94793685    -6.297119    4131.5495            7 
  545000   0.98636752   -6.3412016    4135.8926            7 
  546000   0.96566854   -6.3345786    4122.4417           29 
  547000   0.93521844   -6.3308727    4119.6513            5 
  548000   0.95527047   -6.3118815    4137.3989           11 
  549000    0.9677874   -6.2915933    4151.8621            4 
  550000   0.94270118    -6.316902    4134.8015           12 
  551000   0.98440701   -6.3459301    4128.7361            9 
  552000   0.99932022   -6.3195938    4134.0345            4 
  553000   0.99764581   -6.3000188    4128.7201            7 
  554000    0.9467915   -6.2850335    4144.9635            6 
  555000   0.96865375    -6.290368    4134.5495           10 
  556000   0.93825203   -6.3398994    4136.8457            5 
  557000   0.96399512   -6.3112665    4124.2641            5 
  558000   0.94172099   -6.3169995    4142.9718            6 
  559000   0.95902277   -6.3100357    4130.4775            4 
  560000   0.95515047   -6.3280599    4132.8808            5 
  561000   0.95086292   -6.3587967    4139.8425            6 
  562000   0.95038058    -6.357987    4129.4837            8 
  563000   0.99016338   -6.3256131    4132.1557            5 
  564000   0.99809157   -6.3122033    4125.9826            9 
  565000   0.97078486   -6.3352103    4126.8015            7 
  566000   0.95693827    -6.295148    4136.9685            7 
  567000   0.99332141   -6.3210183    4128.2895            9 
  568000   0.96508785   -6.3029686    4143.4965            5 
  569000   0.93361792    -6.303465    4136.2966           11 
  570000   0.97709978   -6.3116849    4129.2166            4 
  571000   0.96389551   -6.3355043     4111.235            7 
  572000   0.95221073   -6.3319567    4111.8886           12 
  573000   0.96458644   -6.3284105     4139.763            7 
  574000   0.97826293   -6.3341125    4122.8536           10 
  575000   0.95649239   -6.3507213    4123.3264            5 
  576000   0.96028763   -6.2917182    4131.0075            4 
  577000   0.94837406   -6.3317316    4136.7712            6 
  578000   0.98809218    -6.326244    4111.6109            9 
  579000   0.97973392   -6.3624394    4134.4142           16 
  580000   0.96534971    -6.314456    4136.5143           20 
  581000   0.97487051   -6.3362196    4118.5961            9 
  582000   0.96520097   -6.3332335    4141.3949            5 
  583000     1.010053   -6.3576948    4118.8166            4 
  584000   0.96114282   -6.2891005    4130.6892            5 
  585000   0.97958231   -6.3426481    4140.5216            8 
  586000   0.97655598    -6.340469    4119.5157            5 
  587000   0.96994496   -6.3271153    4130.0214            5 
  588000   0.97882475   -6.3052951    4135.4124           10 
  589000   0.96616929   -6.3292634    4124.9667            9 
  590000   0.98957079   -6.2894106    4156.2185            8 
  591000   0.97685936   -6.3018208    4127.0277            7 
  592000   0.96649998   -6.3466028    4143.0586            5 
  593000   0.98491932   -6.3136143    4121.3568           12 
  594000   0.97460572   -6.3045522    4122.5731           10 
  595000   0.97250075   -6.3620107    4118.7397           12 
  596000   0.97244858   -6.3259459    4136.2771            6 
  597000   0.98892493   -6.3565638    4126.5162            9 
  598000   0.98796823   -6.3185992    4127.8474            6 
  599000    0.9624564    -6.350288    4127.8549            6 
  600000    1.0006692   -6.3400022    4144.2212            6 
  601000   0.95703464   -6.3446226    4133.2783           10 
  602000   0.96522039    -6.323864     4138.068            7 
  603000   0.96940666   -6.3050137    4128.3679            6 
  604000   0.97727354    -6.340729    4132.1018            7 
  605000   0.95504074   -6.3368748    4113.2746            5 
  606000   0.97886269   -6.2997967    4128.6814           14 
  607000    0.9605153   -6.3419758    4135.1056            7 
  608000   0.98488307   -6.3001855    4129.9595            4 
  609000   0.97215488   -6.3628232    4128.9242            5 
  610000   0.97902562   -6.3440712    4121.2194            9 
  611000   0.97095295   -6.3203744    4134.2316            6 
  612000   0.97921555   -6.3041814    4118.9935            7 
  613000    0.9523033   -6.3486905     4120.029            8 
  614000   0.97493807   -6.3197524    4128.1259           10 
  615000    1.0093465   -6.3265101    4128.8257            5 
  616000    0.9641477   -6.3379881    4129.7855            4 
  617000   0.95998712   -6.3650127    4144.4024           10 
  618000   0.97680647   -6.2991713    4126.6401            7 
  619000   0.96848378   -6.3423265    4124.6018            6 
  620000   0.97503843   -6.3453629    4130.6673           13 
  621000    0.9647111   -6.3153086    4113.5851            3 
  622000   0.98338767   -6.3219815    4123.8638            8 
  623000    0.9726049    -6.328378    4141.9086           10 
  624000   0.95107353   -6.3336406    4125.4776            9 
  625000   0.96570575   -6.3186534    4132.4036           19 
  626000   0.93246109   -6.2847168    4133.7233            5 
  627000   0.97238961   -6.3277712    4135.4028            5 
  628000   0.97388553   -6.3253168    4127.4812           12 
  629000   0.98482612   -6.3479592    4120.1576           19 
  630000   0.97336361   -6.3410277    4142.1197            6 
  631000   0.97611308   -6.2977922    4132.3583            5 
  632000   0.97200509    -6.336466    4122.9325            9 
  633000   0.96893436   -6.3500419     4131.907            7 
  634000   0.97368596    -6.317971     4139.644            7 
  635000    0.9669485   -6.3241716    4147.8666            6 
  636000     0.963879   -6.3043956    4128.9833            4 
  637000   0.94927376   -6.3021239    4106.3491            8 
  638000   0.98196174   -6.2861033    4129.6226            4 
  639000   0.99092865    -6.308514    4122.9576            7 
  640000   0.98164773   -6.3102378    4133.5319            3 
  641000   0.98969526   -6.3249121    4142.8958            9 
  642000   0.98350339   -6.3418181    4126.8288            8 
  643000   0.95549028   -6.3164048     4122.991           10 
  644000   0.96018224   -6.3334963     4126.384           26 
  645000   0.95718186   -6.3447764    4132.6151            5 
  646000   0.99374446   -6.2941473    4146.4339            8 
  647000   0.94779976   -6.3677137    4129.2908            6 
  648000   0.97339822   -6.3208151    4127.0326           11 
  649000   0.96910984   -6.3093797    4131.7596           11 
  650000   0.97194576   -6.3229495    4117.9547            6 
  651000   0.95486443   -6.3513892    4109.8519            5 
  652000   0.95420861   -6.3472779    4122.0797           10 
  653000   0.97044972   -6.2990292    4125.8421            9 
  654000   0.97249903   -6.3327809    4127.7483            8 
  655000   0.96319868   -6.3217999    4123.8888           11 
  656000   0.96452657   -6.3382112    4123.9972            3 
  657000   0.97579841   -6.3234807    4119.3711           11 
  658000   0.95999565   -6.3202825    4135.6126            5 
  659000   0.96060863   -6.3324008     4132.494            3 
  660000   0.97038722   -6.3341673    4125.3395            6 
  661000   0.96189166    -6.310968    4105.3137            8 
  662000   0.95963997   -6.3661388    4108.2172           10 
  663000   0.96302452   -6.3065477    4148.7921            3 
  664000   0.99205872   -6.3346276    4140.1689            6 
  665000   0.97425306   -6.3475932    4129.1832            9 
  666000   0.98194314   -6.3480179    4141.4484            6 
  667000   0.98060027   -6.3187377    4130.4492            7 
  668000   0.96912178   -6.2972455    4137.1035            9 
  669000   0.95652009   -6.3204739    4136.1859           20 
  670000   0.95947695   -6.3475141     4133.078            4 
  671000   0.97403678   -6.3198746    4113.8707           13 
  672000    0.9673461   -6.3154282    4123.1782            8 
  673000   0.98036785   -6.3203257    4133.3805            5 
  674000   0.96075262   -6.3345641      4120.72           17 
  675000   0.95476042   -6.3309115    4121.0458            3 
  676000   0.97137136   -6.3289953    4139.3638           19 
  677000   0.98940933   -6.3456814    4127.4417            9 
  678000   0.97133992   -6.3526099    4123.7602            7 
  679000   0.97974798   -6.3324088    4133.0303            9 
  680000   0.96834639   -6.2759021    4123.4754           24 
  681000   0.97467146   -6.2953141     4129.287            8 
  682000   0.95946357   -6.3240499    4143.5998           16 
  683000   0.95549758   -6.3023406    4142.8979            5 
  684000   0.98139606   -6.2954389    4150.1074            5 
  685000   0.99655275   -6.2849827    4136.1442           12 
  686000   0.98631655   -6.3026738     4134.474            9 
  687000   0.96225317   -6.2878362    4131.9035           23 
  688000   0.97042721   -6.3241651    4120.3598            5 
  689000   0.96533686   -6.3427434    4121.2098            9 
  690000    0.9689966   -6.3403793    4126.8587           13 
  691000   0.98014263   -6.3415104       4131.4            6 
  692000   0.98356121   -6.3384961     4137.088            7 
  693000   0.96277653   -6.3207228    4128.3133            4 
  694000   0.94631072   -6.2930121    4137.6915            8 
  695000   0.95890664   -6.3221758    4132.2302            7 
  696000   0.97805503   -6.3206932    4130.8999           12 
  697000   0.95228253   -6.3141982    4128.1791            5 
  698000   0.97671766   -6.3253238    4140.2474            8 
  699000   0.95835079   -6.3271222    4124.8701            6 
  700000   0.97638176   -6.3497639    4127.7431           16 
  701000   0.95742681    -6.322885    4143.2585           10 
  702000   0.95428785   -6.3137479    4108.8919            5 
  703000   0.98108333   -6.3092467     4119.389           12 
  704000   0.96213885   -6.3365464    4130.8919            5 
  705000   0.96531161   -6.3191674    4138.7334            4 
  706000   0.96978132   -6.3200957    4125.7423           16 
  707000   0.99014823    -6.357501    4120.9109            8 
  708000   0.98628597   -6.3100895    4123.6109            6 
  709000   0.99475564   -6.3100741    4123.4659           15 
  710000    1.0014543   -6.3165814    4127.5563            7 
  711000   0.96468166   -6.3354862    4131.6306            8 
  712000   0.98673684   -6.3073555    4123.4523            9 
  713000   0.97045084   -6.3536623     4113.783            9 
  714000   0.94014361   -6.3657769    4134.2985            5 
  715000   0.96227945   -6.3274527    4131.3021            9 
  716000   0.98664603   -6.3405319    4130.8492            4 
  717000   0.94991095   -6.3231893    4132.0451            7 
  718000    0.9914669   -6.3051614    4146.7604            5 
  719000   0.98606193   -6.3330906    4119.0136            4 
  720000     0.968397    -6.293696    4146.5119            9 
  721000   0.96676988   -6.3352137    4128.1075            5 
  722000   0.98698398   -6.3319532    4138.0434           10 
  723000   0.98782903   -6.2991869    4142.0818           13 
  724000   0.98686888   -6.3301567    4131.0282            5 
  725000   0.96925462   -6.2998898    4127.8688           10 
  726000   0.94553338   -6.3296493    4132.1543            7 
  727000   0.97469085   -6.3513483    4144.2921            4 
  728000   0.95705988   -6.3231561    4128.6417            2 
  729000   0.96780346   -6.3267391    4149.4748            7 
  730000   0.97965244   -6.3161373    4149.9791            6 
  731000   0.97202885   -6.3222609     4116.746            7 
  732000   0.96325129   -6.3388688    4128.8343           14 
  733000   0.96691872   -6.3172473    4119.9358            9 
  734000   0.96128596   -6.3450879    4099.9973            8 
  735000   0.97882539   -6.3213908    4133.3091            4 
  736000   0.95444277   -6.2879062    4143.0689            8 
  737000    0.9940722   -6.3233865    4125.3937           11 
  738000    0.9719028   -6.3265327     4129.854            9 
  739000   0.96212938   -6.3193406    4121.9333            6 
  740000   0.98108139    -6.347631    4123.6536            9 
  741000   0.95305738   -6.3141662    4128.5773            5 
  742000   0.96176467   -6.3240331    4129.5769           20 
  743000   0.95081278    -6.332379    4145.0927            8 
  744000   0.97692739   -6.3556586    4110.9285            9 
  745000   0.96287863   -6.3311831    4122.5585            6 
  746000   0.97852686   -6.3115844    4131.3693            4 
  747000    0.9775991   -6.3491805    4120.0447            8 
  748000   0.96371453   -6.3290331    4113.7984            5 
  749000   0.96962361   -6.3311867    4141.5754            9 
  750000   0.96592289   -6.3395651    4130.9805           12 
  751000   0.96356823   -6.3227612    4132.0655            6 
  752000   0.96305191   -6.3328234    4126.3148           12 
  753000   0.95050337   -6.3249144    4132.5178           13 
  754000   0.97440318   -6.3289958    4127.6733            8 
  755000   0.97027699   -6.3222533    4134.4941            8 
  756000   0.94770497   -6.3223398    4132.5713            6 
  757000   0.98852904   -6.3340651    4125.4567            9 
  758000   0.96915043   -6.2866997    4139.1159            5 
  759000   0.96647781   -6.3683163    4128.1631            8 
  760000   0.96186334   -6.3462804    4131.1254            5 
  761000   0.96896024   -6.3473243    4111.1432            4 
  762000    0.9644143   -6.3490056    4128.5964            7 
  763000   0.95578153   -6.3634779    4125.5157            7 
  764000   0.95568448   -6.3313233    4133.1941            9 
  765000   0.97980151   -6.3116148    4139.7341            5 
  766000   0.96777874    -6.346843    4120.4616           10 
  767000   0.96549771     -6.34098    4122.8735            6 
  768000   0.99774867   -6.3418963    4131.1309            5 
  769000   0.98730056   -6.3006215    4131.5724            5 
  770000   0.97590827    -6.352377    4129.1981            8 
  771000   0.95460438    -6.306692    4132.5781           10 
  772000   0.98140003   -6.2982623    4141.4785            3 
  773000   0.97746745   -6.3063767    4151.3788            5 
  774000   0.96795584   -6.3320361    4141.4543            6 
  775000   0.98586449   -6.3266169    4132.5032            6 
  776000   0.97306824   -6.3363168    4134.0048            7 
  777000   0.98198748   -6.3371071      4149.59            4 
  778000   0.99195117    -6.335421    4132.8775            9 
  779000   0.96770369   -6.3241603     4135.876            4 
  780000   0.98688921   -6.2846795    4134.3414           13 
  781000   0.96525408    -6.286133    4136.3114            5 
  782000   0.98027988   -6.3148713    4121.6609            4 
  783000   0.98126019   -6.2857257     4137.234            5 
  784000    0.9804987    -6.303531    4127.9789            7 
  785000   0.98004932   -6.3219037    4131.0574            4 
  786000   0.96040924   -6.3229365    4136.9481            4 
  787000   0.98002263   -6.2892856    4132.9872            7 
  788000   0.96040226   -6.3451001     4137.618           14 
  789000   0.98239179    -6.311509    4122.0007            8 
  790000   0.96050995   -6.3228512    4135.7348            7 
  791000   0.97742438   -6.3146788    4147.5204            4 
  792000   0.96506529   -6.3080064    4147.0887            7 
  793000   0.94943909    -6.329719    4129.8447            6 
  794000   0.95533305   -6.2953397     4135.441            5 
  795000   0.97342119   -6.3068505    4127.3576            8 
  796000   0.97284245   -6.3079172    4121.5003            8 
  797000   0.96258259   -6.3428463    4118.5901            7 
  798000   0.99500709   -6.3439872    4124.4256           11 
  799000   0.97064837   -6.3482039    4129.8367            9 
  800000   0.96329587   -6.2895187    4147.1996            8 
  801000   0.95661407     -6.31876    4134.8551           10 
  802000   0.96108895   -6.3481339    4137.3637            7 
  803000    0.9779536   -6.3040143    4122.0532           12 
  804000   0.99386479   -6.3288258    4123.3497            9 
  805000   0.98111137   -6.2926589    4137.0081            4 
  806000   0.96795794   -6.2996095    4132.2359            5 
  807000   0.97476485   -6.3178844    4125.6733            7 
  808000   0.97117917   -6.3069452    4133.8247            4 
  809000   0.98386677   -6.2996372     4137.172            8 
  810000   0.98845281   -6.3229702     4134.231            5 
  811000   0.96352659   -6.3588343    4120.2406            6 
  812000   0.97659633   -6.3316806    4145.9936            3 
  813000   0.97866297   -6.3501749    4134.6831            8 
  814000   0.97815937   -6.3402152    4115.1837            5 
  815000   0.96091003   -6.3586231    4124.8002            6 
  816000   0.95721823   -6.3615879    4128.0945            8 
  817000   0.97963915   -6.3590192    4137.0657            2 
  818000   0.95206933    -6.329061     4133.088            8 
  819000   0.95248208    -6.302215     4130.054            9 
  820000   0.97248122   -6.3447562    4131.8324            8 
  821000   0.97957502   -6.3619219    4123.7836           18 
  822000   0.96982274   -6.3482889    4132.7504            8 
  823000     1.004934   -6.2941234    4130.2203            4 
  824000   0.96738753   -6.3333354     4136.208            7 
  825000   0.99259494   -6.3354852    4126.6861            4 
  826000   0.97085232   -6.3301306    4128.3714           13 
  827000    1.0060807   -6.3363882    4140.3813            4 
  828000   0.96743766   -6.3658498    4120.4154            8 
  829000    0.9757415   -6.3060647    4134.4467           14 
  830000   0.96292982    -6.315632    4138.9115           11 
  831000   0.96353613    -6.320156     4126.122            6 
  832000   0.96356413   -6.2990816    4136.2232            8 
  833000    0.9656645   -6.3105327    4145.2093           10 
  834000    0.9774274   -6.3040594     4139.831            9 
  835000   0.97404048   -6.3231815    4137.1258           10 
  836000   0.97965993   -6.3079624    4124.8398           12 
  837000   0.97797388   -6.3300001    4136.9948            9 
  838000   0.96438729   -6.3449612    4144.1259            6 
  839000   0.95592927    -6.340143    4117.9243            6 
  840000   0.96510353   -6.3257636    4134.2781            7 
  841000   0.97903026   -6.3184145    4134.7434            7 
  842000   0.98441172   -6.3289718    4133.2914            4 
  843000   0.97377757   -6.3046295     4129.271            4 
  844000   0.96801454   -6.3266267    4144.4876            8 
  845000   0.95782644   -6.3520201    4130.4028            5 
  846000   0.97978493   -6.3156721    4133.3422            4 
  847000   0.96448409   -6.3124036    4124.5669           18 
  848000   0.97039363   -6.3011792    4129.3348            9 
  849000   0.97698211   -6.3154472    4133.0968            6 
  850000   0.96146358   -6.3320427    4119.4584            3 
  851000   0.97903113   -6.3387279    4132.1031            7 
  852000   0.95795749   -6.3198676     4121.085           27 
  853000   0.97329989   -6.3106504    4134.7219            6 
  854000   0.96460979   -6.3121951    4127.9413            9 
  855000   0.98340781   -6.3446275    4138.3595            5 
  856000   0.97299093   -6.3265948    4138.0474           10 
  857000   0.95843943   -6.3436394    4123.7514           21 
  858000   0.96886791   -6.3150863    4129.7663            5 
  859000   0.97310582   -6.3497417    4135.3442            4 
  860000   0.97658129   -6.2896179    4128.4697           12 
  861000   0.96948423   -6.3292706    4127.3231           12 
  862000   0.96326067   -6.3055787    4117.7403           23 
  863000   0.98471438   -6.3345261    4132.7103            8 
  864000   0.97689339   -6.3095598    4125.3096            3 
  865000   0.94886617   -6.3052918    4114.9485            7 
  866000   0.96991389   -6.3612441    4122.1727            5 
  867000   0.95493157   -6.3482119    4134.0408            5 
  868000   0.98118507   -6.3082174    4129.3697            6 
  869000   0.99075137   -6.2963154    4120.3907            8 
  870000   0.96112851   -6.3148485    4123.2459            6 
  871000   0.95575679   -6.3252034    4134.4659            8 
  872000   0.97350161    -6.351239    4107.2628            6 
  873000   0.97701915   -6.3750528    4130.9701           12 
  874000   0.95811985   -6.3188075    4115.8871            9 
  875000   0.96162657   -6.3109172    4122.1981            7 
  876000   0.93607583   -6.3249693    4151.6732            4 
  877000   0.97862555   -6.3261034    4122.4865            8 
  878000   0.98012616    -6.325194    4145.0726            7 
  879000    0.9447039   -6.3397744     4129.607            8 
  880000   0.95614304   -6.3045766     4142.056            4 
  881000   0.96541541   -6.3237817    4138.5708            9 
  882000   0.96433337   -6.3258154    4122.8402           15 
  883000   0.95722247   -6.3347771    4120.3815           22 
  884000   0.99834364   -6.3471327    4136.2276            8 
  885000   0.97434451    -6.329877    4140.0341            6 
  886000   0.97137335     -6.32239    4126.6733            8 
  887000   0.99759959   -6.3322343    4123.0317            7 
  888000   0.96447792   -6.3301257    4123.3218            9 
  889000   0.97412075   -6.3311761    4119.4159           13 
  890000   0.96818337   -6.3151649    4115.3286            8 
  891000   0.96694125   -6.3346819    4143.8105            4 
  892000   0.96631373   -6.3646252    4120.7853            8 
  893000   0.94597571   -6.3458735    4131.3656            5 
  894000   0.96511223   -6.3191969    4141.9539            5 
  895000   0.95653729   -6.3380527    4141.8359           11 
  896000   0.94842063   -6.2954507    4137.9663           20 
  897000   0.96416156   -6.2952401    4126.0401           11 
  898000    0.9684167   -6.2982157    4137.5181            7 
  899000   0.98357808   -6.3506532    4127.4897            9 
  900000   0.97516456   -6.3208809    4123.0921            7 
  901000   0.98040058   -6.3063734     4131.031            5 
  902000   0.96479498   -6.2794372    4123.0522            7 
  903000   0.96664319   -6.3100764    4129.5493            7 
  904000   0.97998112   -6.3355117       4136.6            9 
  905000   0.96396781   -6.3500953    4137.6363           10 
  906000   0.95345799   -6.3244101    4154.1905           11 
  907000   0.95756492   -6.3240952    4115.0247            6 
  908000   0.95910379   -6.3488617    4123.5138            9 
  909000    0.9631765   -6.3337422    4117.3239            5 
  910000   0.98370496    -6.327396    4124.3479            6 
  911000   0.97991001   -6.3194696    4129.7609           12 
  912000   0.97327688   -6.3115136    4132.0323            8 
  913000   0.97977522    -6.313813    4112.5509            8 
  914000   0.97836401   -6.3305194    4137.6219            6 
  915000   0.97082903   -6.3448965    4120.8769           15 
  916000    0.9736903   -6.2969531    4133.8506            7 
  917000   0.96745113   -6.3279359    4136.7982           10 
  918000   0.95063774   -6.3441472    4117.4386            6 
  919000   0.98970871   -6.3692685    4128.8012            7 
  920000   0.96690979   -6.3471387    4128.2224            8 
  921000   0.96457049   -6.3303952    4137.2898           18 
  922000   0.94532733   -6.3274209    4148.0069            5 
  923000   0.95634088   -6.3093904    4131.0974            6 
  924000   0.98112378   -6.3199822    4135.0085            8 
  925000   0.94969753   -6.3183975      4140.01            6 
  926000   0.96118192   -6.3581511    4134.3531            5 
  927000   0.95258185   -6.3252796    4162.7326            7 
  928000   0.98694619   -6.3526044    4132.8712            8 
  929000   0.94970893   -6.3276829    4124.7427           10 
  930000   0.96387876    -6.309869    4129.5771           16 
  931000   0.98409515   -6.3169667    4133.7035            4 
  932000   0.94025156   -6.3115634    4130.6005            6 
  933000    0.9779636   -6.3230617    4133.8759           11 
  934000    0.9804176   -6.3044304    4136.7295           16 
  935000    0.9889213   -6.3178568    4126.2666            7 
  936000   0.97552064   -6.3244401    4137.8747            8 
  937000   0.98164159   -6.3368393    4130.8001            5 
  938000   0.98564705   -6.3273065    4119.9334           18 
  939000   0.96998299   -6.3042339    4129.8492            9 
  940000    0.9820695   -6.3667186     4116.504            9 
  941000   0.99208576   -6.3242544    4131.7781           10 
  942000   0.97783019   -6.2996102    4137.4082            8 
  943000   0.99768275   -6.3134432    4148.4514           11 
  944000   0.97265868   -6.2932554    4129.5082            4 
  945000   0.97558234    -6.328261    4128.6537           14 
  946000   0.97269219   -6.2972077    4126.1662            5 
  947000   0.95424452   -6.3088066    4121.9391           11 
  948000   0.98791399   -6.3312095    4140.5893            7 
  949000   0.96169206   -6.3840178    4113.5376            7 
  950000   0.95373354   -6.3303361     4136.074            7 
  951000   0.99947224   -6.3340323    4134.3939           20 
  952000   0.97847791   -6.3096223    4128.9382            6 
  953000    0.9930315    -6.299624    4139.3166           19 
  954000   0.97637009   -6.3459254    4126.2174            7 
  955000   0.98001221   -6.3147407    4129.6975            4 
  956000   0.94745045   -6.3291725    4135.3502            5 
  957000   0.97773693   -6.3173809    4128.3351            5 
  958000   0.97361128   -6.3322603    4139.7925            4 
  959000   0.96556935   -6.3360117    4120.5261            5 
  960000   0.94630988   -6.3211265    4135.4336            6 
  961000   0.97340937   -6.3247739    4131.8111           10 
  962000   0.96053916   -6.3030627    4123.6952           12 
  963000   0.96099308   -6.3492851    4136.2328            6 
  964000    0.9590845   -6.3050531    4126.6659            6 
  965000   0.98603355   -6.3099759    4139.8915           12 
  966000   0.97475891   -6.3273236    4123.1423           15 
  967000   0.98096325   -6.3170903    4131.6819           10 
  968000   0.97514587   -6.3381778    4127.8062           13 
  969000    0.9711472   -6.2937073    4128.8166            6 
  970000   0.95359179   -6.3376807    4123.1163            8 
  971000   0.96115732    -6.334292    4133.2531            5 
  972000   0.95725011   -6.3224527    4120.0276            7 
  973000   0.98099554   -6.3104878    4143.2698           10 
  974000   0.97459443   -6.3107059    4140.1244           12 
  975000   0.94169875   -6.3663488    4123.3258            8 
  976000   0.97697011   -6.3089999    4146.8164            9 
  977000      0.98217   -6.3128926    4131.1734            4 
  978000   0.96363028   -6.3508015    4107.8351           12 
  979000   0.95610189   -6.3713484    4127.9685           13 
  980000   0.96446049   -6.3128479    4132.7316           10 
  981000   0.99411314   -6.2925814    4134.3233            5 
  982000   0.97662129   -6.3236101    4126.9727            6 
  983000   0.95779465   -6.3447555    4135.1962            5 
  984000   0.97797869   -6.3382346    4118.5903            6 
  985000   0.98131884   -6.3590516    4125.9535            5 
  986000   0.96307749   -6.3048009     4122.994            4 
  987000   0.94516727    -6.332966    4126.7912           21 
  988000   0.97834961   -6.3343608    4118.2684            6 
  989000   0.96906454   -6.3455918    4133.6353            8 
  990000   0.94739118   -6.3030793    4128.3833            6 
  991000   0.96951108   -6.3033386    4140.8557            8 
  992000   0.96943723   -6.3080762    4126.1894           13 
  993000   0.96278115   -6.3176329    4144.7548            6 
  994000    0.9495937   -6.3352297    4123.9606            8 
  995000   0.96593875   -6.3465986    4119.2478           16 
  996000   0.94976515   -6.2873939    4148.7082            7 
  997000   0.96268173   -6.2854279    4140.9536            7 
  998000   0.97150205   -6.2930578    4135.6969           14 
  999000   0.97973503   -6.3732166      4136.91            4 
 1000000     0.978908   -6.3154404    4125.2201           11 
 1001000   0.98386396   -6.3221986    4133.5397            5 
 1002000   0.97592623     -6.31606    4131.8438            9 
 1003000   0.95207423   -6.3481038    4130.1158            4 
 1004000   0.95802543    -6.359303    4124.0656            8 
Loop time of 2115.18 on 48 procs for 1000000 steps with 4000 atoms

Performance: 81695.137 tau/day, 472.773 timesteps/s
99.4% CPU use with 48 MPI tasks x no OpenMP threads

MPI task timing breakdown:
Section |  min time  |  avg time  |  max time  |%varavg| %total
---------------------------------------------------------------
Pair    | 123.29     | 134.25     | 145.74     |  46.8 |  6.35
Neigh   | 14.383     | 14.613     | 14.952     |   2.9 |  0.69
Comm    | 117.62     | 126.76     | 136.06     |  36.9 |  5.99
Output  | 1.2842     | 1.2855     | 1.3036     |   0.2 |  0.06
Modify  | 1801.8     | 1815.3     | 1826.6     |  12.7 | 85.82
Other   |            | 22.98      |            |       |  1.09

Nlocal:        83.3333 ave          92 max          77 min
Histogram: 1 4 6 7 17 2 8 2 0 1
Nghost:        1606.77 ave        1627 max        1592 min
Histogram: 6 6 4 7 6 7 2 4 4 2
Neighs:        9242.33 ave       10193 max        8402 min
Histogram: 1 3 5 7 14 5 6 6 0 1
FullNghs:      18485.8 ave       20441 max       17102 min
Histogram: 5 1 6 14 8 2 9 2 0 1

Total # of neighbors = 887317
Ave neighs/atom = 221.82925
Neighbor list builds = 58816
Dangerous builds = 0

#clear
#
#next RN
#
#jump SELF
Total wall time: 0:35:16
