
units lj                  # Use reduced LJ style units
atom_style atomic         # Uncharged point particles
atom_modify map hash      # Needed for indexing of clusters etc
                          # Used to be able to find where atoms are in relation to each other.

lattice fcc 1.0 spacing 1 1 1
Lattice spacing in x,y,z = 1.5874011 1.5874011 1.5874011
region box block 0 10 0 10 0 10 units lattice
create_box 2 box
Created orthogonal box = (0.0000000 0.0000000 0.0000000) to (15.874011 15.874011 15.874011)
  3 by 4 by 4 MPI processor grid
create_atoms 1 box
Created 4000 atoms
  using lattice units in orthogonal box = (0.0000000 0.0000000 0.0000000) to (15.874011 15.874011 15.874011)
  create_atoms CPU = 0.003 seconds
set type 1 type/fraction 2 0.86 78393
Setting atom values ...
  3427 settings made for type/fraction
mass 1 1.0
mass 2 1.0
pair_style lj/cut  3.5
pair_modify tail  yes
pair_coeff 1  1  1.0  1.0   # Intearaction between 1 and 1 set with epsilon = 1 and sigma = 1
pair_coeff 1  2  1.5  0.8
pair_coeff 2  2  0.5  0.88

write_data data.0
System init for write_data ...
Neighbor list info ...
  update every 1 steps, delay 10 steps, check yes
  max neighbors/atom: 2000, page size: 100000
  master list distance cutoff = 3.8
  ghost atom cutoff = 3.8
  binsize = 1.9, bins = 9 9 9
  1 neighbor lists, perpetual/occasional/extra = 1 0 0
  (1) pair lj/cut, perpetual
      attributes: half, newton on
      pair build: half/bin/atomonly/newton
      stencil: half/bin/3d
      bin: standard
WARNING: Not all mixed pair coeffs generated from mixing. Use write_data with 'pair ij' option to store all pair coeffs. (../write_data.cpp:312)


#############################
#   M E L T   S Y S T E M   #
#############################

velocity all create 2.4 9580093 mom yes dist gaussian # Assign velocities
                                                    # Temperature 2.4, random number seed, zero linear momentum
                                                                                # Gaussian distribution

timestep 0.002   # simulation timestep
thermo 1000       # output thermodynamic data every 1000 steps bf 100

# Define a fix  in this case with index 1 applied to all
# particles in the simulation. This fix is for simulations
# in the anisotropic NPT ensemble. Note that we use the MTK
# correction.
fix 1 all npt temp 2.4 2.4 0.1 iso 5.68 5.68 0.5 mtk yes tchain 5 pchain 5 # Use NPT ensemble
                                                                         # Set temperature and pressure and damping
                                                                         # Numbers of thermostats in chain and in barostat
run 10000          # run for 10000 steps
Per MPI rank memory allocation (min/avg/max) = 3.642 | 3.644 | 3.648 Mbytes
Step Temp E_pair E_mol TotEng Press Volume 
       0          2.4   -3.3969599            0   0.20214005   -2.8933285         4000 
    1000     2.381064    -2.511303            0    1.0594001    5.8243763    3930.3912 
    2000    2.4098763   -2.5751899            0    1.0387209    5.7203236    3902.6116 
    3000    2.3603071   -2.6190828            0   0.92049266    5.6738627    3865.1194 
    4000    2.3847656    -2.528573            0    1.0476811    5.7687942    3927.3495 
    5000    2.4123206   -2.5541752            0    1.0634011    5.5540368    3943.4385 
    6000    2.4329755    -2.551037            0    1.0975139    5.9758291    3877.8019 
    7000    2.3709477   -2.5677135            0   0.98781889    5.6803328    3903.8358 
    8000    2.3612501   -2.6043157            0   0.93667398    5.5347068    3906.0395 
    9000    2.4341919   -2.5859281            0    1.0644469    5.6029836    3912.2875 
   10000    2.3887303   -2.5296822            0    1.0525175    5.8831771    3905.1979 
Loop time of 2.72747 on 48 procs for 10000 steps with 4000 atoms

Performance: 633553.324 tau/day, 3666.397 timesteps/s
99.5% CPU use with 48 MPI tasks x no OpenMP threads

MPI task timing breakdown:
Section |  min time  |  avg time  |  max time  |%varavg| %total
---------------------------------------------------------------
Pair    | 1.1168     | 1.1882     | 1.2686     |   3.6 | 43.56
Neigh   | 0.20983    | 0.21856    | 0.23012    |   1.0 |  8.01
Comm    | 0.83702    | 0.94141    | 1.0519     |   5.0 | 34.52
Output  | 0.00025726 | 0.00026161 | 0.00033039 |   0.0 |  0.01
Modify  | 0.29562    | 0.36373    | 0.4379     |   6.4 | 13.34
Other   |            | 0.01532    |            |       |  0.56

Nlocal:        83.3333 ave          94 max          70 min
Histogram: 2 0 4 5 6 12 5 7 4 3
Nghost:        1667.33 ave        1701 max        1638 min
Histogram: 4 2 5 5 14 5 4 5 1 3
Neighs:        9772.06 ave       11183 max        7731 min
Histogram: 1 1 2 5 7 7 7 11 3 4

Total # of neighbors = 469059
Ave neighs/atom = 117.26475
Neighbor list builds = 910
Dangerous builds = 243

# Equilibrate just above the melting temperature to avoid step fn in T

fix 1 all npt temp 1.25 1.25 0.1 iso 5.68 5.68 0.5 mtk yes tchain 5 pchain 5
run 2000
Per MPI rank memory allocation (min/avg/max) = 3.643 | 3.645 | 3.649 Mbytes
Step Temp E_pair E_mol TotEng Press Volume 
   10000    2.3887303   -2.5296822            0    1.0525175    5.8831771    3905.1979 
   11000    1.2249458   -3.7987139            0   -1.9617545    5.6453931    3023.9383 
   12000    1.2378077   -3.8237333            0    -1.967486     5.869118    3000.4522 
Loop time of 0.664267 on 48 procs for 2000 steps with 4000 atoms

Performance: 520272.746 tau/day, 3010.838 timesteps/s
99.5% CPU use with 48 MPI tasks x no OpenMP threads

MPI task timing breakdown:
Section |  min time  |  avg time  |  max time  |%varavg| %total
---------------------------------------------------------------
Pair    | 0.27259    | 0.30457    | 0.34929    |   3.0 | 45.85
Neigh   | 0.039847   | 0.042398   | 0.045871   |   0.7 |  6.38
Comm    | 0.21884    | 0.2658     | 0.30006    |   3.4 | 40.01
Output  | 5.3798e-05 | 5.502e-05  | 6.9236e-05 |   0.0 |  0.01
Modify  | 0.041809   | 0.046481   | 0.050475   |   1.1 |  7.00
Other   |            | 0.004961   |            |       |  0.75

Nlocal:        83.3333 ave          90 max          73 min
Histogram: 1 0 3 2 5 12 4 16 4 1
Nghost:        1993.25 ave        2025 max        1970 min
Histogram: 5 4 10 5 6 3 6 6 2 1
Neighs:        12749.1 ave       14446 max       10113 min
Histogram: 1 0 0 4 10 6 11 8 7 1

Total # of neighbors = 611956
Ave neighs/atom = 152.98900
Neighbor list builds = 143
Dangerous builds = 15

#############################
# L I N E A R  Q U E N C H  #
#############################

# Define solid atoms. This closely follows ten Wolde  Ruiz-Montero and Frenkel  Faraday Discuss  1996  104  93-110
# Compute components of the per-atom q6 vector
compute q6 all orientorder/atom degrees 1 6 components 6 nnn NULL cutoff 1.3 # compute the Q6 parameter.
                                                                             # Use all neighbours within 1.3 unit cell.

# get number of connections
compute coord_number all coord/atom orientorder q6 0.5

# An atom is solid if it has 8 or more connections (of a possible 14)
variable is_solid atom c_coord_number>=8
group solid dynamic all var is_solid    # Must be dynamic to update
dynamic group solid defined

# do clustering
compute cluster solid cluster/atom 1.3 # Create a cluster where all atoms within are solid and max 1.3 units from another member

# define chunks one chunk per cluster
compute clus_chunks solid chunk/atom c_cluster nchunk every compress yes  # Says which atoms are in which chunk

# count the size of each chunk
compute size_chunks solid property/chunk clus_chunks count


# Find the maximum entry in the vector of chunk sizes
variable max_n equal max(c_size_chunks)


# Thermo style which includes this variable
# thermo_style custom step temp pe vol v_max_n

thermo ${N}  # Print the thermo information every 100 steps
thermo 1000  

# Reset the npt fix at a lower temperature (below freezing)
fix 1  all npt temp  ${temp} ${temp}  0.1  iso  5.68  5.68  0.5  mtk yes tchain  5  pchain  5
fix 1  all npt temp  0.45 ${temp}  0.1  iso  5.68  5.68  0.5  mtk yes tchain  5  pchain  5
fix 1  all npt temp  0.45 0.45  0.1  iso  5.68  5.68  0.5  mtk yes tchain  5  pchain  5

dump dmp2 all dcd ${N} traj.dcd
dump dmp2 all dcd 1000 traj.dcd


compute msd all msd com yes
variable twopoint equal c_msd[4]/6/(step*dt+1.0e-6)
fix 9 all vector 10 c_msd[4]
variable fit equal slope(f_9)/6/(10*dt)
thermo_style custom step temp pe c_msd[4] v_twopoint v_fit v_max_n

fix 1 all npt temp 1.25 ${temp} 0.1 iso 5.68 5.68 0.5 mtk yes tchain 5 pchain 5
fix 1 all npt temp 1.25 0.45 0.1 iso 5.68 5.68 0.5 mtk yes tchain 5 pchain 5
run 5000000 # 5000000  # Run for this many steps
Neighbor list info ...
  update every 1 steps, delay 10 steps, check yes
  max neighbors/atom: 2000, page size: 100000
  master list distance cutoff = 3.8
  ghost atom cutoff = 3.8
  binsize = 1.9, bins = 8 8 8
  4 neighbor lists, perpetual/occasional/extra = 1 3 0
  (1) pair lj/cut, perpetual
      attributes: half, newton on
      pair build: half/bin/atomonly/newton
      stencil: half/bin/3d
      bin: standard
  (2) compute orientorder/atom, occasional
      attributes: full, newton on
      pair build: full/bin/atomonly
      stencil: full/bin/3d
      bin: standard
  (3) compute coord/atom, occasional
      attributes: full, newton on
      pair build: full/bin/atomonly
      stencil: full/bin/3d
      bin: standard
  (4) compute cluster/atom, occasional
      attributes: full, newton on
      pair build: full/bin/atomonly
      stencil: full/bin/3d
      bin: standard
Per MPI rank memory allocation (min/avg/max) = 9.828 | 9.834 | 9.840 Mbytes
Step Temp PotEng c_msd[4] v_twopoint v_fit v_max_n 
   12000    1.2378077   -3.8237333 3.9107779e-30 2.7158179e-32 8.3333333e+20            3 
   13000    1.2487834    -3.860574   0.91381276 0.0058577739  0.078563919            2 
   14000    1.2530475   -3.8141372    1.8425131   0.01096734  0.077651498            1 
   15000    1.2332732   -3.8275141    2.8261993  0.015701107  0.077887523            2 
   16000    1.2082516   -3.8248894    3.9261373  0.020448631  0.080310916            3 
   17000    1.2548157   -3.8091582    5.0270108  0.024642209  0.082961777            3 
   18000    1.2246029   -3.8204332    5.9634923   0.02760876  0.084365868            2 
   19000    1.2614934   -3.8333339    6.9423623  0.030448957  0.084679947            2 
   20000    1.2311946   -3.8278675    7.8150785  0.032562826   0.08388788            1 
   21000    1.2391992    -3.823227    8.8284504  0.035033532  0.083151203            1 
   22000    1.2446917   -3.8002916    9.8831096   0.03743602  0.082859371            1 
   23000    1.2458938   -3.7998245    10.749664  0.038948056  0.082582822            2 
   24000    1.2308283   -3.7925873     11.64733  0.040442117  0.082082195            2 
   25000    1.2593545   -3.8282022    12.505317  0.041684388  0.081572184            2 
   26000    1.2820469   -3.8474049    13.374631  0.042867406  0.080974131            4 
   27000    1.2736558     -3.86325    14.260104  0.044012666  0.080503421            3 
   28000    1.2527725   -3.8045646     15.19482  0.045222677  0.080071416            2 
   29000    1.2457921   -3.8133049    15.948947  0.045830307  0.079535653            2 
   30000    1.2716796   -3.8353852    16.885112  0.046903089  0.078960211            2 
   31000    1.2574548   -3.8054213    17.804552  0.047861698  0.078508562            1 
   32000    1.2490297   -3.7938798    18.786583  0.048923393  0.078114991            4 
   33000    1.2533856   -3.8116031    19.534199  0.049328786  0.077739788            2 
   34000    1.2509424   -3.8202667    20.279317  0.049704208  0.077332237            2 
   35000    1.2262369     -3.85614     21.17042  0.050405762  0.077001772            2 
   36000    1.2410781    -3.845078    22.085077  0.051122862  0.076758074            1 
   37000    1.2531902    -3.814791    23.180268  0.052207811   0.07653418            2 
   38000    1.2555474   -3.8392438    24.058176  0.052759157  0.076386617            1 
   39000    1.2390867   -3.8404209     24.99477  0.053407627  0.076328251            2 
   40000     1.227511   -3.8253583    25.931286  0.054023511   0.07625002            4 
   41000    1.2572417   -3.8260063    27.043619  0.054966704  0.076275911            2 
   42000    1.2317581   -3.8292127    27.977979  0.055511862  0.076349958            3 
   43000    1.2241209   -3.8007499    28.948322  0.056101399  0.076414172            1 
   44000    1.2675113   -3.8426869    29.847119  0.056528634  0.076458535            3 
   45000    1.2382863   -3.8331452    30.665102  0.056787224  0.076456231            1 
   46000    1.2548549   -3.8109828    31.313585  0.056727508  0.076403411            2 
   47000    1.2418723   -3.8535443    31.998323  0.056734615  0.076287493            2 
   48000    1.2641906   -3.8000434    32.961266  0.057224419  0.076087228            2 
   49000     1.227605   -3.7853457    33.929404  0.057703067   0.07594705            1 
   50000    1.2453641   -3.8339737    34.645526  0.057742543  0.075847942            1 
   51000    1.2381095   -3.8332192    35.475481  0.057966472  0.075736111            1 
   52000    1.2217117   -3.8064466    36.609941  0.058669776  0.075650539            1 
   53000     1.257898   -3.8466916    37.369581  0.058757203  0.075582791            1 
   54000    1.2380531    -3.815896    38.549528  0.059490011  0.075524775            3 
   55000    1.2190598   -3.8367983    39.573212  0.059959412  0.075522686            1 
   56000    1.2092148   -3.8159044    40.221808  0.059853881  0.075539327            1 
   57000    1.2547928   -3.8289501    41.160094  0.060175575  0.075537152       -1e+20 
   58000    1.2249964   -3.7742938     42.42591  0.060956766  0.075506899            1 
   59000    1.2464775   -3.8537751    42.984332  0.060712333  0.075495081            2 
   60000    1.2644353   -3.8474175    44.127703  0.061288476  0.075507915            3 
   61000    1.2543855   -3.8235363    45.183293   0.06172581  0.075542802            1 
   62000    1.2529306   -3.8339583    45.603028  0.061294391   0.07557575            1 
   63000    1.2610201   -3.8076522    46.744906  0.061831886  0.075587872            2 
   64000    1.2222121    -3.805982    47.736846  0.062157351  0.075590037            1 
   65000    1.2474026   -3.7903849    48.480624  0.062154645  0.075601684            3 
   66000    1.2449801   -3.8303557    49.359716  0.062322874  0.075600158            3 
   67000    1.2477697   -3.8150453    50.906135  0.063316088  0.075630623            1 
   68000    1.2203099   -3.8376962    51.734358  0.063399949  0.075693974            2 
   69000    1.2346831   -3.8247572    52.767643  0.063729037  0.075767743            2 
   70000    1.2066603   -3.8292567    53.515977  0.063709496  0.075812542            2 
   71000    1.2595907   -3.7859694    54.682162   0.06418094   0.07587352            2 
   72000     1.221749   -3.8295911    55.446531  0.064174225   0.07592353            2 
   73000    1.2670417   -3.8247448    56.519231   0.06451967  0.075983488            1 
   74000    1.2463384   -3.8417209    57.210133  0.064425825  0.076041562            8 
   75000    1.2340461   -3.8137643    58.126178  0.064584642  0.076073275            2 
   76000    1.2540399   -3.8380093     58.70797  0.064372774  0.076061257            3 
   77000    1.2479507   -3.8173015    59.948095   0.06487889  0.076068335            2 
   78000    1.2440458   -3.8468402    60.326978  0.064451899  0.076076978            3 
   79000    1.2462085   -3.8338399    61.544546  0.064920407  0.076068731            1 
   80000    1.2661672   -3.8293605    62.576845  0.065184213  0.076091658            1 
   81000     1.219889   -3.8293858    63.831385  0.065670149  0.076130727            1 
   82000    1.2490738    -3.838369    64.974551  0.066031047   0.07618787            1 
   83000    1.2035671   -3.8213656    65.810208  0.066074506  0.076256233            1 
   84000    1.2265293   -3.8709398    66.546208  0.066018063  0.076298796            1 
   85000    1.2384692   -3.8812748    67.584763  0.066259571  0.076345547            1 
   86000    1.2376132   -3.8308944    68.731921  0.066600698  0.076409087            3 
   87000    1.2304699   -3.8299926    70.215778  0.067256492  0.076482079            2 
   88000    1.2320614   -3.8591412    71.194799  0.067419317  0.076566472            3 
   89000    1.2435763   -3.8156723    71.821754  0.067248832   0.07663954            2 
   90000     1.230695   -3.8303097    72.706931  0.067321232  0.076691874            1 
   91000    1.2473231   -3.8361811    73.941284  0.067711799  0.076772727            5 
   92000    1.2277252   -3.8560746    74.726472  0.067687021  0.076843439            3 
   93000    1.2449485   -3.8177159    76.114918  0.068203331  0.076931357            1 
   94000    1.2547452   -3.8036287    77.334792  0.068559212  0.077028854            2 
   95000    1.2479188   -3.8073702    78.094711  0.068504132  0.077099689            3 
   96000    1.2546715    -3.823661    78.684123   0.06830219  0.077164214            3 
   97000    1.2575634   -3.8071124    79.438175  0.068245855  0.077228053            1 
   98000    1.2189437   -3.8451914    79.921591  0.067960536  0.077269696            1 
   99000    1.2242819    -3.865969    80.692051  0.067922601  0.077291311            2 
  100000    1.2175821   -3.8241285     82.18154  0.068484616  0.077313327            1 
  101000    1.2305009   -3.8217566    82.893608  0.068394066  0.077335257            3 
  102000    1.2598487   -3.8492327    83.543885  0.068254808  0.077351332            1 
  103000    1.1890571   -3.8249644    84.713062  0.068538076  0.077364126            3 
  104000    1.2336513   -3.8372087    84.970531  0.068085361  0.077367334            1 
  105000    1.2311884   -3.8593553    86.094054  0.068328614  0.077366607            2 
  106000    1.2331556   -3.7964759    87.938535  0.069134068  0.077377503            3 
  107000    1.2453186   -3.8380783    88.017019   0.06854908  0.077386543            2 
  108000    1.2342434   -3.8731745    88.452078   0.06825006  0.077363158            2 
  109000    1.2052919   -3.8654349    89.539259   0.06845509  0.077339867            2 
  110000    1.2201857   -3.8292111    90.140394  0.068288177  0.077301605            1 
  111000    1.2198314   -3.8157117    91.581708  0.068755036  0.077266131            2 
  112000    1.2140797    -3.819154    92.713396  0.068983182  0.077253676            3 
  113000    1.2296524   -3.8400557    93.414733  0.068889921  0.077244873            2 
  114000    1.2392721   -3.8475771    94.367555  0.068982131  0.077240719            3 
  115000    1.2521322   -3.8316135    95.647243  0.069309596   0.07723924            3 
  116000    1.1933573   -3.8470615    96.323557  0.069197957  0.077240094            2 
  117000    1.2827299     -3.83494    97.298568  0.069300974  0.077238796            2 
  118000    1.2202268   -3.8784444    97.628297  0.068946537  0.077236954            2 
  119000    1.2123724   -3.8257436    99.438686  0.069634934  0.077246654            1 
  120000    1.2354788   -3.8418898    100.79526  0.069996711  0.077259973            1 
  121000    1.2620687   -3.8333539    101.26209  0.069739733  0.077279495            1 
  122000    1.1979734    -3.872169    101.98447  0.069661521  0.077289902            2 
  123000    1.2233946    -3.846906    102.74409  0.069609814  0.077290474            1 
  124000    1.2369121   -3.8590074    104.02111  0.069906662  0.077294836            2 
  125000    1.2224324   -3.8375547    104.93155  0.069954365  0.077295566            2 
  126000    1.2332136   -3.8446464    105.46694  0.069753265  0.077286436            1 
  127000    1.2404365   -3.8445288    106.74259  0.070041066   0.07727555            1 
  128000    1.2693732   -3.8094219    108.41365  0.070581805  0.077283727            1 
  129000    1.2125431   -3.8285254    109.01977  0.070426206  0.077302758            1 
  130000    1.2445839   -3.8175612    110.29259  0.070700377  0.077316414            2 
  131000    1.2184281   -3.8310199    111.05863  0.070647984  0.077330905            2 
  132000     1.224647   -3.8389648    111.46484  0.070369214  0.077330225            4 
  133000    1.2086122   -3.8521661    111.50374  0.069864501  0.077319621            4 
  134000     1.217899   -3.8360494    113.39568  0.070519701  0.077307091            1 
  135000    1.2119785   -3.8592633    113.59518  0.070120484   0.07730064            1 
  136000    1.2340713   -3.8555136    115.29216  0.070644706  0.077290446            2 
  137000    1.2158598   -3.8749125    115.31912  0.070145448  0.077281458            6 
  138000    1.2365585   -3.8229683    116.60821  0.070415586  0.077275157            2 
  139000    1.2210628   -3.8738794    118.05303  0.070775199   0.07728412            2 
  140000    1.2379861   -3.8699529    118.97091  0.070816018  0.077292925            2 
  141000    1.2245729   -3.8407025     119.7149  0.070753486  0.077306607            1 
  142000    1.2167312    -3.846323    120.84431  0.070918021  0.077326877            2 
  143000    1.2401369   -3.8812441    121.76371  0.070957873  0.077343619            5 
  144000    1.2242041   -3.8615247    123.10502  0.071241331   0.07736888            2 
  145000    1.2336658   -3.8578237    124.72309  0.071679935  0.077392088            1 
  146000    1.2265632   -3.8652575    125.43025  0.071592606  0.077415087            2 
  147000    1.2119717    -3.831233    126.85652  0.071914128  0.077439047            2 
  148000    1.1817739   -3.8217332    127.17511  0.071607608  0.077466941            5 
  149000    1.2637975   -3.8463135    128.60069  0.071924323  0.077489082            1 
  150000    1.2252089   -3.8680634    129.62585  0.072014363   0.07751549            4 
  151000    1.2461514   -3.8673071      129.624  0.071536425  0.077541945            2 
  152000    1.2135782   -3.8320149     131.1144  0.071882897  0.077570355            2 
  153000    1.2383021    -3.860655    131.96625  0.071877041  0.077594441            2 
  154000    1.2290609   -3.8232062    133.62633   0.07230862  0.077627788            2 
  155000    1.2200246    -3.856002    134.65031  0.072392642   0.07766825            1 
  156000    1.2145804   -3.8274286    135.22497   0.07223556  0.077707174            3 
  157000    1.2503743   -3.8799319    136.55983  0.072483986  0.077738739            1 
  158000    1.2652129   -3.8398467     137.8818  0.072722467  0.077774738            2 
  159000    1.2477526    -3.851747    138.31976  0.072494634  0.077808802            3 
  160000    1.1965471   -3.8372064    140.70574  0.073284237  0.077845804            4 
  161000    1.2277438   -3.8460169    140.93549  0.072947976  0.077885918            1 
  162000     1.217885   -3.8643161    141.48926  0.072782542  0.077918956            2 
  163000    1.2167564   -3.8402535    142.26995   0.07273515  0.077950389            2 
  164000    1.2304454    -3.846807    143.63701  0.072986287  0.077978128            2 
  165000    1.2252779   -3.8971819    143.53286  0.072491346  0.078001844            3 
  166000    1.1720633   -3.8583206    144.47016  0.072525181   0.07802013            1 
  167000    1.2336356   -3.8509227    145.60272  0.072656047  0.078033509            1 
  168000    1.2213637   -3.8478996    146.44564  0.072641686  0.078045691            1 
  169000     1.211682   -3.8693823     146.7829  0.072378157  0.078060343            3 
  170000    1.2010205   -3.8639169    147.33759  0.072224306   0.07806693            2 
  171000    1.2154469   -3.8656834    147.89112  0.072071696  0.078071604            1 
  172000    1.2124882   -3.8463172    149.93293  0.072641922  0.078083873            1 
  173000    1.2087777   -3.8701327    151.01912  0.072745241  0.078094276            2 
  174000    1.2113919   -3.8324721    152.25877  0.072920865  0.078105477            2 
  175000    1.2075834   -3.8266362    152.92339  0.072820662  0.078125585            2 
  176000    1.1930986   -3.8216519    154.24314   0.07303179  0.078143624            1 
  177000    1.2379948   -3.8532353    155.42054   0.07317351  0.078160011            3 
  178000    1.2321811    -3.863486     156.0005  0.073033942   0.07817945            1 
  179000    1.2201732    -3.891107     157.2208  0.073194043  0.078193826            1 
  180000    1.2059577    -3.867523    157.69642  0.073007602  0.078214583            2 
  181000    1.2407845   -3.8544169    159.49844  0.073433903  0.078232473            2 
  182000    1.2299383   -3.8665056    160.07607  0.073294905  0.078253984            3 
  183000    1.2195991    -3.825501    161.04709  0.073336563  0.078269299            2 
  184000    1.1943444   -3.8065301    162.00897   0.07337363   0.07828675            1 
  185000    1.2180712   -3.8620141    162.55851  0.073224554  0.078301121            2 
  186000    1.2340425   -3.8830261    162.69586   0.07289241   0.07831239            4 
  187000    1.2302882   -3.8103555    164.16795  0.073158622   0.07831687            1 
  188000    1.2380658   -3.8784588    164.88883  0.073089018  0.078316249            1 
  189000     1.232587   -3.8545708     165.8254  0.073115256  0.078310812            3 
  190000    1.2177644   -3.8499608    166.22374  0.072905148  0.078302155            1 
  191000     1.211452   -3.8750102    167.05194   0.07288479  0.078296931            1 
  192000    1.2292886   -3.8241472    168.31002  0.073051223   0.07829467            4 
  193000    1.2203049   -3.8562116    169.39912  0.073142972  0.078297126            1 
  194000    1.2113266   -3.8413484    171.38679  0.073619755  0.078303701            2 
  195000    1.2245852   -3.8798295    171.15119  0.073141536  0.078318428            1 
  196000    1.2027522   -3.8735088    172.89182  0.073508427  0.078326885            2 
  197000    1.2174389    -3.867761    172.95568    0.0731623  0.078336962            3 
  198000    1.2135714   -3.9009075    174.19425  0.073314077  0.078345044            1 
  199000    1.2033439   -3.8469992    176.25209  0.073807407  0.078354447            2 
  200000     1.242496   -3.8511027     176.9513  0.073729707    0.0783657            1 
  201000    1.2271605    -3.880625    177.21392  0.073471775  0.078378999            5 
  202000    1.2248309   -3.8376504     179.0891  0.073881643  0.078385976            5 
  203000    1.2077933    -3.836374    179.64317  0.073745146  0.078396401            1 
  204000    1.2213392   -3.8576914    179.64608  0.073384835  0.078406542            4 
  205000    1.2321682   -3.8591729    181.09942   0.07361765  0.078416135            1 
  206000    1.2154391   -3.8842487    182.25955   0.07372959   0.07842128            1 
  207000    1.2006873   -3.8798338    184.11887  0.074121929  0.078428293            2 
  208000    1.2337245   -3.8604135    183.74381  0.073615307  0.078435109            1 
  209000    1.2292986   -3.8483431    185.07225  0.073792764  0.078441764            2 
  210000    1.2154192   -3.9022601    185.93946    0.0737855  0.078445676            3 
  211000    1.1845501   -3.8305012    187.40857  0.074016024  0.078446861            2 
  212000    1.2152442   -3.8866216    187.66836  0.073769011  0.078445787            3 
  213000    1.2192289   -3.8567666    189.21895  0.074029322  0.078446723            3 
  214000    1.1904329   -3.8679755    189.37888  0.073745669  0.078449979            2 
  215000    1.2180843   -3.8620294    189.93721  0.073619072  0.078447956            4 
  216000    1.2093544    -3.852381    190.23416  0.073392807  0.078441832            1 
  217000    1.2133112   -3.8707039    191.66684  0.073604776  0.078435671            2 
  218000    1.2123219   -3.8568381    191.65149  0.073261274  0.078428474            1 
  219000    1.2335282   -3.8706961    192.39721  0.073210508   0.07841809            5 
  220000    1.2064616   -3.8736084    194.27427   0.07358874   0.07840055            2 
  221000    1.2188074   -3.8910624    193.71011  0.073043029  0.078388073            1 
  222000    1.1951635   -3.8531703    195.83953  0.073513336  0.078375608            1 
  223000    1.2386144    -3.854799    196.31335  0.073360742  0.078364376            2 
  224000    1.1982291     -3.85814    196.61168  0.073144227  0.078353481            1 
  225000    1.2421179   -3.8467162    198.94364   0.07368283  0.078338596            2 
  226000    1.2380602   -3.8816668    198.56934  0.073218781  0.078324497            2 
  227000    1.1987236   -3.8555721    200.62184  0.073649719  0.078310609            2 
  228000    1.2150971   -3.8193199    201.42726  0.073621075  0.078300016            3 
  229000      1.20474   -3.8746413    201.80157  0.073435797   0.07829446            1 
  230000    1.2125021   -3.8294714    204.45572  0.074078159  0.078286327            2 
  231000    1.2149795   -3.8520955    204.14146  0.073644105  0.078276223            1 
  232000    1.2145433   -3.8694794    204.81159  0.073567381  0.078263922            1 
  233000    1.2146075   -3.8503707    206.16416  0.073735394  0.078254885            1 
  234000    1.2022736   -3.8654393    207.73065  0.073978151   0.07825347            2 
  235000     1.217491   -3.8949878    209.23419  0.074196522  0.078253137            1 
  236000    1.2099925   -3.8554833    209.67991  0.074039515  0.078252797            2 
  237000    1.2258066   -3.8960356    209.35827  0.073614018  0.078247286            2 
  238000    1.2178819   -3.8790478    210.38084  0.073662759  0.078238865            3 
  239000    1.2166635   -3.9036605    210.37156  0.073351311   0.07822763            5 
  240000    1.2290975   -3.8684024    212.56232  0.073806361  0.078216751            1 
  241000    1.1984922   -3.8776088    213.49689  0.073823268  0.078206665            2 
  242000    1.1982411   -3.8845349    214.83603  0.073979349  0.078198493            2 
  243000     1.223425   -3.8444528    215.64926  0.073953791  0.078190621            1 
  244000    1.2190887   -3.8711114    215.76597  0.073690565   0.07818409            2 
  245000    1.2061761   -3.8741542    216.54824  0.073655864  0.078177432            3 
  246000    1.2309056   -3.8714868    218.10744  0.073884634   0.07816561            3 
  247000     1.212982   -3.8855867      218.015  0.073554317   0.07815868            2 
  248000    1.2311713   -3.8599828    220.01964  0.073931331  0.078148666            1 
  249000    1.2266537   -3.8775249    220.74077  0.073875761  0.078135147            2 
  250000    1.2099637   -3.8848658     220.9527    0.0736509  0.078121788            1 
  251000    1.1935152   -3.8952401    222.99479  0.074035455  0.078113609            1 
  252000    1.2215617   -3.8769304    223.66256  0.073962488  0.078102214            2 
  253000    1.2079042   -3.8500079    224.74368  0.074026244  0.078091832            1 
  254000    1.2222539   -3.8711772    223.71883  0.073398567  0.078079832            3 
  255000    1.2342869   -3.8802444    225.42788  0.073669243  0.078065358            4 
  256000    1.2262951   -3.8293124    227.83488  0.074165001  0.078052756            1 
  257000    1.1761886   -3.8835294    228.58826  0.074120705  0.078043198            3 
  258000    1.2040454   -3.8534265    229.56768  0.074149769  0.078036956            3 
  259000     1.194957   -3.8640484    229.84336  0.073952175  0.078028262            2 
  260000    1.1914766   -3.8951596    230.27508  0.073806115  0.078019854            1 
  261000    1.2408707   -3.8662625    232.42191  0.074208785  0.078009364            3 
  262000    1.2076211   -3.8741733    231.51306  0.073636469  0.078000163            2 
  263000    1.2146635   -3.8526435    233.65751  0.074035965  0.077989733            2 
  264000    1.1997065   -3.8679707    233.90943  0.073835048  0.077976695            5 
  265000    1.2144231   -3.8849343    234.47487  0.073734236  0.077962483            1 
  266000    1.2181013   -3.9109219    236.24052  0.074010187  0.077950107            2 
  267000    1.2205337    -3.893068    236.05978  0.073676586  0.077937108            2 
  268000    1.2272719    -3.869818    237.74689  0.073926272   0.07792267            5 
  269000     1.169944   -3.8836967    238.59409  0.073913905  0.077911488            5 
  270000    1.1951254   -3.8949203    239.12146   0.07380292  0.077902043            2 
  271000    1.2178084   -3.8908004    239.80517  0.073740826  0.077892508            3 
  272000    1.1915889   -3.8331372    242.72365  0.074363864  0.077882399            4 
  273000    1.2007579   -3.8782944     242.5843   0.07404893  0.077873576            2 
  274000     1.209407   -3.8606912    243.05862  0.073922939  0.077861594            1 
  275000    1.1966828   -3.8732188    244.71073  0.074154766  0.077853021            1 
  276000    1.2063369   -3.8757252    246.25341  0.074351874  0.077846094            2 
  277000      1.22309    -3.879664    246.16296  0.074056246  0.077839014            3 
  278000    1.2196547   -3.8844807    245.89535  0.073709636  0.077829289            3 
  279000     1.202105   -3.8468503    248.44358  0.074206564  0.077817759            2 
  280000    1.2021345   -3.8618016    248.89584  0.074076143  0.077806714            3 
  281000    1.2291984   -3.9011725    249.93332    0.0741202  0.077795555            1 
  282000    1.2400909   -3.8823279    250.62123  0.074060648  0.077785794            2 
  283000    1.2280234   -3.8853325    250.86361  0.073870321  0.077773901            2 
  284000    1.2205974   -3.8460152    252.39971  0.074060947  0.077762048            1 
  285000    1.2139089   -3.8875881    252.15585  0.073729781  0.077750277            2 
  286000     1.189407   -3.8810269    253.81708  0.073956025  0.077737489            2 
  287000    1.2105885     -3.90531    253.89225  0.073720166  0.077727645            1 
  288000      1.21472    -3.881255    255.53548  0.073939663  0.077713412            2 
  289000    1.2098466   -3.8856508    255.93736    0.0737997  0.077698118            2 
  290000    1.2029977   -3.9029515    255.59448  0.073446688   0.07768266            2 
  291000    1.2003422   -3.8684036    257.70551  0.073798829  0.077667009            1 
  292000    1.2101735   -3.8791423    257.57159  0.073507874  0.077653978            2 
  293000    1.2464081   -3.8983649     259.5341  0.073815159  0.077639517            2 
  294000    1.2060491   -3.9002566    259.74192  0.073622994  0.077625999            5 
  295000    1.1935434   -3.8516818    262.81712  0.074242124  0.077615257            3 
  296000    1.2081276   -3.8696999    262.71267    0.0739619  0.077601198            1 
  297000     1.207012   -3.8845736    263.65244  0.073976555  0.077588165            3 
  298000    1.1881383   -3.8837062    264.99631  0.074104113  0.077576228            4 
  299000     1.209076   -3.8994753      265.299  0.073940635  0.077565199            3 
  300000    1.2181052   -3.8916674    266.05284  0.073903565  0.077552705            2 
  301000    1.1808173   -3.8854729    267.57302  0.074078909  0.077540608            1 
  302000    1.2018501   -3.8784858    268.80119  0.074172515   0.07752505            2 
  303000    1.2056798   -3.8858546    267.87562  0.073673162  0.077511979            3 
  304000     1.191022   -3.8936126    267.95199  0.073451751  0.077494228            2 
  305000     1.181549   -3.8627276    270.03654  0.073780477  0.077478807            2 
  306000     1.189963   -3.8984176     270.5549  0.073680527  0.077462393            2 
  307000    1.2122365   -3.8750104    272.22226  0.073893122  0.077448777            1 
  308000    1.1897879   -3.8733909     271.3129  0.073407168  0.077431579            3 
  309000    1.2116834   -3.9042206    273.68179  0.073808464   0.07741546            1 
  310000    1.1861511   -3.8992645    273.82906  0.073609961   0.07739737            1 
  311000    1.2337451    -3.855336    275.69883  0.073874285  0.077381496            2 
  312000    1.1757073   -3.9213243    275.97448  0.073711133  0.077366948            5 
  313000    1.2249248   -3.8878253    278.69142  0.074198992  0.077353715            2 
  314000    1.2178505    -3.863465    280.16585  0.074353993  0.077343135            2 
  315000    1.2017106   -3.8873074    279.59249  0.073966268  0.077334932            2 
  316000    1.2146576   -3.9102422    279.83694  0.073796662  0.077325953            3 
  317000    1.1993551   -3.8990352    281.43963  0.073985181  0.077315634            1 
  318000    1.2228955   -3.8491714    283.49613  0.074291438  0.077305178            2 
  319000    1.1880623    -3.889211    283.57998  0.074080455  0.077294527            3 
  320000    1.2211125   -3.9018777    283.47436  0.073821448  0.077282375            1 
  321000    1.2281771   -3.8854984    283.18355  0.073515979   0.07726927            1 
  322000    1.1866947   -3.8703096    284.82583  0.073712689  0.077256166            2 
  323000     1.212967   -3.8719049    287.19997  0.074096998  0.077242535            2 
  324000    1.2196522   -3.8895026    287.79242  0.074020684  0.077230362            3 
  325000     1.178419    -3.893861    288.40113  0.073949007  0.077219642            1 
  326000    1.2194042   -3.8734334    289.35828   0.07396684  0.077204978            2 
  327000    1.2249561   -3.8894201    289.28878   0.07372293  0.077194174            4 
  328000    1.1923907   -3.8911097    290.60037  0.073831394  0.077182564            1 
  329000    1.1915803   -3.8916883    290.29417  0.073529425  0.077167082            2 
  330000    1.1969244   -3.8994678    291.76746  0.073678652  0.077151896            2 
  331000    1.2102502   -3.9028787    292.98924  0.073763655  0.077136318            1 
  332000    1.1863892    -3.928888    292.41905  0.073398355  0.077119622            2 
  333000    1.1914775   -3.8826984    294.21507  0.073627396  0.077103042            1 
  334000    1.2140123   -3.9257706    295.96928  0.073844631  0.077088866            2 
  335000    1.1829972   -3.9485017    296.51985  0.073761156  0.077071787            1 
  336000    1.2050202   -3.8648167    297.67354  0.073827763  0.077057844            2 
  337000    1.2068152   -3.8993527    299.98364  0.074179931  0.077047237            2 
  338000    1.2102893    -3.891154    300.65052  0.074124881  0.077034967            2 
  339000    1.1970245    -3.828493    302.42611  0.074342702  0.077023676            2 
  340000    1.2050938   -3.8683242    303.53896  0.074396803   0.07701604            2 
  341000     1.200816   -3.8879174    305.80579  0.074732597    0.0770114            2 
  342000    1.1974314   -3.9563701    304.09932  0.074098274  0.077004023            2 
  343000    1.1882647   -3.8953643    305.43049  0.074205659  0.076999516            5 
  344000    1.2078791    -3.888553     305.6869  0.074052059  0.076993526            2 
  345000    1.1753346   -3.8906091    308.05478  0.074409367  0.076987626            2 
  346000     1.200387   -3.8983582    308.43956  0.074286986  0.076981679            3 
  347000    1.1960284   -3.9241165    308.41075  0.074065983  0.076977103            3 
  348000    1.1994835   -3.8925646    310.15934  0.074271872  0.076971435            2 
  349000    1.2112249    -3.899225    312.13554  0.074530932  0.076967184            2 
  350000    1.1991418   -3.9072729    312.13143  0.074317008   0.07696312            2 
  351000    1.2177222    -3.894068    314.74507  0.074725799  0.076960192            1 
  352000    1.1983029   -3.8779366     314.6566  0.074492566  0.076959954            3 
  353000    1.1876526   -3.9354689    314.59534  0.074267077  0.076959778            1 
  354000    1.1851992   -3.8817716    316.78448  0.074572617  0.076957409            2 
  355000    1.1974155    -3.907351    316.94502   0.07440024  0.076956431            4 
  356000    1.1860751   -3.9223034    318.79821   0.07462505  0.076957402            2 
  357000     1.194111   -3.8996939    318.10628    0.0742545  0.076958449            2 
  358000    1.2021296   -3.8700954    320.46747   0.07459671  0.076960235            2 
  359000    1.2150711   -3.9034612    322.04792  0.074755784  0.076962679            6 
  360000    1.2038938   -3.8896779     322.2586  0.074596898  0.076962698            3 
  361000    1.2061244   -3.9072086    323.15209  0.074596512  0.076961583            2 
  362000    1.1835928   -3.8865753    323.41693  0.074451411  0.076959461            2 
  363000    1.1944821   -3.8777748    326.09975  0.074862201  0.076959309            1 
  364000    1.1982328   -3.9128193    325.73862   0.07457386  0.076959585            2 
  365000     1.189986   -3.8982546    327.18625  0.074700056   0.07695952            2 
  366000    1.1834458   -3.8972114    327.52022     0.074572   0.07695951            1 
  367000    1.1832072   -3.9126037     328.1747  0.074517415  0.076960774            2 
  368000    1.1996711   -3.9216292    329.69706  0.074659661  0.076960731            3 
  369000    1.2013662   -3.9080152    330.09702  0.074547656  0.076956769           10 
  370000    1.1916636   -3.8900861    330.74664  0.074492487  0.076954569            1 
  371000    1.1912301   -3.8521559    332.27104  0.074634106  0.076951026            3 
  372000    1.1972954   -3.9206487    331.86106  0.074341636  0.076949419            1 
  373000    1.1923911   -3.8862929    333.78727  0.074572669  0.076944492            2 
  374000     1.177455   -3.9430934    334.01551  0.074424132   0.07694296            2 
  375000     1.178766   -3.8868343    335.35058  0.074522352   0.07694264            4 
  376000    1.1994465   -3.8889679    335.81871  0.074427905  0.076942219            2 
  377000    1.2201413   -3.8709834    338.40507  0.074802182  0.076938487            1 
  378000     1.201097   -3.8974546    340.25468  0.075012055  0.076935516            3 
  379000    1.2012879   -3.9031242    339.29141  0.074602334  0.076934313            2 
  380000     1.225682   -3.9060156    339.83691  0.074525639  0.076932612            1 
  381000    1.2203617    -3.901108    340.67667  0.074513707  0.076930818            1 
  382000    1.1961614   -3.8925782    343.20823  0.074870905  0.076930037            3 
  383000    1.2138914   -3.9008378    344.45866   0.07494749  0.076931282            2 
  384000    1.1895265   -3.9013049    343.67272  0.074581754  0.076933298            4 
  385000      1.17593   -3.9213608     343.9365   0.07444513  0.076935208            2 
  386000    1.1826473   -3.9179622    346.40006  0.074784123  0.076936417            2 
  387000     1.181362   -3.9207783    347.73605  0.074878563  0.076935428            2 
  388000    1.1788136   -3.9153809     348.8745   0.07493009  0.076935728            3 
  389000    1.1769843   -3.8875952    349.52695  0.074877239  0.076937551            3 
  390000    1.1791958   -3.9066987    350.63196  0.074921359  0.076938077            4 
  391000     1.176896   -3.9251341     350.6779  0.074739535  0.076936722            3 
  392000    1.2065513   -3.8929664    352.17587   0.07486732   0.07693588            2 
  393000    1.2077037   -3.9137058    352.10526  0.074661845  0.076936462            2 
  394000    1.1603596    -3.919504    352.47285  0.074550096  0.076936174            2 
  395000    1.1940374   -3.9049863     354.6642  0.074823671  0.076935485            2 
  396000    1.2003799   -3.9129569    354.36667  0.074572111  0.076933782            3 
  397000    1.1729357   -3.9082282    357.58824  0.075060504  0.076934181            3 
  398000    1.1816708   -3.9111219    357.16237  0.074782741  0.076936313            2 
  399000    1.1809588   -3.9061565    357.07936  0.074577978  0.076936727            2 
  400000    1.1966717   -3.9047637    359.17266  0.074827637  0.076937121            1 
  401000    1.2058044    -3.889206    361.09085  0.075039662  0.076938809            4 
  402000    1.1716753   -3.9013042     360.4729  0.074724896  0.076938753            2 
  403000    1.2151743   -3.8748173    362.05937  0.074867529  0.076936623            1 
  404000    1.2054136   -3.9066603    362.42871  0.074758398  0.076934289            7 
  405000    1.1955691   -3.9397982    361.32951  0.074347636  0.076930599            1 
  406000    1.1880211   -3.9256154    363.20554  0.074549578  0.076926583            2 
  407000    1.1901128    -3.897945    364.41468   0.07461398  0.076922599            1 
  408000    1.2144796   -3.8968258    364.51551  0.074451698  0.076918251            5 
  409000    1.2075649   -3.9272523    367.92485  0.074964312  0.076916416            2 
  410000    1.1976515    -3.902163    368.50774  0.074899947  0.076914696            2 
  411000    1.1907732   -3.9227236     368.8074  0.074778467  0.076910181            3 
  412000    1.1874684   -3.9186147    368.52768  0.074540388  0.076907926            2 
  413000    1.2010627   -3.9280231    367.99134  0.074251683  0.076902319            1 
  414000    1.1999034   -3.9215551    368.58612  0.074192052  0.076895078            2 
  415000    1.1639325   -3.9035902    370.80274  0.074458381  0.076889753            2 
  416000    1.1922617   -3.9084808    371.42346  0.074403737  0.076883255            3 
  417000     1.190147    -3.901049    372.25984  0.074392455  0.076875929            4 
  418000    1.1926858   -3.9183609    372.65465  0.074293193  0.076868088            3 
  419000    1.1755503   -3.9220256    375.06706  0.074595676  0.076860377            3 
  420000    1.1765167   -3.9233331    376.47075  0.074696577  0.076852311            1 
  421000    1.1955289   -3.8601367    374.71952   0.07417251   0.07684361            1 
  422000    1.1882947   -3.9085933    376.85074  0.074417603   0.07683728            1 
  423000    1.1815586   -3.9112374    378.32677   0.07453246  0.076829212            2 
  424000    1.1723397   -3.9206252    380.26063  0.074736759  0.076824811            2 
  425000    1.1758341   -3.9046915    380.48923  0.074605732  0.076821461            2 
  426000    1.1665832   -3.8729327     383.3083  0.074982061  0.076819672            1 
  427000    1.1758007   -3.9209159    381.54203  0.074461754  0.076817242            1 
  428000    1.2051161   -3.9153405     383.4755  0.074664233  0.076814661            1 
  429000    1.1974655   -3.9333726    384.87873  0.074762768   0.07681119            1 
  430000    1.1706638   -3.8867649    386.21845  0.074848536  0.076807427            4 
  431000    1.1729998   -3.9069824    386.52545  0.074734232  0.076802815            4 
  432000    1.2020781   -3.9030601    386.76776  0.074607978  0.076800545            1 
  433000    1.1680968   -3.8848965    388.32995  0.074736326  0.076799065            3 
  434000     1.198039   -3.8929701    390.67318  0.075014051  0.076795988            4 
  435000    1.1651432   -3.9336364    388.86575  0.074495355  0.076793894            1 
  436000    1.1670166   -3.8985918    392.22692  0.074966919  0.076791763            2 
  437000    1.1655396   -3.9639668    389.91783  0.074355039  0.076790437            2 
  438000    1.1774067   -3.9199354    391.87374  0.074557409   0.07678708            2 
  439000    1.1948816    -3.935151    392.17598  0.074444946  0.076784657            3 
  440000    1.1800764   -3.9021191    393.63974  0.074552981  0.076780387            1 
  441000    1.1854369   -3.9098667    396.14224  0.074856811  0.076778205            1 
  442000    1.1576159   -3.8728558    396.96784  0.074843106  0.076777022            2 
  443000    1.1705336   -3.8937852    397.31521  0.074739506  0.076774303            4 
  444000    1.2096923   -3.9057323    396.79941  0.074474364   0.07677101            3 
  445000    1.1728635   -3.9314033    400.07811  0.074920994   0.07676951            2 
  446000    1.2041814   -3.9107663    401.23419  0.074969019  0.076769047            3 
  447000    1.1652124   -3.9170341    400.52896  0.074669829  0.076767698            2 
  448000      1.18832   -3.9102397    402.14834  0.074804378  0.076765169            2 
  449000    1.1916684   -3.8890469    404.14405  0.075008175  0.076765071            4 
  450000    1.1563812   -3.9038782    406.05057   0.07519455  0.076766147            3 
  451000    1.1732397   -3.9111042    407.49996  0.075295632  0.076767512            1 
  452000    1.1828217   -3.8938403    407.68873  0.075163851   0.07676956            4 
  453000    1.2098337   -3.9326309    407.46463  0.074956702  0.076771549            1 
  454000    1.1713035   -3.8886209      409.664  0.075195301  0.076774687            1 
  455000    1.1638733   -3.8955971    411.17512  0.075306798  0.076776228            4 
  456000     1.156194   -3.9370551      411.165  0.075139802  0.076777492            2 
  457000    1.1459124   -3.9544523    411.65364  0.075064486  0.076778097            2 
  458000    1.1744835   -3.9340842    412.27703  0.075014016  0.076777633            2 
  459000    1.1729026   -3.9090303    413.53438  0.075078863   0.07677762            2 
  460000    1.1939992   -3.8783037     416.4252  0.075439349  0.076779264            2 
  461000    1.1726931   -3.8946386    416.22928  0.075240289  0.076782832            1 
  462000    1.1916973   -3.9336291    414.54935  0.074774413  0.076783096            2 
  463000    1.1809687   -3.9173277    415.45877  0.074776596  0.076781054            3 
  464000     1.185502    -3.936125    417.72499  0.075022449  0.076778576            2 
  465000    1.1978728   -3.9111489    418.59019  0.075016162   0.07677873            3 
  466000     1.213817   -3.9412827    418.71148  0.074876874  0.076778966            2 
  467000    1.1931334   -3.9543339    419.09889  0.074785668  0.076778349            1 
  468000    1.1658667   -3.9373802     421.3754  0.075031232  0.076777868            8 
  469000    1.1963388   -3.9135224    422.83861  0.075131239  0.076774872            2 
  470000    1.1922786   -3.9000958    421.64009  0.074758881   0.07677396            7 
  471000    1.1625691   -3.9247849    422.48331  0.074749347  0.076772613            2 
  472000    1.1492984    -3.959578    423.95344  0.074850537  0.076772069            5 
  473000    1.1653645   -3.9545883    426.67499  0.075171775  0.076771111            3 
  474000    1.1568855   -3.9289595    426.39163  0.074963367  0.076771131            3 
  475000     1.188312      -3.9008    428.46896  0.075169993  0.076771812            4 
  476000    1.2039549   -3.9328791    429.55655  0.075202477  0.076773695            1 
  477000    1.1710257   -3.9544388    428.42774  0.074847614  0.076773545            3 
  478000    1.2023907     -3.90443    431.31793  0.075194896  0.076772765            2 
  479000    1.1787674   -3.9020761    430.02135  0.074812344  0.076771955            2 
  480000    1.1441018   -3.9386247    432.44399  0.075077082  0.076772221            2 
  481000    1.1903141   -3.9894874    430.85281  0.074645324  0.076769542            2 
  482000    1.1756754   -3.8898392    432.85551  0.074836707  0.076764443            4 
  483000    1.1914397   -3.9273416    432.31188   0.07458797  0.076761016            1 
  484000    1.1538739   -3.9338274    435.73514  0.075023267  0.076757871            2 
  485000    1.1531531   -3.9325678    436.86244  0.075062275  0.076754131            4 
  486000    1.1834827   -3.9355945    435.00535  0.074589395   0.07675084            1 
  487000    1.1975558   -3.9341482    436.05461  0.074615779  0.076747335            1 
  488000    1.1765653   -3.9198767    437.21778  0.074661507  0.076741804            2 
  489000    1.1712521   -3.9332365    437.15145  0.074497521  0.076736475            5 
  490000    1.1783487   -3.9397084    441.02051  0.075003487   0.07673215            3 
  491000    1.1794861   -3.9319161    438.55433  0.074432168  0.076728154            1 
  492000    1.1636039     -3.97329    439.28136  0.074404024  0.076721257            2 
  493000    1.1721063    -3.962228    440.05571  0.074383995  0.076715282            2 
  494000    1.2009421   -3.9187021    441.95309   0.07455349  0.076710064            2 
  495000    1.1600883   -3.9014866    444.59656  0.074847906    0.0767055            2 
  496000     1.148345   -3.9021219    442.98047  0.074425482  0.076698959            3 
  497000    1.1675685   -3.9074127    444.00092  0.074446834  0.076690457            2 
  498000    1.1584998   -3.9449842    444.92988  0.074452792  0.076682618            2 
  499000    1.1442772   -3.9184454    445.64275  0.074422637  0.076674967            2 
  500000    1.1574318   -3.9706734    445.30298  0.074217163  0.076666098            4 
  501000    1.1861858   -3.9280968     447.1281  0.074372605  0.076656014            6 
  502000    1.1599098   -3.9604628    446.03366  0.074042772  0.076645518            2 
  503000    1.1767237   -3.9484022    446.86309  0.074032984  0.076633642            1 
  504000    1.1571327   -3.9267605    449.39563  0.074304834  0.076622926            2 
  505000    1.1744591   -3.9452913    449.24023  0.074132052  0.076611409            2 
  506000     1.201193   -3.9382502    450.13997  0.074133723  0.076598943            2 
  507000    1.1782792   -3.9248119    452.01756  0.074296114   0.07658772            2 
  508000     1.188703   -3.9158938    452.85398  0.074287071  0.076575414            4 
  509000    1.1468784   -3.9393088    450.61198  0.073774063  0.076562035            1 
  510000    1.1846801   -3.9476368    452.46311   0.07393188  0.076549154            2 
  511000    1.1719264   -3.9680524    452.77017  0.073837275  0.076536096            2 
  512000    1.1815413   -3.9367283    454.62132  0.073994355  0.076522035            2 
  513000    1.1868992   -3.9124852    455.42022  0.073979892  0.076508469            2 
  514000     1.145913   -3.9274044    455.90462  0.073914497  0.076493808            1 
  515000    1.1724218   -3.9598697    455.95053  0.073778403  0.076476934            2 
  516000    1.1593573   -3.9395376    455.94938  0.073635236  0.076459511            6 
  517000    1.1550765   -3.9334264    456.05827  0.073510359  0.076441782            2 
  518000    1.1525174   -3.9718028    457.27149  0.073563625  0.076425591            2 
  519000    1.1646551    -3.922764    458.65487  0.073644005  0.076407848            4 
  520000    1.1771895   -3.9279573    455.97729  0.073073283  0.076389759            3 
  521000    1.1731363   -3.9506443    460.32776   0.07362888   0.07637262            1 
  522000    1.1522432   -3.9229594    459.35812  0.073333033  0.076355976            4 
  523000    1.1669491    -3.968264    459.02791  0.073140202  0.076337862            3 
  524000    1.1520051   -3.9455641    462.79784  0.073600165  0.076319541            2 
  525000    1.1769105   -3.9615472    461.46385  0.073248231  0.076301246            2 
  526000    1.1898382   -3.9491931    462.95506  0.073345226  0.076280289            3 
  527000    1.1601825   -3.9563299    463.50733  0.073293379   0.07626287            3 
  528000    1.1691909   -3.9086405    464.95536  0.073383106  0.076244642            4 
  529000    1.1710648   -3.9457083    465.10257  0.073267576  0.076226499            2 
  530000    1.1555028   -3.9262561    466.04427  0.073277401  0.076208057            1 
  531000    1.1514852   -3.9636537    466.74266  0.073249005   0.07618789            2 
  532000    1.1539552   -3.9311017    469.64255  0.073565563  0.076167854            3 
  533000    1.1721648   -3.9529139    467.69744  0.073123426  0.076148601            2 
  534000    1.1806565    -3.902217    470.54189  0.073430382  0.076129312            3 
  535000    1.1527872   -3.9760307    465.90832  0.072571389  0.076109654            5 
  536000    1.1550255    -3.909946    470.55463  0.073158369  0.076089216            2 
  537000    1.1662619   -3.9994752    470.92214  0.073079165   0.07607022            2 
  538000    1.1691807   -3.9332017    474.19421  0.073450157  0.076051937            2 
  539000    1.1427864   -3.9369986    473.36066  0.073185012  0.076032542            3 
  540000      1.14787   -3.8989203    476.31226  0.073504978  0.076015328            2 
  541000    1.1625131   -3.9519888    475.52472  0.073247801  0.075998274            2 
  542000    1.1886743   -3.9586261    476.62463   0.07328177  0.075980454            2 
  543000    1.1823078   -3.9461397    476.19877  0.073081456  0.075963627            2 
  544000    1.1555688   -3.9611529     478.4432  0.073290931  0.075945874            1 
  545000    1.1464206   -3.8932381    477.82939  0.073062598  0.075927574            1 
  546000    1.1558771   -3.9394664    479.40245  0.073168872  0.075909681            1 
  547000    1.1747972   -3.9531174    478.00804  0.072822674   0.07589118            1 
  548000    1.1783406   -3.9298858    481.10024  0.073160012  0.075873302            2 
  549000    1.1626624   -3.9710826    481.14109  0.073032953  0.075855783            1 
  550000    1.1677481   -3.9414095    482.50568  0.073106921  0.075837149            2 
  551000    1.1315065   -3.9795566     482.9788  0.073045796  0.075819231            1 
  552000    1.1462801   -3.9231839     484.9868  0.073216606  0.075800667            3 
  553000    1.1587843   -3.9691533    485.93728  0.073227438  0.075782447            6 
  554000    1.1598694   -3.9511636    486.26935  0.073145209  0.075764399            4 
  555000     1.166818   -3.9492873    486.93329  0.073113106  0.075746738            2 
  556000    1.1609618    -3.944841    489.35112  0.073343993   0.07572978            1 
  557000    1.1666268   -3.9648796    487.88206  0.072992529  0.075712295            2 
  558000    1.1787328   -3.9497184    488.44741  0.072946148   0.07569414            2 
  559000    1.1505703   -3.9342864    491.21774  0.073228644  0.075678771            2 
  560000    1.1597103   -3.9183405    491.67778  0.073166336  0.075663539            2 
  561000    1.1682039   -3.9451149      491.106   0.07295098  0.075647718            4 
  562000    1.1414031   -3.9630176    493.83062  0.073225181  0.075632057            2 
  563000     1.153368   -3.9442781    494.42172  0.073182611  0.075617193            3 
  564000    1.1646606   -3.9568529    494.66821  0.073089275   0.07560229            1 
  565000    1.1479728   -3.9521945    496.90327  0.073289567  0.075588035            1 
  566000    1.1565526   -3.9523776     498.1595  0.073345038  0.075572548            3 
  567000    1.1593847   -3.9443127    497.85583  0.073171051  0.075556552            2 
  568000    1.1515576   -3.9598388    499.00851  0.073211342  0.075539316            2 
  569000    1.1631197   -3.9527526    499.10999  0.073097538  0.075523519            3 
  570000    1.1592581   -3.9610213    498.31325  0.072852814  0.075508207            2 
  571000    1.1809358   -3.9024527    502.49516  0.073335546  0.075493655            3 
  572000    1.1622069   -3.9321229    501.27087  0.073028973  0.075479339            2 
  573000    1.1406975   -3.9208229    502.56885  0.073090292  0.075463541            4 
  574000    1.1687478    -3.967165    501.93115  0.072870376  0.075447159            3 
  575000    1.1734498   -3.9589843    501.86017  0.072733358  0.075431227            4 
  576000    1.1734459   -3.9579763    505.64429  0.073154556  0.075416255            4 
  577000    1.1462549   -3.9629414    506.76676  0.073189884  0.075402256            2 
  578000    1.1822198   -3.9804112    507.10012  0.073111321  0.075386827            2 
  579000    1.1581414   -3.9489367    509.89724  0.073387628  0.075372102            3 
  580000    1.1638235   -3.9818366    509.06032  0.073140851  0.075358312            2 
  581000    1.1910661   -3.9975456    510.15748   0.07317233  0.075343063            2 
  582000    1.1684664   -3.9570235     510.5346  0.073100601  0.075329069            3 
  583000    1.1648516   -3.9705816    510.92579   0.07303113  0.075314764            2 
  584000    1.1570618   -3.9556246    512.97135  0.073197966  0.075301953            2 
  585000     1.155309   -3.9625785    512.79226   0.07304733  0.075287889            1 
  586000    1.1444508   -3.9498845     514.1647  0.073117846  0.075275315            2 
  587000    1.1330704   -3.9419918    515.55109  0.073190104  0.075261885            2 
  588000    1.1653875   -3.9542133    516.24269  0.073163646  0.075249132            4 
  589000    1.1696384   -3.9671459    516.54709  0.073082497  0.075236815            3 
  590000    1.1381559   -3.9676552    518.22632  0.073195808  0.075223811            1 
  591000    1.1407677   -3.9556778    518.04462  0.073046337  0.075210032            4 
  592000    1.1575529   -4.0007666    515.69919  0.072592792  0.075196646            3 
  593000    1.1606099   -3.9523623    520.43191  0.073135456  0.075180789            2 
  594000    1.1682289    -3.944744    520.79015  0.073062591  0.075167144            2 
  595000    1.1598932   -3.9856019    518.81466  0.072663118   0.07515366            3 
  596000    1.1599799   -3.9240364    522.80069   0.07309853  0.075140611            2 
  597000    1.1698086   -3.9483807    522.57083  0.072944003  0.075127868            2 
  598000    1.1929009   -3.9509836    525.64415    0.0732503  0.075116566            1 
  599000    1.1604759   -3.9592898    524.65288  0.072990106   0.07510354            1 
  600000     1.169358   -3.9840948    522.27429  0.072538096  0.075089068            2 
  601000    1.1678441   -3.9546716    527.20282  0.073100779  0.075075208            2 
  602000    1.1613842   -3.9298257    527.40574   0.07300744  0.075061277            3 
  603000    1.1355545   -3.9796368    525.35041  0.072602322  0.075047409            3 
  604000    1.1479269   -3.9300962    529.06445  0.072994543    0.0750325            2 
  605000    1.1586958   -3.9138563    528.48166  0.072793617    0.0750169            2 
  606000    1.1519207   -3.9841639     528.1921  0.072633677  0.075002049            2 
  607000    1.1497637   -3.9845433    528.80123  0.072597643  0.074987133            2 
  608000    1.1301915   -3.9356248    531.61409  0.072863773  0.074972532            2 
  609000    1.1496328   -3.9655749    529.98682  0.072521458  0.074958101            1 
  610000    1.1486867   -3.9718269    532.13423  0.072695933  0.074943072            2 
  611000    1.1258108    -3.954622     532.7828  0.072665412   0.07492745            2 
  612000    1.1630863   -3.9600497    531.84406  0.072418853  0.074911999            2 
  613000    1.1678485   -3.9710982    532.82917  0.072434635  0.074895214            1 
  614000    1.1199719   -3.9964178    532.55243  0.072279103  0.074879467            3 
  615000    1.1263111   -3.9759342    534.37051  0.072407929  0.074862551            1 
  616000    1.1530135   -3.9747757    534.99049  0.072374255  0.074847356            1 
  617000    1.1367257   -3.9180101    541.79522  0.073176015  0.074832692            2 
  618000     1.196403   -3.9249169    540.66577  0.072905309  0.074819518            3 
  619000    1.1505891   -3.9664107    541.40851  0.072887522  0.074804945            3 
  620000    1.1539636   -3.9673264    540.79544  0.072687559  0.074791368            3 
  621000    1.1461501   -3.9588636     540.3133   0.07250581  0.074777221            1 
  622000    1.1621223   -3.9601057    543.81727  0.072858691  0.074762426            6 
  623000    1.1686122   -3.9618225    543.25097  0.072665993  0.074747637            2 
  624000    1.1675441   -3.9675503    543.73433  0.072614093  0.074734426            3 
  625000    1.1390366   -3.9204782    547.65481  0.073020641  0.074721339            3 
  626000    1.1357073    -3.964006    544.41559  0.072472788  0.074707704            5 
  627000    1.1606069   -3.9381212    547.04936  0.072707252  0.074693091            2 
  628000    1.1549968   -3.9968894    547.58594  0.072662678  0.074678039            2 
  629000    1.1342654   -3.9531121    549.07791  0.072744821  0.074663053            2 
  630000    1.1567151   -3.9695135    547.60194  0.072434119  0.074647829            2 
  631000    1.1672923   -3.9398299    549.62521   0.07258653  0.074631952            1 
  632000    1.1493752   -3.9351172    549.42754  0.072445615  0.074615787            4 
  633000    1.1619059   -3.9869267    547.73198  0.072107948  0.074599988            1 
  634000    1.1593577   -3.9485246    551.06958   0.07243291  0.074583224            2 
  635000    1.1338282   -3.9587513    548.41847  0.071970927  0.074565457            6 
  636000    1.1604686   -3.9597221    551.60648  0.072275483  0.074549012            1 
  637000    1.1459992   -3.9772176    552.55981  0.072286736  0.074532531            4 
  638000    1.1419948   -3.9597343    553.24403  0.072262805  0.074517102            4 
  639000    1.1592246   -3.9346681    560.31961  0.073072458  0.074503639            3 
  640000    1.1657549   -3.9593735    556.69013  0.072485694  0.074490817            1 
  641000    1.1489564   -3.9532813    555.78641  0.072255124  0.074477698            1 
  642000    1.1293986   -3.9369189    561.24976  0.072851735  0.074463749            3 
  643000    1.1504524   -3.9562216    560.67828   0.07266437  0.074450154            3 
  644000    1.1383217   -3.9806201    557.72673  0.072169608  0.074435884            3 
  645000    1.1354152   -4.0014544    558.10311  0.072106344   0.07442095            5 
  646000    1.1496258   -3.9672582    560.15557  0.072259491  0.074406362            2 
  647000    1.1585094   -3.9815411    560.57044  0.072201241  0.074391049            4 
  648000    1.1606575   -3.9498321    563.48396  0.072464501  0.074376776            2 
  649000    1.1540894   -3.9747767     564.8002  0.072521854  0.074363253            3 
  650000    1.1491508   -3.9429477    565.13432  0.072453118  0.074349844            1 
  651000    1.1360194   -3.9619939    565.14217  0.072342827  0.074335347            3 
  652000    1.1640684   -3.9674147    565.39942  0.072264753    0.0743213            2 
  653000     1.124603   -3.9628085    566.25582  0.072263377  0.074305679            2 
  654000    1.1469733   -3.9480769    569.28642  0.072539044  0.074290073            3 
  655000     1.159808   -3.9712054    566.30983  0.072049597  0.074275299            6 
  656000    1.1532064   -3.9812361    568.80924  0.072257272  0.074260162            3 
  657000    1.1552917    -4.008589    566.05611  0.071798086  0.074245138            3 
  658000    1.1399222   -3.9808896    568.12785  0.071951348  0.074229785            2 
  659000    1.1425923   -3.9606087    573.19484  0.072482909   0.07421486            2 
  660000    1.1312905   -3.9733991    571.93744  0.072214324  0.074200368            3 
  661000    1.1248882   -3.9401842    572.04577  0.072118731  0.074186071            5 
  662000    1.1624614   -3.9932605    570.62872   0.07183141  0.074171005            3 
  663000    1.1466312   -3.9579385    573.01921   0.07202353  0.074155168            3 
  664000    1.1490781   -3.9649495    573.99283  0.072037253  0.074139902            3 
  665000    1.1463066   -3.9828564    574.62141  0.072007695  0.074125152            3 
  666000    1.1522781   -3.9629096    576.85721   0.07217933  0.074109694            5 
  667000    1.1144015   -4.0096509    574.42907  0.071767749  0.074094034            3 
  668000    1.1454738   -3.9577692    578.57645  0.072177701   0.07407926            2 
  669000    1.1602511   -3.9872894    577.22419  0.071901369  0.074064378            2 
  670000    1.1635964   -3.9578561     578.1501  0.071909216  0.074048814            7 
  671000    1.1528446   -3.9367242    581.70079  0.072243019  0.074033358            1 
  672000    1.1741293    -3.975982    580.21927  0.071951795  0.074019089            1 
  673000     1.130254   -3.9711832    580.96109  0.071936737   0.07400443            2 
  674000    1.1554781   -3.9941674    582.60894  0.072033747  0.073990075            2 
  675000    1.1390681   -3.9913294    583.31495  0.072014191  0.073974513            4 
  676000    1.1646824   -3.9695287    583.56409  0.071938374    0.0739596            4 
  677000    1.1550853     -3.97903    582.00011  0.071639599  0.073943975            2 
  678000    1.1602527   -3.9875848    583.72832  0.071746352  0.073927003            1 
  679000    1.1608298    -3.990028    583.00766  0.071552241  0.073909923            2 
  680000    1.1341627   -3.9806924     586.0967  0.071825576   0.07389147            1 
  681000    1.1318393   -3.9565876    588.19249  0.071976565  0.073875196            1 
  682000    1.1187478   -3.9867019    586.40352  0.071652434  0.073858903            2 
  683000    1.1220186   -3.9787576    588.70469  0.071828293  0.073842099            2 
  684000    1.1423285    -4.019085    586.18686  0.071416528  0.073827047            4 
  685000    1.1613097   -3.9878962    589.75653  0.071746537  0.073810652            2 
  686000    1.1520797   -4.0130754    588.77278  0.071522446  0.073794867            2 
  687000    1.1503009   -3.9667859    590.03756  0.071571757  0.073779494            2 
  688000    1.1719841   -3.9830502    592.58913  0.071776784  0.073764953            2 
  689000    1.1318273   -3.9793287    593.14173  0.071739445  0.073749068            2 
  690000    1.1410547   -4.0073889    594.92845  0.071851262  0.073732865            2 
  691000    1.1619281   -3.9676003    595.78673  0.071850787  0.073718466            2 
  692000    1.1242806   -3.9414436    598.15181  0.072031769   0.07370295            3 
  693000     1.131365   -4.0010166    597.58374  0.071859517  0.073686278            5 
  694000    1.1329502   -4.0241958    592.25229  0.071115789  0.073669469            3 
  695000    1.1385481   -4.0067134    594.66548  0.071302815  0.073652638            1 
  696000    1.1259044   -3.9859219    595.23535    0.0712686  0.073635499            2 
  697000    1.1667129   -3.9848147    597.24941  0.071407151  0.073619311            2 
  698000    1.1433111   -3.9833468    597.30634  0.071311646  0.073601426            1 
  699000    1.1494963   -4.0309475    596.79231  0.071148344  0.073583571            3 
  700000     1.148832   -3.9762094    600.96466  0.071543412  0.073566068            2 
  701000     1.168821   -3.9896699    598.75056  0.071178146  0.073549372            2 
  702000    1.1106422   -3.9930686    600.63184  0.071300076  0.073532719            5 
  703000    1.1361799   -3.9638739     605.2684  0.071748269  0.073516361            2 
  704000    1.1555311   -3.9872513    605.73496  0.071701582  0.073501394            2 
  705000    1.1218324   -4.0011695    604.03866  0.071399369  0.073485194            8 
  706000    1.1258182   -4.0149606    603.63296  0.071250349  0.073469827            2 
  707000    1.1585504   -3.9694574    607.60397   0.07161763  0.073453134            2 
  708000    1.1521393   -3.9657453    605.45912   0.07126402  0.073436732            2 
  709000    1.1582615   -3.9677159     606.7765  0.071318348  0.073419629            2 
  710000    1.1373206   -3.9919429    607.36884  0.071287423  0.073402974            2 
  711000     1.135658   -3.9808269    607.30345  0.071179495  0.073386208            2 
  712000    1.1152096   -3.9768498    608.41419  0.071209526  0.073368781            2 
  713000    1.1263021   -3.9828483    607.14137   0.07096089  0.073351743            3 
  714000    1.1416534   -4.0050182    609.51537  0.071138582  0.073334401            1 
  715000    1.1344761   -3.9582039    612.28283  0.071361636  0.073317668            3 
  716000    1.1533256   -4.0096818    609.44844  0.070932081  0.073300765            2 
  717000    1.1198507   -3.9861599    614.04518  0.071367408  0.073284524            2 
  718000    1.1201137   -3.9958623    616.22282  0.071520755  0.073269024            3 
  719000    1.1392083   -3.9668917    615.44559  0.071331199  0.073254091            3 
  720000    1.1229715   -3.9814862    616.18053   0.07131719  0.073238833            2 
  721000     1.135115   -3.9757529    618.21643  0.071453587  0.073223813            3 
  722000    1.1395372   -3.9895676    618.88289  0.071431544  0.073209174            3 
  723000    1.1347014   -4.0043355    620.55316  0.071525261  0.073194086            2 
  724000    1.1414559   -4.0237569    617.82115  0.071112011  0.073178863            1 
  725000    1.1294112   -3.9882984    620.83746  0.071360627  0.073164506            2 
  726000    1.1413259   -3.9967509    621.96415  0.071391661  0.073150199            2 
  727000     1.152378   -4.0084496    623.37268  0.071454915  0.073135129            3 
  728000    1.1239017    -3.982518     624.6896  0.071507509  0.073121756            2 
  729000    1.1541479   -4.0134193    623.43605  0.071266124  0.073107147            3 
  730000    1.1350363   -3.9601083    624.07057  0.071240933   0.07309256            2 
  731000    1.1661432   -4.0189786    624.29546  0.071169113  0.073076809            2 
  732000    1.1489546   -3.9580555     627.8479  0.071476309   0.07306105            2 
  733000    1.1197783   -3.9833915    625.60055    0.0711233  0.073045834            3 
  734000    1.1486488   -4.0309824    625.38667   0.07100212  0.073030473            2 
  735000    1.1425783   -3.9938617    629.72129  0.071396972  0.073015486            2 
  736000    1.1435296   -4.0070604    626.46987  0.070931824   0.07299977            3 
  737000    1.1181493   -4.0011184    628.54756  0.071070507   0.07298451            2 
  738000    1.1554694    -3.944673    630.85986  0.071235305   0.07296981            2 
  739000    1.1489514   -4.0121109    632.40509  0.071313159  0.072955838            1 
  740000    1.1278206   -4.0109956    630.96114  0.071054182  0.072941644            2 
  741000    1.1287969   -4.0034736    633.73588  0.071270341  0.072927605            3 
  742000    1.1280439   -4.0090558    631.85695  0.070963269  0.072912824            1 
  743000    1.1342366   -3.9975216    633.16011   0.07101392  0.072898066            2 
  744000    1.1307615   -4.0030917     634.8645  0.071109375   0.07288268            5 
  745000    1.1344319   -3.9970694     635.5506  0.071090671   0.07286891            2 
  746000    1.1271489   -3.9768358    639.22366  0.071405681  0.072854878            3 
  747000    1.1265841   -4.0235877    636.93059  0.071054283  0.072841399            1 
  748000     1.134691   -3.9947735     638.7874  0.071166155  0.072827033            1 
  749000    1.1671835   -3.9522937    642.67614  0.071503799  0.072812994            3 
  750000    1.1253659   -3.9818093    641.16347  0.071240385   0.07279911            2 
  751000    1.1509707   -3.9717641    641.76226  0.071211969  0.072784639            2 
  752000    1.1127479   -4.0016335    642.37425  0.071185089  0.072770774            2 
  753000    1.1463175   -3.9951141    644.37124  0.071311558  0.072756767            2 
  754000    1.1264211   -4.0050926    643.22262  0.071090033  0.072743547            3 
  755000    1.1247153   -3.9736775    645.53571  0.071251182  0.072730522            2 
  756000    1.1171414   -4.0101899    644.73445  0.071068612  0.072717655            2 
  757000    1.1152191   -4.0162217    647.01722  0.071226026   0.07270513            2 
  758000    1.0949555   -3.9849837    649.86703  0.071445364  0.072694056            3 
  759000    1.1008903   -4.0089871    648.55305  0.071206967  0.072681376            3 
  760000    1.0994287   -4.0289019    648.44134  0.071101024  0.072669615            2 
  761000    1.1045711   -4.0166591    651.96238  0.071393165  0.072657306            3 
  762000    1.1120218   -3.9999679    650.39347  0.071127895  0.072644658            2 
  763000    1.1238878   -3.9881756     651.5654  0.071162669  0.072631875            2 
  764000    1.1482399   -3.9869389    654.16751   0.07135335  0.072619664            1 
  765000    1.1338563    -4.007478    653.68024  0.071206998  0.072606787            4 
  766000    1.1316516   -3.9835801    653.45785  0.071089845  0.072593437            2 
  767000    1.1456075   -3.9700429    654.26833  0.071085216  0.072580468            3 
  768000    1.1336509   -4.0077995    654.96411  0.071068154  0.072567277            2 
  769000    1.1364117   -4.0133749    653.20015  0.070784585  0.072552969            1 
  770000    1.1573479   -4.0396371    655.02489  0.070890139  0.072538211            4 
  771000    1.1355971   -3.9885373    657.66791  0.071083864  0.072524065            2 
  772000    1.1090844   -3.9635843    659.98201  0.071241581  0.072510249            1 
  773000     1.122982   -3.9971201    659.92149  0.071142894  0.072497625            2 
  774000    1.1217595   -3.9928728    657.95351  0.070839094  0.072484246            2 
  775000    1.1107568   -3.9933194    659.84472  0.070951045  0.072471872            2 
  776000    1.1163448   -3.9986331    662.41077  0.071135177  0.072459563            3 
  777000    1.1410303   -4.0088339     663.1556   0.07112351  0.072447153            2 
  778000    1.1391331   -4.0387113     658.9681  0.070583558  0.072434377            3 
  779000    1.1222238   -4.0090891    662.68981   0.07089108  0.072420316            3 
  780000    1.1189961   -4.0108099    664.91911  0.071038366  0.072406367            2 
  781000    1.1397415   -4.0168391    663.42377  0.070787854  0.072392915            2 
  782000    1.1175768   -4.0053262     663.7853  0.070735859   0.07237995            2 
  783000    1.1119929   -3.9863567    666.69965  0.070955689  0.072365688            2 
  784000    1.1227563   -3.9906794    666.00643    0.0707915  0.072351303            1 
  785000     1.141136    -3.990187    663.96139  0.070484224  0.072337394            4 
  786000    1.1421057   -4.0185823    666.50481  0.070664208  0.072322507            2 
  787000    1.1202024   -3.9947575    664.65022  0.070378041  0.072307706            3 
  788000    1.1106157   -3.9982341    667.70638  0.070611927  0.072293346            4 
  789000    1.1552337   -4.0236688    668.90217  0.070648729  0.072279076            3 
  790000    1.1569616   -3.9843848    671.50988  0.070834376  0.072264316            2 
  791000    1.1350233   -4.0582346    669.33653  0.070515858  0.072249867            2 
  792000    1.1422611   -4.0055756    669.34467   0.07042768  0.072235057            2 
  793000    1.1289554   -4.0234327    671.37837  0.070552582  0.072220354            1 
  794000    1.1284581   -4.0249027     672.1372  0.070543367   0.07220614            4 
  795000     1.112657   -3.9990307    676.78354  0.070941671  0.072191653            3 
  796000    1.1246655   -4.0349429    673.48789  0.070507526   0.07217754            1 
  797000    1.1239427   -3.9812905    676.75208  0.070760359  0.072163706            1 
  798000    1.1194376   -3.9989242    679.56019  0.070964932  0.072151594            1 
  799000    1.1372778   -3.9980624     678.0931  0.070723102  0.072138744            4 
  800000    1.1256423   -4.0089884    678.24459  0.070650478  0.072125535            2 
  801000    1.1205222   -4.0069966    680.16599  0.070762171   0.07211128            7 
  802000    1.1187527   -4.0139232    681.04012  0.070764767   0.07209863            3 
  803000    1.1357786   -4.0163405    681.53525  0.070728025  0.072085443            3 
  804000    1.1378173   -4.0172329    680.63416  0.070546659  0.072071869            2 
  805000    1.1056311   -4.0173836    683.91057  0.070798195   0.07205888            2 
  806000    1.1173443   -3.9985885    684.86227  0.070808754  0.072046511            1 
  807000    1.1188146   -4.0337195    681.86719   0.07041173   0.07203403            4 
  808000    1.1277349   -3.9719881     686.9498  0.070848783  0.072021416            3 
[...]
 4800000   0.49844461   -5.2361354    1838.6706  0.031921364  0.030567861          131 
 4801000   0.48546074   -5.2290942    1841.2843  0.031960084  0.030559637           58 
 4802000     0.488071   -5.2428711    1844.4193  0.032007831  0.030551414           73 
 4803000   0.48532262   -5.2329561    1839.8954  0.031922677  0.030543185           70 
 4804000   0.47287729   -5.2248115    1840.1437  0.031920338  0.030534963           69 
 4805000   0.48282285    -5.229123    1841.3277  0.031934229  0.030526764           43 
 4806000   0.47932424   -5.2387101     1841.264  0.031926481  0.030518567          131 
 4807000   0.48253858   -5.2346509    1841.9318  0.031931416  0.030510376           80 
 4808000   0.48677821    -5.232407    1845.2296  0.031981933  0.030502181           92 
 4809000   0.48920491   -5.2440534    1835.8482  0.031812716  0.030493996           61 
 4810000   0.47312433   -5.2334783    1840.2866  0.031882996  0.030485785           64 
 4811000   0.47003931   -5.2350848    1842.4223  0.031913364  0.030477581           84 
 4812000   0.47244481   -5.2481171    1836.9723  0.031812349  0.030469391           49 
 4813000   0.47730936   -5.2269681     1841.525  0.031884566  0.030461207           37 
 4814000   0.47684057   -5.2221628     1839.329  0.031839928  0.030453031           14 
 4815000   0.47757289   -5.2212514     1843.464  0.031904881  0.030444878           25 
 4816000   0.47276288   -5.2233291    1838.9239  0.031819697  0.030436719           18 
 4817000   0.47902473   -5.2148995    1839.2632   0.03181896  0.030428568           23 
 4818000   0.48177713   -5.2246464    1840.1704  0.031828048   0.03042041           26 
 4819000   0.47456063    -5.230604     1841.566  0.031845577  0.030412239           73 
 4820000    0.4697838   -5.2230284    1840.5676  0.031821709  0.030404085           33 
 4821000   0.48485676    -5.214941     1844.273  0.031879156  0.030395948           70 
 4822000   0.46241321   -5.2127156    1844.6802  0.031879582  0.030387803           84 
 4823000   0.47560135   -5.2157651    1841.9116  0.031825137  0.030379658           76 
 4824000   0.48153633   -5.2431422    1843.7074  0.031849561  0.030371513           98 
 4825000   0.46424685   -5.2165218    1837.4528  0.031734937  0.030363369          108 
 4826000   0.48637705   -5.2076521    1842.7968  0.031820639  0.030355241           57 
 4827000   0.48085728   -5.2094654    1838.0831  0.031732669  0.030347122           46 
 4828000   0.46824857   -5.2247339    1843.4161  0.031818146  0.030339008           47 
 4829000   0.48834682   -5.2254957    1839.7799  0.031748807  0.030330869           49 
 4830000   0.47661437   -5.2203065    1841.2166  0.031767022   0.03032274           62 
 4831000   0.48814035   -5.2280162    1841.4678   0.03176478  0.030314627           63 
 4832000   0.47841598    -5.216954    1841.2451  0.031754365    0.0303065           92 
 4833000   0.47343853   -5.2436026    1842.1514  0.031763421  0.030298375           86 
 4834000   0.48247161   -5.2348416    1840.0677  0.031720931  0.030290244           95 
 4835000   0.48459939   -5.2324246    1842.9552  0.031764136  0.030282124           89 
 4836000   0.46937666   -5.2303022    1837.8071  0.031668856     0.030274           41 
 4837000   0.47141412   -5.2441249     1840.101   0.03170183  0.030265894           83 
 4838000   0.47970319   -5.2442882    1838.6422  0.031670149  0.030257743           40 
 4839000   0.47573328   -5.2506891    1843.3132  0.031744044   0.03024963           74 
 4840000   0.46706149   -5.2215942    1842.0615  0.031715936  0.030241491           88 
 4841000   0.48534608   -5.2362559     1840.886  0.031689148  0.030233362           99 
 4842000   0.48517928   -5.2293728    1837.5671  0.031625483  0.030225235           74 
 4843000   0.47462851   -5.2289814    1841.2484  0.031682298  0.030217115           56 
 4844000   0.48139049   -5.2403425     1839.796   0.03165077  0.030209002           49 
 4845000   0.48488938   -5.2514813    1843.2974  0.031704462  0.030200874           79 
 4846000   0.49247353   -5.2342179    1838.9704  0.031623511  0.030192751           36 
 4847000   0.48225137    -5.250069    1839.6165  0.031628094  0.030184619           69 
 4848000    0.4882667   -5.2568282    1839.5542  0.031620499  0.030176462           56 
 4849000   0.48034428   -5.2282368    1837.1791  0.031573162  0.030168323           68 
 4850000   0.46914861   -5.2334597    1841.0792  0.031633663  0.030160187           74 
 4851000   0.48926243   -5.2353094    1837.1131  0.031559009  0.030152035           64 
 4852000   0.47247922   -5.2161565    1840.9354  0.031618155  0.030143919           27 
 4853000    0.4674456   -5.2319568    1839.8598  0.031593169  0.030135814           49 
 4854000   0.47366811   -5.2340011    1841.1806  0.031609336  0.030127703           53 
 4855000   0.47783002   -5.2271151    1842.4996  0.031625465  0.030119611           95 
 4856000   0.46913889   -5.2470927    1840.2456  0.031580273  0.030111519           73 
 4857000    0.4778991   -5.2440726    1841.1961  0.031590078  0.030103411           63 
 4858000   0.47502878   -5.2262141    1839.3897  0.031552589    0.0300953           57 
 4859000   0.46580465   -5.2173936    1837.5282   0.03151417  0.030087217           53 
 4860000   0.47409073   -5.2235684    1839.9085    0.0315485   0.03007912           44 
 4861000   0.46788887   -5.2450519    1841.6318  0.031571553  0.030071008           30 
 4862000   0.46835978   -5.2405271    1837.5288  0.031494735  0.030062909           46 
 4863000   0.47068725    -5.239702    1839.5613  0.031523088  0.030054799           42 
 4864000   0.46933423   -5.2572379    1839.8677  0.031521856  0.030046689           27 
 4865000   0.47934836   -5.2577136    1834.1408  0.031417279  0.030038602           34 
 4866000   0.47425669   -5.2544184    1837.7488  0.031472613  0.030030501           61 
 4867000    0.4761204    -5.225544    1837.8833   0.03146845  0.030022389           42 
 4868000   0.46768194   -5.2449517    1839.0358  0.031481714  0.030014297           48 
 4869000   0.46365496   -5.2363157    1838.5514  0.031466957  0.030006187           41 
 4870000   0.46802562   -5.2421398    1838.7789   0.03146439  0.029998106           54 
 4871000   0.47091185   -5.2616855     1839.567  0.031471412  0.029989997           37 
 4872000   0.47105694   -5.2462991    1840.2705  0.031476987  0.029981914           71 
 4873000   0.47392955   -5.2362207    1834.8684  0.031378145  0.029973829           75 
 4874000   0.46288936   -5.2465212    1838.8727   0.03144017  0.029965764           36 
 4875000   0.46730073   -5.2475977    1843.3805  0.031510778  0.029957687           75 
 4876000   0.47519628   -5.2414225    1839.9416  0.031445542  0.029949629           45 
 4877000   0.47473661   -5.2357949    1838.9574  0.031422278  0.029941572           51 
 4878000   0.47514655   -5.2373849    1839.9158   0.03143221  0.029933501           27 
 4879000   0.47020831   -5.2473199    1839.0588   0.03141113  0.029925432           26 
 4880000   0.47249798   -5.2427107    1839.3055  0.031408906  0.029917364           43 
 4881000   0.47501581   -5.2464538    1840.6213  0.031424935  0.029909313           41 
 4882000    0.4705528   -5.2458173    1838.4316  0.031381122  0.029901262           34 
 4883000   0.47665804   -5.2512248    1839.6878  0.031396134  0.029893187           51 
 4884000   0.48313419   -5.2484114    1839.0642  0.031379064  0.029885103           31 
 4885000   0.46599078    -5.254744    1838.1947  0.031357808  0.029877023           39 
 4886000   0.47183055   -5.2404099    1837.8396  0.031345334  0.029868952           45 
 4887000    0.4819678   -5.2557936    1839.5075  0.031367361  0.029860885           25 
 4888000   0.46979551   -5.2619444    1837.2941  0.031323207  0.029852814           22 
 4889000   0.47189051   -5.2401586    1841.6164  0.031390476  0.029844763           44 
 4890000   0.46917641   -5.2556721    1837.5426  0.031314631  0.029836714           38 
 4891000   0.46607133   -5.2494747     1841.507  0.031375775  0.029828655           54 
 4892000   0.47062259   -5.2442022    1839.8319  0.031340827  0.029820609           76 
 4893000   0.46712831   -5.2388162    1835.6062  0.031262453  0.029812585           52 
 4894000   0.46702812   -5.2443895    1840.4189  0.031338014  0.029804543           46 
 4895000   0.47213085     -5.25329    1839.2713  0.031312076  0.029796502           98 
 4896000   0.46650751   -5.2473079    1834.7275  0.031228341  0.029788464           44 
 4897000   0.46699584   -5.2425439      1838.34  0.031283439  0.029780415          191 
 4898000   0.45811767    -5.229175    1838.6322  0.031282024  0.029772378          137 
 4899000   0.46747083   -5.2493676    1835.0571  0.031214825   0.02976433          176 
 4900000   0.47083608   -5.2676527    1843.6853  0.031355193  0.029756265          137 
 4901000   0.47071245   -5.2519844    1837.0229  0.031235512  0.029748204          109 
 4902000   0.46900696   -5.2516484    1836.2287  0.031215638  0.029740172          122 
 4903000   0.47343683   -5.2558916    1840.8951  0.031288584  0.029732122           93 
 4904000   0.46810675   -5.2490466    1837.2377  0.031220054  0.029724068          109 
 4905000   0.46681372   -5.2607347    1835.3007  0.031180781  0.029716019           93 
 4906000   0.46276319   -5.2605412    1839.2342  0.031241239   0.02970798          129 
 4907000   0.47690703   -5.2577455     1837.272  0.031201549  0.029699948          109 
 4908000   0.46161345   -5.2755039    1833.0549   0.03112359  0.029691909          235 
 4909000    0.4695296   -5.2615307    1837.1259  0.031186356  0.029683854          151 
 4910000   0.46617288   -5.2555418    1834.7716  0.031140047  0.029675804          210 
 4911000   0.46885533   -5.2660281     1837.011  0.031171706  0.029667776          150 
 4912000    0.4598975   -5.2596227    1836.1269  0.031150361   0.02965974          198 
 4913000   0.46287157   -5.2794736    1831.8862  0.031072092  0.029651684          231 
 4914000   0.46750155   -5.2527611    1836.9451  0.031151558  0.029643642          194 
 4915000   0.46084596   -5.2617368    1838.0749  0.031164376  0.029635627          144 
 4916000   0.46496538   -5.2331244    1838.3873  0.031163332  0.029627611          232 
 4917000   0.45181868   -5.2636417    1838.4481  0.031158025   0.02961958          204 
 4918000   0.46171482   -5.2716756    1833.4661  0.031067271  0.029611528          336 
 4919000   0.46585649   -5.2733228    1835.5955   0.03109703  0.029603493          286 
 4920000   0.45540878   -5.2758304    1839.2766  0.031153058  0.029595468          225 
 4921000   0.47071731   -5.2739846    1834.5074  0.031065966  0.029587422          204 
 4922000    0.4739456   -5.2701454      1834.75  0.031063761  0.029579371          157 
 4923000   0.45848889   -5.2735024    1836.7946  0.031092062  0.029571328          118 
 4924000   0.47246056   -5.2765896    1836.3717   0.03107859  0.029563283          231 
 4925000   0.45052944   -5.2729244    1834.4484  0.031039736  0.029555222           99 
 4926000   0.45646011   -5.2596875    1837.2471  0.031080781  0.029547175          139 
 4927000   0.46923793   -5.2708903     1833.111  0.031004516  0.029539126          152 
 4928000   0.45870655   -5.2744943    1833.8418  0.031010583   0.02953106          187 
 4929000   0.47275734   -5.2741057    1832.7914  0.030986533  0.029523011          222 
 4930000   0.46751939   -5.2875194    1834.0137  0.031000908  0.029514961          196 
 4931000   0.46624627   -5.2761166    1833.9649  0.030993796  0.029506919          210 
 4932000   0.46169028   -5.2883393    1834.4189  0.030995182  0.029498873          186 
 4933000   0.46788916   -5.2846662    1834.6678  0.030993103  0.029490822          183 
 4934000    0.4605705   -5.3000449    1831.3718  0.030931154  0.029482773          269 
 4935000   0.46087204   -5.2869846    1830.8438  0.030915972  0.029474709          197 
 4936000   0.47025681   -5.2952765    1830.9715  0.030911864  0.029466643          298 
 4937000   0.45926916   -5.2880541    1830.7524  0.030901904  0.029458588          181 
 4938000   0.46489604   -5.2893106    1833.8481  0.030947889  0.029450541          225 
 4939000   0.46907779   -5.2897117    1833.0488  0.030928136  0.029442504          182 
 4940000   0.47228035   -5.2868496    1832.8484  0.030918495  0.029434466          274 
 4941000    0.4632891   -5.2930885    1833.8437  0.030929024  0.029426412          256 
 4942000   0.46498121   -5.2937885    1835.5481  0.030951505  0.029418356          238 
 4943000   0.46523698   -5.3005117    1832.7291  0.030897719  0.029410309          270 
 4944000   0.46167744   -5.2799887    1833.3577  0.030902064  0.029402254          305 
 4945000   0.46248948   -5.2681676    1832.1338  0.030875191  0.029394227          390 
 4946000    0.4624577   -5.2880169    1833.4168  0.030890564  0.029386189          428 
 4947000   0.45285038   -5.2786042    1834.9886  0.030910797  0.029378159          377 
 4948000   0.46076424   -5.2806297    1830.3868  0.030827049   0.02937012          340 
 4949000    0.4670937   -5.2912918    1833.4097   0.03087172  0.029362093          296 
 4950000    0.4646528   -5.3012366    1835.2326  0.030896171  0.029354054          406 
 4951000   0.46256883     -5.29385     1835.144   0.03088844  0.029346015          236 
 4952000   0.45831981    -5.300456     1829.866  0.030793383   0.02933797          341 
 4953000   0.45128573   -5.2976574    1832.9165   0.03083849  0.029329931          270 
 4954000   0.46190327   -5.2975699    1828.6204  0.030759998  0.029321904          224 
 4955000   0.45723495   -5.2894898    1831.7694  0.030806751  0.029313882          216 
 4956000   0.44767625   -5.3055991    1833.2927  0.030826149  0.029305855          182 
 4957000   0.46473284   -5.3005503    1833.8182  0.030828764  0.029297826          314 
 4958000   0.45172186   -5.2905609    1833.4247  0.030815932  0.029289808          231 
 4959000   0.45256204   -5.2996732     1833.937  0.030818326  0.029281787          348 
 4960000   0.45305705   -5.2993057    1832.5162  0.030788242  0.029273781          344 
 4961000   0.45590252   -5.2756232    1825.7567  0.030668493  0.029265767          351 
 4962000   0.46512533   -5.2846488    1831.2782  0.030755042  0.029257758          347 
 4963000    0.4641631    -5.282985    1833.9835  0.030794269  0.029249754          283 
 4964000   0.45055046   -5.3019895    1835.9858   0.03082168   0.02924176          291 
 4965000   0.45928488   -5.2860444     1834.977   0.03079854  0.029233775          314 
 4966000   0.45548136   -5.2977514    1835.2978  0.030797721  0.029225808          273 
 4967000   0.47466937   -5.2902832    1830.5935  0.030712595  0.029217823          294 
 4968000    0.4638226   -5.2954352    1829.7926  0.030692979  0.029209835          329 
 4969000   0.46052724   -5.3012436    1828.5658  0.030666227  0.029201838          220 
 4970000   0.44838294   -5.2917264    1828.5235  0.030659348  0.029193835          429 
 4971000   0.45561517   -5.3010747    1828.0587  0.030645389  0.029185834          372 
 4972000    0.4440296   -5.3071281    1829.5881  0.030664859  0.029177838          493 
 4973000   0.45394524   -5.2975372    1830.6619  0.030676685  0.029169843          415 
 4974000   0.46433547   -5.3065167    1831.6301  0.030686739  0.029161836          369 
 4975000   0.46066064   -5.3005319    1834.7453  0.030732751  0.029153844          280 
 4976000   0.45748324   -5.2936756    1833.3862  0.030703814  0.029145859          416 
 4977000   0.44782123   -5.3028272    1832.3171  0.030679745  0.029137851          449 
 4978000   0.45437049   -5.2911032     1831.531  0.030660422   0.02912985          396 
 4979000   0.45026149   -5.2992334    1831.6373  0.030656043  0.029121851          450 
 4980000   0.45788996   -5.2889137    1827.2629  0.030576689  0.029113852          483 
 4981000   0.45241872   -5.3098302    1830.7635  0.030629115  0.029105844          554 
 4982000   0.45597878   -5.3056249    1828.0145  0.030576985  0.029097841          483 
 4983000   0.44676959   -5.2844942    1830.4159  0.030611009  0.029089845          434 
 4984000    0.4520435   -5.2970479    1828.8037  0.030577912  0.029081848          380 
 4985000    0.4504658   -5.3057648    1829.3374  0.030580699  0.029073864          492 
 4986000   0.45790251   -5.2992731     1830.725  0.030597756  0.029065887          526 
 4987000   0.45326165   -5.3050373    1829.0228  0.030563178  0.029057899          534 
 4988000   0.45368217   -5.3032868    1830.8979  0.030588378  0.029049914          494 
 4989000   0.45603038   -5.3015098     1832.851  0.030614869  0.029041926          613 
 4990000   0.45301115   -5.3102979    1831.5547  0.030587086  0.029033949          560 
 4991000   0.45410292   -5.3081822    1829.9823  0.030554704   0.02902597          468 
 4992000   0.44951337   -5.3110464    1828.6456  0.030526269  0.029017986          551 
 4993000   0.45493805   -5.3062503    1835.9806  0.030642576  0.029010016          546 
 4994000   0.46062534   -5.3058056    1829.3162  0.030525233  0.029002047          489 
 4995000   0.44941747   -5.3012361    1829.8688  0.030528342  0.028994071          479 
 4996000   0.45491286   -5.2896151     1835.289   0.03061264  0.028986128          557 
 4997000   0.44591712   -5.3036609    1827.0005  0.030468289  0.028978172          459 
 4998000   0.44710622   -5.3052453    1832.9058  0.030560654  0.028970197          391 
 4999000   0.46146018   -5.3178366    1831.9052   0.03053786  0.028962243          449 
 5000000   0.46748197   -5.3101043    1827.8167  0.030463612  0.028954275          469 
 5001000    0.4462545   -5.3027627    1832.4321  0.030534427  0.028946319          496 
 5002000   0.45707682   -5.3117231    1832.3652  0.030527209  0.028938366          481 
 5003000   0.44179333   -5.3094489    1828.1604   0.03045107  0.028930413          593 
 5004000   0.45484409   -5.3095565    1826.0983  0.030410643  0.028922466          647 
 5005000   0.44584372   -5.2884372    1828.5665  0.030445662   0.02891452          566 
 5006000   0.46483544    -5.310575    1827.4667  0.030421272  0.028906588          612 
 5007000   0.45504441   -5.3051998    1827.8169  0.030421026  0.028898643          490 
 5008000   0.44530977     -5.30174    1829.9119  0.030449812  0.028890693          582 
 5009000     0.443151   -5.3076025    1831.7004  0.030473488  0.028882747          616 
 5010000   0.45514254   -5.2968168    1829.4053  0.030429229  0.028874802          574 
 5011000   0.44515489   -5.3040045    1827.7625  0.030395838  0.028866849          543 
 5012000   0.45579216   -5.3249391    1832.4516  0.030467738  0.028858919          544 
Loop time of 12987.4 on 48 procs for 5000000 steps with 4000 atoms

Performance: 66525.926 tau/day, 384.988 timesteps/s
99.4% CPU use with 48 MPI tasks x no OpenMP threads

MPI task timing breakdown:
Section |  min time  |  avg time  |  max time  |%varavg| %total
---------------------------------------------------------------
Pair    | 885.59     | 942.63     | 1023.5     |  95.2 |  7.26
Neigh   | 85.132     | 88.213     | 91.072     |  15.6 |  0.68
Comm    | 795.09     | 878.58     | 950.17     | 116.4 |  6.76
Output  | 14.435     | 14.44      | 14.537     |   0.4 |  0.11
Modify  | 10916      | 10943      | 10978      |  13.8 | 84.26
Other   |            | 120.9      |            |       |  0.93

Nlocal:        83.3333 ave          91 max          77 min
Histogram: 3 4 8 5 4 15 2 3 1 3
Nghost:        2301.29 ave        2331 max        2283 min
Histogram: 5 6 10 8 4 7 2 4 1 1
Neighs:        15594.1 ave       17962 max       14004 min
Histogram: 5 5 8 5 10 6 4 4 0 1
FullNghs:      31188.5 ave       34206 max       28617 min
Histogram: 4 3 7 7 5 10 5 2 2 3

Total # of neighbors = 1497049
Ave neighs/atom = 374.26225
Neighbor list builds = 269667
Dangerous builds = 0

#clear
#
#next RN
#
#jump SELF
Total wall time: 3:36:31
