
units lj                  # Use reduced LJ style units
atom_style atomic         # Uncharged point particles
atom_modify map hash      # Needed for indexing of clusters etc
                          # Used to be able to find where atoms are in relation to each other.

lattice fcc 1.0 spacing 1 1 1
Lattice spacing in x,y,z = 1.5874011 1.5874011 1.5874011
region box block 0 10 0 10 0 10 units lattice
create_box 2 box
Created orthogonal box = (0.0000000 0.0000000 0.0000000) to (15.874011 15.874011 15.874011)
  3 by 4 by 4 MPI processor grid
create_atoms 1 box
Created 4000 atoms
  using lattice units in orthogonal box = (0.0000000 0.0000000 0.0000000) to (15.874011 15.874011 15.874011)
  create_atoms CPU = 0.005 seconds
set type 1 type/fraction 2 0.16 78393
Setting atom values ...
  677 settings made for type/fraction
mass 1 1.0
mass 2 1.0
pair_style lj/cut  3.5
pair_modify tail  yes
pair_coeff 1  1  1.0  1.0   # Intearaction between 1 and 1 set with epsilon = 1 and sigma = 1
pair_coeff 1  2  1.5  0.8
pair_coeff 2  2  0.5  0.88

write_data data.0
System init for write_data ...
Neighbor list info ...
  update every 1 steps, delay 10 steps, check yes
  max neighbors/atom: 2000, page size: 100000
  master list distance cutoff = 3.8
  ghost atom cutoff = 3.8
  binsize = 1.9, bins = 9 9 9
  1 neighbor lists, perpetual/occasional/extra = 1 0 0
  (1) pair lj/cut, perpetual
      attributes: half, newton on
      pair build: half/bin/atomonly/newton
      stencil: half/bin/3d
      bin: standard
WARNING: Not all mixed pair coeffs generated from mixing. Use write_data with 'pair ij' option to store all pair coeffs. (../write_data.cpp:312)


#############################
#   M E L T   S Y S T E M   #
#############################

velocity all create 2.4 5300450 mom yes dist gaussian # Assign velocities
                                                    # Temperature 2.4, random number seed, zero linear momentum
                                                                                # Gaussian distribution

timestep 0.002   # simulation timestep
thermo 1000       # output thermodynamic data every 1000 steps bf 100

# Define a fix  in this case with index 1 applied to all
# particles in the simulation. This fix is for simulations
# in the anisotropic NPT ensemble. Note that we use the MTK
# correction.
fix 1 all npt temp 2.4 2.4 0.1 iso 5.68 5.68 0.5 mtk yes tchain 5 pchain 5 # Use NPT ensemble
                                                                         # Set temperature and pressure and damping
                                                                         # Numbers of thermostats in chain and in barostat
run 10000          # run for 10000 steps
Per MPI rank memory allocation (min/avg/max) = 3.642 | 3.644 | 3.648 Mbytes
Step Temp E_pair E_mol TotEng Press Volume 
       0          2.4   -7.2871769            0   -3.6880769   -3.4159639         4000 
    1000    2.3799426   -4.7655086            0   -1.1964872    5.6841292    4595.6699 
    2000    2.3922915   -4.7915971            0   -1.2040569    5.4938739    4615.6721 
    3000    2.4980347   -4.8228456            0   -1.0767303    5.6426069    4573.9405 
    4000    2.3891721   -4.7725854            0   -1.1897233    5.7418134    4590.1161 
    5000    2.3796039   -4.7533511            0   -1.1848376    5.8058396    4591.6266 
    6000     2.391273   -4.7542005            0   -1.1681877    5.4549972    4636.2058 
    7000    2.4065147   -4.7280448            0   -1.1191752     5.542982    4636.1486 
    8000    2.3544355   -4.6955419            0   -1.1647715    5.5562485    4652.0475 
    9000    2.3277453   -4.8003666            0   -1.3096216    5.5417973    4593.2453 
   10000    2.4011997    -4.766023            0   -1.1651239    5.6322848    4605.6508 
Loop time of 2.50347 on 48 procs for 10000 steps with 4000 atoms

Performance: 690240.570 tau/day, 3994.448 timesteps/s
99.4% CPU use with 48 MPI tasks x no OpenMP threads

MPI task timing breakdown:
Section |  min time  |  avg time  |  max time  |%varavg| %total
---------------------------------------------------------------
Pair    | 0.94669    | 1.0079     | 1.0995     |   3.3 | 40.26
Neigh   | 0.19483    | 0.20185    | 0.21416    |   1.0 |  8.06
Comm    | 0.72801    | 0.83218    | 0.94209    |   5.5 | 33.24
Output  | 0.00025762 | 0.00026286 | 0.00040289 |   0.0 |  0.01
Modify  | 0.3516     | 0.44683    | 0.51067    |   6.9 | 17.85
Other   |            | 0.01445    |            |       |  0.58

Nlocal:        83.3333 ave          94 max          68 min
Histogram: 1 0 0 6 4 14 13 4 4 2
Nghost:        1491.85 ave        1514 max        1461 min
Histogram: 2 1 2 3 9 7 8 7 7 2
Neighs:        8278.15 ave        9819 max        6661 min
Histogram: 1 0 6 6 8 12 9 3 2 1

Total # of neighbors = 397351
Ave neighs/atom = 99.337750
Neighbor list builds = 909
Dangerous builds = 226

# Equilibrate just above the melting temperature to avoid step fn in T

fix 1 all npt temp 1.25 1.25 0.1 iso 5.68 5.68 0.5 mtk yes tchain 5 pchain 5
run 2000
Per MPI rank memory allocation (min/avg/max) = 3.642 | 3.644 | 3.648 Mbytes
Step Temp E_pair E_mol TotEng Press Volume 
   10000    2.4011997    -4.766023            0   -1.1651239    5.6322848    4605.6508 
   11000    1.2363637    -6.427023            0    -4.572941    5.6787879    3770.9906 
   12000    1.2554839   -6.4627652            0   -4.5800101    5.4862649    3769.2654 
Loop time of 0.492686 on 48 procs for 2000 steps with 4000 atoms

Performance: 701460.389 tau/day, 4059.377 timesteps/s
99.7% CPU use with 48 MPI tasks x no OpenMP threads

MPI task timing breakdown:
Section |  min time  |  avg time  |  max time  |%varavg| %total
---------------------------------------------------------------
Pair    | 0.21316    | 0.23594    | 0.27557    |   2.2 | 47.89
Neigh   | 0.030946   | 0.033865   | 0.039383   |   0.7 |  6.87
Comm    | 0.13338    | 0.16822    | 0.19136    |   3.1 | 34.14
Output  | 4.9109e-05 | 5.0015e-05 | 6.2905e-05 |   0.0 |  0.01
Modify  | 0.036861   | 0.050292   | 0.063647   |   4.1 | 10.21
Other   |            | 0.00432    |            |       |  0.88

Nlocal:        83.3333 ave          92 max          76 min
Histogram: 4 4 4 6 4 12 9 1 3 1
Nghost:        1709.02 ave        1737 max        1678 min
Histogram: 1 3 5 5 7 9 5 9 2 2
Neighs:        10124.5 ave       11061 max        8817 min
Histogram: 2 0 4 6 7 4 7 8 4 6

Total # of neighbors = 485978
Ave neighs/atom = 121.49450
Neighbor list builds = 143
Dangerous builds = 12

#############################
# L I N E A R  Q U E N C H  #
#############################

# Define solid atoms. This closely follows ten Wolde  Ruiz-Montero and Frenkel  Faraday Discuss  1996  104  93-110
# Compute components of the per-atom q6 vector
compute q6 all orientorder/atom degrees 1 6 components 6 nnn NULL cutoff 1.3 # compute the Q6 parameter.
                                                                             # Use all neighbours within 1.3 unit cell.

# get number of connections
compute coord_number all coord/atom orientorder q6 0.5

# An atom is solid if it has 8 or more connections (of a possible 14)
variable is_solid atom c_coord_number>=8
group solid dynamic all var is_solid    # Must be dynamic to update
dynamic group solid defined

# do clustering
compute cluster solid cluster/atom 1.3 # Create a cluster where all atoms within are solid and max 1.3 units from another member

# define chunks one chunk per cluster
compute clus_chunks solid chunk/atom c_cluster nchunk every compress yes  # Says which atoms are in which chunk

# count the size of each chunk
compute size_chunks solid property/chunk clus_chunks count


# Find the maximum entry in the vector of chunk sizes
variable max_n equal max(c_size_chunks)


# Thermo style which includes this variable
# thermo_style custom step temp pe vol v_max_n

thermo ${N}  # Print the thermo information every 100 steps
thermo 1000  

# Reset the npt fix at a lower temperature (below freezing)
fix 1  all npt temp  ${temp} ${temp}  0.1  iso  5.68  5.68  0.5  mtk yes tchain  5  pchain  5
fix 1  all npt temp  0.45 ${temp}  0.1  iso  5.68  5.68  0.5  mtk yes tchain  5  pchain  5
fix 1  all npt temp  0.45 0.45  0.1  iso  5.68  5.68  0.5  mtk yes tchain  5  pchain  5

dump dmp2 all dcd ${N} traj.dcd
dump dmp2 all dcd 1000 traj.dcd


compute msd all msd com yes
variable twopoint equal c_msd[4]/6/(step*dt+1.0e-6)
fix 9 all vector 10 c_msd[4]
variable fit equal slope(f_9)/6/(10*dt)
thermo_style custom step temp pe c_msd[4] v_twopoint v_fit v_max_n

fix 1 all npt temp 1.25 ${temp} 0.1 iso 5.68 5.68 0.5 mtk yes tchain 5 pchain 5
fix 1 all npt temp 1.25 0.45 0.1 iso 5.68 5.68 0.5 mtk yes tchain 5 pchain 5
run 5000000 # 5000000  # Run for this many steps
Neighbor list info ...
  update every 1 steps, delay 10 steps, check yes
  max neighbors/atom: 2000, page size: 100000
  master list distance cutoff = 3.8
  ghost atom cutoff = 3.8
  binsize = 1.9, bins = 9 9 9
  4 neighbor lists, perpetual/occasional/extra = 1 3 0
  (1) pair lj/cut, perpetual
      attributes: half, newton on
      pair build: half/bin/atomonly/newton
      stencil: half/bin/3d
      bin: standard
  (2) compute orientorder/atom, occasional
      attributes: full, newton on
      pair build: full/bin/atomonly
      stencil: full/bin/3d
      bin: standard
  (3) compute coord/atom, occasional
      attributes: full, newton on
      pair build: full/bin/atomonly
      stencil: full/bin/3d
      bin: standard
  (4) compute cluster/atom, occasional
      attributes: full, newton on
      pair build: full/bin/atomonly
      stencil: full/bin/3d
      bin: standard
Per MPI rank memory allocation (min/avg/max) = 9.765 | 9.771 | 9.778 Mbytes
Step Temp PotEng c_msd[4] v_twopoint v_fit v_max_n 
   12000    1.2554839   -6.4627652 4.0032719e-30 2.7800498e-32 8.3333333e+20            2 
   13000      1.25229   -6.4297999   0.54670237 0.0035045022  0.045137671            3 
   14000     1.257285   -6.4470708    1.0599882 0.0063094534  0.043910587            2 
   15000    1.2538787   -6.4231116    1.5920639 0.0088447991  0.043804851            2 
   16000    1.2385884   -6.4092712    2.1436017  0.011164592  0.044316905            3 
   17000    1.2773844   -6.4362749    2.6859445  0.013166394  0.044450065            2 
   18000    1.2338778   -6.4569728    3.2420548  0.015009513  0.044600482            1 
   19000    1.2185541   -6.4289777    3.7086034  0.016265804   0.04451891            2 
   20000    1.2396878   -6.4622815    4.2656122  0.017773384   0.04432587            4 
   21000    1.2444648   -6.4484762    4.7989789  0.019043567  0.044174831            1 
   22000    1.2531793   -6.4338691    5.3931209  0.020428488  0.044479079            2 
   23000    1.2693176   -6.4596447     5.925733  0.021470047  0.044653494            2 
   24000    1.2363426   -6.4421271    6.4754649  0.022484253  0.044851297            1 
   25000     1.251575   -6.4343115    6.9336718  0.023112239  0.044759402            4 
   26000    1.2350448   -6.4210116       7.4102   0.02375064  0.044595462            1 
   27000    1.2508372   -6.4389014    7.9513447  0.024541187  0.044393233            3 
   28000    1.2470943   -6.4379883    8.5485182  0.025442018  0.044367409            1 
   29000    1.2810019   -6.4576141    9.0838261  0.026102948  0.044377692            1 
   30000    1.2333624   -6.4423187     9.529558  0.026470994  0.044332357            2 
   31000    1.2575379   -6.4509704    10.136471  0.027248577  0.044300111            3 
   32000    1.2617862   -6.3849029    10.833635   0.02821259  0.044402959            2 
   33000    1.2302039   -6.4791083    11.342467  0.028642592  0.044555461            2 
   34000    1.2268941   -6.4230363    11.954948  0.029301342  0.044723439            1 
   35000    1.2681654   -6.4684587    12.587493   0.02997022  0.044896248            1 
   36000    1.2243731   -6.4138978    13.192565  0.030538344  0.045108138            1 
   37000    1.2939009   -6.4279223     13.81185  0.031107771  0.045330719            2 
   38000    1.2660525   -6.4837361    14.363148  0.031498131  0.045544462            2 
   39000    1.2509024   -6.4256465    14.879818  0.031794482   0.04567401            2 
   40000    1.2391769   -6.4240942    15.407734  0.032099445  0.045773337            2 
   41000    1.2329309   -6.4317353    15.972611  0.032464656  0.045866997            2 
   42000    1.2418961     -6.43383     16.33065  0.032402083  0.045873087            4 
   43000    1.2205964   -6.4448347    16.935696  0.032821117  0.045863949            2 
   44000    1.2590065   -6.4246679    17.474675  0.033095975  0.045880609            1 
   45000    1.2325252   -6.4429051    18.132759  0.033579183  0.045885851            1 
   46000    1.2198381   -6.4081446     18.62226  0.033735977  0.045889398            7 
   47000    1.2163389   -6.4656225    18.917074  0.033540911  0.045849346            2 
   48000    1.2579693   -6.4616062    19.425992  0.033725681  0.045765425            3 
   49000    1.2371761   -6.4426575    19.993081  0.034001838  0.045684539            3 
   50000    1.2641743   -6.4098915    20.598805  0.034331341  0.045621457            1 
   51000    1.2562209   -6.4335254    21.011223  0.034332063  0.045568521            1 
   52000    1.2438025   -6.4311637    21.525565  0.034496097  0.045507814            3 
   53000    1.2425315   -6.4472428    22.202889  0.034910203  0.045455077            2 
   54000    1.2381856   -6.4055205    22.759344  0.035122445  0.045417276            2 
   55000    1.2322371   -6.4317708    23.339666   0.03536313  0.045402311            3 
   56000    1.2292866   -6.3707425    24.001094  0.035715913  0.045409654            4 
   57000    1.2509168   -6.4107277    24.536311  0.035871799  0.045414026            2 
   58000     1.243771   -6.4749454     25.03545  0.035970474  0.045430642            2 
   59000    1.2483829    -6.422241    25.684894  0.036278099  0.045443228            2 
   60000    1.2460839   -6.4666699    26.157389  0.036329707  0.045461457            2 
   61000    1.2445566   -6.4647306     26.74228  0.036533169  0.045480244            2 
   62000    1.2141235   -6.3981109    27.230272  0.036599828  0.045474811            3 
   63000    1.2408817   -6.4547315    27.635661  0.036555106   0.04547881            1 
   64000     1.217682   -6.4287147    28.075077   0.03655609  0.045440721            1 
   65000     1.249438   -6.4498164    28.680432  0.036769785  0.045411063            3 
   66000    1.2234632    -6.415106    28.992385  0.036606547  0.045368472            3 
   67000    1.2338879   -6.4067525    29.424886  0.036598116  0.045310629            2 
   68000    1.2037217   -6.4231638    29.738653  0.036444427  0.045229924            2 
   69000     1.233098   -6.4530115    30.144831  0.036406801  0.045145372            1 
   70000    1.2248899   -6.4780804    30.689461  0.036535072  0.045049079            2 
   71000    1.2280387   -6.4250874    31.250004  0.036678408  0.044959012            4 
   72000    1.2403041   -6.4358939    31.759446  0.036758617   0.04487685            2 
   73000    1.2223715   -6.4514332    32.399857  0.036986138  0.044802357            2 
   74000    1.2494882   -6.4158004    32.747901  0.036878267  0.044727551            3 
   75000    1.2418414   -6.4222417    33.203567  0.036892852  0.044647622            1 
   76000    1.2235187   -6.4454311    33.948051   0.03722374  0.044584526            4 
   77000    1.2393885   -6.4625615    34.409525  0.037239745  0.044528207            2 
   78000    1.2439738   -6.4085651    34.988775   0.03738117  0.044478903            1 
   79000     1.250863   -6.4255015     35.47368  0.037419493  0.044430568            2 
   80000    1.2348871   -6.4213406    35.886542  0.037381815  0.044372872            3 
   81000    1.2407749   -6.4515711    36.315558  0.037361685  0.044310646            1 
   82000    1.2578405   -6.4386503    36.788562  0.037386749   0.04424923            2 
   83000    1.2353539   -6.4498398    37.166032  0.037315293  0.044174096            1 
   84000    1.2678179    -6.458575    37.542862  0.037244902  0.044103425            2 
   85000    1.2477789   -6.4619994     38.13359  0.037385872  0.044031656            2 
   86000    1.2464032   -6.4753555     38.44289  0.037250862  0.043950193            2 
   87000    1.2072979   -6.4678413    39.133331  0.037484033  0.043877982            2 
   88000     1.257887   -6.4649801    39.580143  0.037481196  0.043813795            2 
   89000    1.2057296   -6.4326978    40.127654   0.03757271  0.043754256            3 
   90000    1.2361014   -6.4510095    40.720752    0.0377044  0.043708811            2 
   91000    1.2280898   -6.4919339    41.110222  0.037646723  0.043656408            3 
   92000    1.2366692   -6.4717398    41.689618  0.037762335  0.043610261            2 
   93000    1.2379438   -6.4927904     41.90688  0.037550967  0.043563953            2 
   94000    1.1978715   -6.4555822     42.65392  0.037813758  0.043509745            2 
   95000    1.2201587   -6.4652165    43.201931   0.03789643  0.043461687            1 
   96000    1.2212275   -6.4399877    43.625979  0.037869773  0.043418558            2 
   97000    1.2221575   -6.4513128    43.928296  0.037739086  0.043370326            2 
   98000    1.2550213   -6.4546634      44.4571  0.037803657  0.043323683            2 
   99000    1.2285712   -6.4765776    44.730976  0.037652337  0.043267298            3 
  100000    1.2494294   -6.5128233    45.145831  0.037621526  0.043211487            2 
  101000    1.2454474   -6.4628881    45.895698  0.037867737  0.043158215            1 
  102000    1.2454281   -6.4992609    46.279064  0.037809692  0.043100526            2 
  103000    1.2516724   -6.4652868    47.053033  0.038068797  0.043051986            3 
  104000    1.2370453   -6.4507184    47.554461  0.038104535  0.043009722            2 
  105000    1.2295767   -6.4382518    47.837053  0.037965915  0.042967668            2 
  106000    1.2278594   -6.4315584    48.590938  0.038200423  0.042926121            4 
  107000     1.215369   -6.4514752    49.001514  0.038163173  0.042898888            2 
  108000    1.2348688    -6.454954     49.36955  0.038093789   0.04286535            2 
  109000    1.2262449   -6.4614439    50.137504  0.038331425    0.0428365            3 
  110000     1.236347   -6.4539058    50.694849  0.038405188  0.042813656            4 
  111000    1.2230963   -6.4705149    50.915053  0.038224514  0.042784666            3 
  112000    1.2497346   -6.4701913    51.348456  0.038205696  0.042751881            9 
  113000    1.2436461   -6.4932194    51.888883  0.038266138  0.042723982            2 
  114000    1.2577535   -6.4743769    52.674732  0.038504921  0.042701817            1 
  115000    1.2334168   -6.4066973    52.980179  0.038391434  0.042684745            1 
  116000    1.2406888   -6.4419794    53.563673   0.03847965  0.042661148            4 
  117000     1.235868    -6.477846    53.738296   0.03827514  0.042633903            2 
  118000    1.2293796   -6.4562446    54.149945  0.038241486  0.042599014            2 
  119000    1.2475586   -6.4351194    54.696543  0.038302901  0.042566123            1 
  120000    1.2384545   -6.4715833    54.977203  0.038178613  0.042529558            2 
  121000    1.2357925   -6.4341018    55.437198  0.038179888  0.042487854            1 
  122000    1.2417581   -6.4454313     56.02922  0.038271325  0.042450101       -1e+20 
  123000    1.2154679    -6.467769    56.410375  0.038218411  0.042409424            3 
  124000    1.2254013   -6.4814246    56.985806  0.038296912  0.042367904            3 
  125000    1.2352121   -6.4960426    57.168165   0.03811211  0.042331083            2 
  126000    1.2533857   -6.4538783    57.683237  0.038150289  0.042291983            2 
  127000    1.2349841   -6.4837745    58.150375  0.038156414  0.042252215            2 
  128000    1.2295633   -6.4612361    58.802939  0.038283163  0.042215893            4 
  129000     1.203078   -6.4974949    59.509027  0.038442524  0.042184691            2 
  130000    1.2157057   -6.4602372    59.819931   0.03834611   0.04215844            3 
  131000    1.2296594   -6.4666413    60.365132  0.038400211  0.042129173            1 
  132000    1.2497058   -6.4671403    60.890317  0.038440856   0.04210105            4 
  133000    1.2326788   -6.4164906    61.107183  0.038287709  0.042072488            3 
  134000    1.2219549    -6.473563    61.681431  0.038359099  0.042043424            1 
  135000    1.2073613   -6.4974752    62.163769  0.038372697  0.042015493            3 
  136000    1.2199021   -6.4513163    62.800146  0.038480481   0.04199081            2 
  137000    1.2579388   -6.4623487    63.143282  0.038408322  0.041962463            2 
  138000    1.2269202   -6.4883082    63.302128  0.038225922   0.04193511            2 
  139000    1.2243124   -6.4498538    63.884788  0.038300232  0.041905402            1 
  140000    1.2030764   -6.4840615    64.306347  0.038277587  0.041875266            2 
  141000    1.2278007   -6.4611156    64.633194  0.038199287  0.041842067            9 
  142000    1.2233488   -6.4696059    65.302706  0.038323184  0.041806202            2 
  143000     1.200163   -6.4930718    65.715037  0.038295476  0.041773995            1 
  144000    1.2451263   -6.4903194    66.460221  0.038460776  0.041741793            2 
  145000    1.2425802   -6.4865009    66.732842  0.038352208  0.041716667            3 
  146000    1.2176992   -6.4414951    67.269249   0.03839569   0.04168877            3 
  147000    1.2079455   -6.4069998    67.516435  0.038274623  0.041658412            1 
  148000    1.2281724   -6.4709235    67.913713  0.038239703   0.04162709            2 
  149000    1.2087295   -6.4627364    68.848147  0.038505675  0.041598627            2 
  150000    1.2228394   -6.4924264    69.031283  0.038350712  0.041575841            1 
  151000    1.2175244   -6.4843575    69.431933  0.038317844  0.041550185            2 
  152000    1.2298532   -6.4673801    69.921154  0.038333966   0.04152331            1 
  153000    1.2259081   -6.4751448    70.213467  0.038242629  0.041493118            3 
  154000    1.2150932   -6.4646925    70.623828  0.038216357  0.041463854            1 
  155000    1.2243625    -6.445482     71.41036  0.038392666  0.041432661            2 
  156000    1.2365359   -6.4825251    72.011557  0.038467712  0.041406809            1 
  157000     1.206685   -6.4802074    72.395969  0.038426735  0.041379772            1 
  158000    1.2527245   -6.4640935    72.814552    0.0384043  0.041351958            1 
  159000    1.2048251   -6.4648495    72.807658   0.03815915  0.041320954            2 
  160000    1.2409319   -6.4966193    73.232805  0.038142086  0.041288461            4 
  161000    1.2539958   -6.4800362    73.860537  0.038230092  0.041258269            1 
  162000    1.2570689   -6.4836567    74.217891  0.038177927  0.041226398            3 
  163000    1.2036441   -6.4792502    74.727292  0.038204137   0.04119638            2 
  164000    1.2399675   -6.4361372    75.430004  0.038328254  0.041165458            3 
  165000    1.2290944   -6.4572525    75.883352  0.038324925  0.041141121            2 
  166000    1.2329087   -6.4564822    76.468514  0.038387808   0.04111867            3 
  167000    1.2082712   -6.5149074    76.667166  0.038257069  0.041092528            1 
  168000    1.2284277   -6.4541338    77.349158  0.038367638  0.041068628            1 
  169000    1.2147032    -6.447749    77.999666  0.038461374  0.041047791            2 
  170000    1.2014003   -6.4756403     78.58725  0.038523162  0.041030169            3 
  171000    1.2075742   -6.4551651    79.300727  0.038645578  0.041017597            1 
  172000    1.2219671   -6.4730485     79.76254  0.038644641  0.041004793            1 
  173000    1.2160656   -6.4741958    80.177226  0.038621014  0.040987545            1 
  174000    1.2248624   -6.5021284    80.210875   0.03841517  0.040968918            2 
  175000    1.2238746   -6.5003048    80.563193  0.038363425  0.040951319            1 
  176000    1.2206049   -6.4911618    80.849427  0.038280978  0.040929661            4 
  177000    1.2280168    -6.453132    81.800081  0.038512279  0.040906804            1 
  178000    1.2384878   -6.4890117    81.950166  0.038366183  0.040881314            2 
  179000    1.2343067   -6.4882288     82.20462  0.038270307  0.040855916            2 
  180000    1.2233506   -6.4713564    82.734367  0.038302947  0.040830216            2 
  181000    1.2007582   -6.4546767      83.1469  0.038281262  0.040807508            2 
  182000    1.2063272   -6.4554733    83.870799   0.03840238  0.040785685            3 
  183000    1.2158838   -6.5334754    83.943223  0.038225511  0.040762643            1 
  184000    1.2261154   -6.5041928     84.04043  0.038061789  0.040736648            1 
  185000    1.2370004   -6.4604955    84.737579  0.038170081  0.040709066            1 
  186000    1.2458845   -6.4683935    85.307986  0.038220424  0.040683391            2 
  187000    1.2202291   -6.4850197    85.810513  0.038239979  0.040660345            2 
  188000    1.2271023   -6.4358904    86.235168  0.038224808  0.040634456            2 
  189000     1.230286   -6.4648511    86.635575  0.038199107  0.040609339            2 
  190000     1.211643   -6.4610459    87.193211  0.038242636  0.040584352            2 
  191000     1.231775   -6.4860014    87.796984  0.038305839  0.040564871            4 
  192000    1.2366496   -6.4876874    88.222195  0.038290883  0.040547458            8 
  193000    1.2491226   -6.4961217    88.986965  0.038422696  0.040529586            2 
  194000    1.2407953   -6.4723765    89.316954  0.038366389  0.040512258            1 
  195000    1.2034434   -6.4834979    89.732577  0.038347255  0.040494371            2 
  196000    1.2020864   -6.4480949    90.333339  0.038407032  0.040478487            4 
  197000    1.2131734   -6.5148624     90.79298  0.038406506  0.040464234            3 
  198000     1.240681   -6.5231364    91.147083  0.038361567  0.040452748            2 
  199000    1.2125198   -6.5083818    91.431435  0.038287871  0.040438702            2 
  200000    1.2143153   -6.5418351    91.863479  0.038276449  0.040423438            1 
  201000    1.2251381   -6.4524478    92.869746  0.038503211  0.040409297            2 
  202000    1.2117856   -6.5091775    93.504638  0.038574521  0.040396311            4 
  203000    1.2112457   -6.4341667    94.067079  0.038615385  0.040385292            2 
  204000    1.2287149   -6.4964432    94.340929  0.038537961  0.040374828            3 
  205000    1.1970063   -6.4939673    94.853063  0.038558156  0.040365324            1 
  206000    1.2085074   -6.4919505    95.239496  0.038527304  0.040353235            2 
  207000    1.2231033   -6.5061448    95.511174  0.038450553  0.040340684            3 
  208000    1.2290848   -6.4606811    95.855951  0.038403826   0.04032647            2 
  209000    1.2083588   -6.4657867    96.181484  0.038349874   0.04031228            2 
  210000      1.20015    -6.420684    96.836298  0.038427102  0.040296326            1 
  211000    1.2351446   -6.4984591     97.17186  0.038377512  0.040282534            3 
  212000    1.2321877   -6.4723985    97.494479  0.038323302  0.040267968            3 
  213000    1.2090466   -6.4868211    98.185914  0.038413894  0.040252594            2 
  214000    1.2408313   -6.4355952    98.520928  0.038364847  0.040238004            1 
  215000    1.2217968   -6.4969544    98.417001  0.038146124  0.040220632            2 
  216000    1.2153461   -6.4759631    99.511163  0.038391652  0.040202553            3 
  217000    1.2363789   -6.5275547    99.203302  0.038096506  0.040185268            1 
  218000    1.2070557   -6.4561373     100.0947  0.038262499  0.040167619            3 
  219000    1.2299746   -6.5081955    100.32742  0.038176339  0.040150086            1 
  220000     1.225342   -6.4869323    101.10681  0.038298034  0.040132161            3 
  221000    1.2297043   -6.5110119     101.2063  0.038162254  0.040115234            2 
  222000    1.2013117    -6.494722    101.69358  0.038173265  0.040096314            2 
  223000    1.2234471   -6.5239473    102.01289  0.038121408  0.040078545            2 
  224000    1.2179947   -6.4732357    102.44261   0.03811109  0.040060227            1 
  225000     1.219043   -6.4717395     103.2173  0.038228631  0.040041373            3 
  226000    1.2184345   -6.4826252    104.02087  0.038355778  0.040024101            2 
  227000    1.2075253   -6.5039565    104.40776  0.038328841  0.040008078            2 
  228000    1.2091326   -6.5136398    104.70453  0.038269201  0.039993485            3 
  229000    1.1968231   -6.4467493    105.67923   0.03845678  0.039981487            1 
  230000    1.2100816   -6.4932237    105.61733   0.03826715  0.039969461            3 
  231000     1.210868   -6.5350727    105.98111  0.038232723  0.039955519            1 
  232000    1.1959807   -6.5121529    106.52155  0.038262052  0.039942171            2 
  233000    1.2303673    -6.487807    107.08526  0.038299448  0.039928063            1 
  234000    1.2193028   -6.5160646     107.3882  0.038243661  0.039914838            3 
  235000    1.2067815   -6.4909067    108.23063  0.038379656  0.039902045            2 
  236000    1.2231484   -6.5030452    108.57599   0.03833898   0.03989104            2 
  237000     1.210835   -6.4887525    108.91359  0.038295919  0.039877259            2 
  238000    1.2272439   -6.4740829    109.16487  0.038222993  0.039862956            1 
  239000    1.1833789   -6.5142004    109.12065  0.038047648  0.039847204            3 
  240000    1.2090454   -6.5373412    109.58945  0.038051891  0.039831254            3 
  241000    1.2263151   -6.4997468    110.43746  0.038187227  0.039815497            1 
  242000    1.2071994   -6.4738406     111.2125  0.038296317  0.039800536            2 
  243000    1.2128275   -6.4773341    111.26409   0.03815641  0.039786352            1 
  244000    1.2048064   -6.5008472    111.68248  0.038142923    0.0397701            1 
  245000     1.212117   -6.5049745    112.41945  0.038237908  0.039756907            2 
  246000    1.2229742   -6.5453266    112.81482  0.038216401   0.03974524            3 
  247000    1.2309747   -6.4923311    113.68326  0.038354675  0.039732876            2 
  248000    1.2139122   -6.5226705    113.55937  0.038158391  0.039721272            3 
  249000    1.2033101   -6.4410918    114.83265  0.038431276  0.039710638            2 
  250000    1.2098137   -6.4989777    114.89842  0.038299475  0.039702158            2 
  251000    1.1962662   -6.5067756    115.45488  0.038331634  0.039691691            4 
  252000    1.2091486   -6.4808555    115.75729  0.038279527  0.039682822            2 
  253000    1.1942794    -6.468016      116.459  0.038359354  0.039673581            3 
  254000    1.1960094   -6.5223989    116.77002  0.038310375  0.039663268            2 
  255000    1.1837914   -6.5004459    116.74296  0.038151294  0.039652413            3 
  256000    1.1931945   -6.4949473    117.44273  0.038230055  0.039641037            2 
  257000    1.2183063   -6.4984416    117.51447  0.038104563  0.039628771            3 
  258000    1.2124904   -6.5129206     117.9695  0.038103843  0.039616312            4 
  259000    1.2176298   -6.4917122    118.42594  0.038103583  0.039602201            2 
  260000    1.1946369   -6.5059889    118.92899  0.038118265  0.039588869            3 
  261000      1.20978    -6.491278    119.33012  0.038100293  0.039575977            3 
  262000    1.2184227   -6.5034908    120.17597   0.03822391  0.039563472            2 
  263000    1.2054024   -6.5106548    120.62373  0.038220447  0.039551826            3 
  264000    1.2173597   -6.5380834    120.73848  0.038111893   0.03954011            1 
  265000    1.2259965   -6.5263585    121.17626  0.038105743  0.039528448            2 
  266000    1.2132299   -6.4801019    122.39033  0.038342835  0.039519045            1 
  267000    1.2506528   -6.4891605    122.66758   0.03828576  0.039509711            3 
  268000    1.1978014   -6.5176229    123.35414  0.038356386   0.03950263            2 
  269000    1.1801588   -6.5251124    123.48465   0.03825423  0.039495771            2 
  270000    1.2205521   -6.5376361    124.32273  0.038371211  0.039490732            3 
  271000    1.2370318   -6.5001869    124.96727   0.03842782  0.039488826            4 
  272000    1.1885803   -6.5217995    126.05897  0.038621007  0.039487152            5 
  273000    1.2011298   -6.5010589    126.65725  0.038662165  0.039485982            2 
  274000    1.2213914   -6.4880451    127.19228  0.038683783  0.039485682            2 
  275000    1.2297183   -6.5228715    127.23926  0.038557352  0.039484428            2 
  276000    1.1998768   -6.4683941    127.92507  0.038624718  0.039484473            3 
  277000    1.1932192   -6.5010095    128.26146  0.038586482   0.03948249            2 
  278000     1.182759   -6.5349337    128.72878  0.038587764  0.039479634            2 
  279000    1.1992318   -6.5092019    129.11483  0.038564764  0.039477185            3 
  280000    1.1959093   -6.4409047     130.1585  0.038737649  0.039475682            1 
  281000    1.2242347   -6.4989242     130.3078   0.03864407  0.039475623            2 
  282000    1.2012116   -6.5309297    130.72127  0.038629218  0.039475418            2 
  283000    1.2052444   -6.5367365    130.81074  0.038519065  0.039475427            3 
  284000    1.2069423   -6.5092657    131.64796  0.038629096  0.039474134            2 
  285000    1.2146955   -6.4950264     131.7394  0.038520292  0.039470989            1 
  286000    1.2151739   -6.4741364    132.22909  0.038528291  0.039467756            1 
  287000    1.2644923   -6.5114668      132.308  0.038416956  0.039463202            2 
  288000    1.2112168   -6.5014272    132.49128  0.038336598  0.039456834            2 
  289000    1.1969146   -6.5134881    133.36733  0.038456554  0.039452552            1 
  290000     1.219294   -6.5131473      133.283  0.038299712  0.039448016            7 
  291000    1.2105941   -6.5140899    134.41393  0.038491961  0.039443439            1 
  292000    1.2004748   -6.4791432    134.73849  0.038452766  0.039439368            1 
  293000    1.2031729   -6.5034215    135.10603  0.038426061  0.039434655            4 
  294000    1.1915791   -6.5288068     135.2302  0.038330555  0.039429983            2 
  295000    1.2100955   -6.5226054    135.91057  0.038392816  0.039425288            1 
  296000    1.2323936   -6.4812773    136.61335  0.038460966  0.039420682            2 
  297000    1.2061318   -6.4717998    137.18828  0.038492782  0.039416161            2 
  298000    1.2115314   -6.5179123    137.98929   0.03858761   0.03941265            2 
  299000     1.187422   -6.4858049     137.7986  0.038405407  0.039409302            1 
  300000    1.2265202   -6.5235974    137.90053  0.038305702  0.039405331            1 
  301000    1.1786509   -6.5024866    139.26647  0.038556608  0.039400254            2 
  302000    1.2282439   -6.5255616    139.01418  0.038359322  0.039395061            3 
  303000      1.20951   -6.5053867    139.70535  0.038422814  0.039390125            3 
  304000    1.2069639    -6.489107    140.22171  0.038437969  0.039386561            1 
  305000    1.1953286   -6.5148956    140.92653  0.038504517  0.039383362            2 
  306000    1.2083991   -6.5133379    140.98468  0.038394522  0.039380503            2 
  307000    1.1798294   -6.5617429    141.58919  0.038433548   0.03937741            3 
  308000    1.1914944   -6.5218725    142.66857  0.038600804  0.039375771            2 
  309000     1.201666   -6.5153636    143.19527  0.038617926  0.039374956            2 
  310000    1.2160958   -6.5224508    142.83365  0.038396143  0.039372103            3 
  311000    1.1931927    -6.572755    143.62467  0.038484638  0.039370856            2 
  312000    1.2170672   -6.5191322    144.85144  0.038688953  0.039369476            3 
  313000    1.2310283   -6.4950486    145.79032  0.038815313  0.039369441            3 
  314000    1.1708018   -6.5670204    145.14118  0.038519421  0.039369287            3 
  315000    1.1767311   -6.4977749    146.27743  0.038697733  0.039369957            2 
  316000    1.2013685   -6.5444862    145.98614  0.038498453  0.039369735            3 
  317000     1.163934   -6.5235319     147.3656  0.038739643  0.039369035            2 
  318000    1.2190601    -6.507393    147.88027  0.038752691  0.039370074            2 
  319000    1.1839659   -6.5216203    148.82893  0.038879031    0.0393741            2 
  320000    1.1817877   -6.5169151    149.09781  0.038827556  0.039376736            3 
  321000    1.2152309   -6.5185218    149.05544  0.038695598  0.039378463            2 
  322000    1.1813113   -6.5270761    149.36003  0.038654253  0.039378796            2 
  323000    1.1775742    -6.507359    149.44918  0.038557579   0.03937856            2 
  324000    1.1949076   -6.4955368    150.35016  0.038670308  0.039378339            1 
  325000    1.2106892   -6.5432398    151.30051  0.038795003  0.039377676            2 
  326000    1.1792507   -6.5103817    151.75063   0.03879106  0.039377701            4 
  327000      1.19799   -6.4720208    152.36378   0.03882869  0.039379255            1 
  328000    1.2114504   -6.5098673    152.95452  0.038860396   0.03938151            3 
  329000    1.1968849   -6.5391488    153.36422  0.038846053  0.039383677            2 
  330000    1.1934745   -6.5683966    153.62364  0.038793848  0.039385967            2 
  331000    1.2071314   -6.5603718    154.25313  0.038835128  0.039388911            2 
  332000    1.2021917   -6.5085134     154.3018  0.038730372  0.039391199            3 
  333000    1.1959977   -6.5255814    155.15498  0.038827573  0.039393042            1 
  334000    1.1989351   -6.5368395    155.32927  0.038754807  0.039394702            3 
  335000    1.1884575   -6.5278175    156.43604  0.038914437  0.039396536            1 
  336000    1.2206372   -6.5475626    156.17334  0.038733466  0.039398779            4 
  337000    1.1937942   -6.5185526    157.07024  0.038840317  0.039399675            3 
  338000    1.1815438   -6.5400468    157.79681  0.038904538  0.039402748            1 
  339000    1.1772326   -6.5459419    157.90094  0.038815373  0.039405921            1 
  340000    1.1917882   -6.5108348    158.13236  0.038757932  0.039408016            3 
  341000    1.1947955   -6.5385519    158.79407   0.03880598  0.039408298            1 
  342000    1.2299035   -6.4348782     159.7717  0.038930727  0.039409837            2 
  343000    1.1904354   -6.4877763    159.64648  0.038786803  0.039411116            3 
  344000    1.2178155    -6.501185    159.86148  0.038726135  0.039411992            2 
  345000    1.2027354   -6.5574889     160.0203  0.038652246  0.039412224            2 
  346000    1.1831175   -6.5220482    160.92168   0.03875763  0.039411548            3 
  347000     1.196242   -6.5021912    161.04684  0.038675995  0.039411043            2 
  348000    1.1879755   -6.5252692      161.609  0.038699473   0.03941066            2 
  349000    1.2035619   -6.5285593    162.65133  0.038837471  0.039410423            7 
  350000    1.1879828   -6.5338629    162.74111  0.038747883  0.039408213            1 
  351000     1.189088   -6.5518153    161.90866  0.038439852  0.039405473            4 
  352000    1.1909096   -6.4969159    163.11171  0.038615462  0.039400657            2 
  353000    1.1944072   -6.5419008    162.42109  0.038343033  0.039394477            3 
  354000    1.1885621   -6.5173029    163.03964  0.038380329  0.039388434            2 
  355000    1.1876401   -6.5470291    163.52315  0.038385715  0.039382703            2 
  356000    1.1687432   -6.5576367    163.45337  0.038261558  0.039374288            2 
  357000    1.1860583   -6.5371071    163.81754  0.038239388  0.039366425            2 
  358000    1.1964466   -6.5648344     165.0229  0.038413151  0.039358058            1 
  359000    1.2143805   -6.5353572    164.88854  0.038274962  0.039350194            1 
  360000    1.1743503   -6.5017427    165.25669  0.038253864  0.039342478            1 
  361000    1.2275842   -6.5164468    165.23664  0.038143269  0.039334894            4 
  362000    1.1893432   -6.5220888    166.48203  0.038324592  0.039327111            1 
  363000    1.2105665   -6.4955706    167.25951    0.0383975  0.039319124            1 
  364000    1.2089461   -6.5085245    166.97634  0.038227185  0.039311467            2 
  365000    1.2269155   -6.5679414    167.39036  0.038216977   0.03930263            2 
  366000    1.1841479   -6.5296443    167.27311  0.038085862  0.039292766            3 
  367000     1.194692   -6.5484535    168.16572  0.038184769  0.039283348            2 
  368000    1.1864252   -6.5349669    168.80065  0.038224784  0.039274332            4 
  369000    1.1757811   -6.5630078    168.59798  0.038075424  0.039265074            2 
  370000    1.2042106   -6.5274177    169.89203   0.03826397  0.039256885            2 
  371000    1.1824377   -6.5147724    169.99912  0.038184887  0.039249301            1 
  372000    1.1659797   -6.5329811    170.61953  0.038221222  0.039240126            1 
  373000    1.1761188   -6.5517679     171.1557  0.038238538   0.03923139            3 
  374000    1.1863227   -6.5273851    170.80525  0.038058212  0.039221977            2 
  375000    1.2038722   -6.5331756    171.81979  0.038182175  0.039212221            2 
  376000    1.2141467   -6.5498447    171.93147  0.038105379  0.039202617            2 
  377000    1.1700844   -6.5133157    172.48617  0.038126915  0.039192575            3 
  378000    1.2003344   -6.5364708    172.15362  0.037952739  0.039182843            1 
  379000    1.1671504    -6.533264    172.94038  0.038025589  0.039173006            1 
  380000    1.1954433   -6.5099365    173.86045  0.038127292  0.039163009            1 
  381000    1.1984403   -6.5695982    173.71995  0.037996489  0.039153219            2 
  382000     1.196266   -6.5280814    175.14532  0.038207966  0.039144037            6 
  383000    1.2013782   -6.5383001    175.03063  0.038083254  0.039135243            2 
  384000    1.2119007   -6.5561573    175.88205  0.038168849  0.039126959            2 
  385000    1.1794166   -6.5127913    176.93181  0.038296929  0.039119665            2 
  386000    1.1815691   -6.5367326    177.26705  0.038270089  0.039112651            3 
  387000     1.190653   -6.5327076    177.20241  0.038157279  0.039105352            4 
  388000    1.1665995   -6.5338676    177.96996  0.038223789  0.039097913            1 
  389000    1.1695533   -6.4943465    178.24873  0.038185246  0.039090354            1 
  390000    1.1888716   -6.5197531    178.81305  0.038207917  0.039083037            1 
  391000    1.1648684   -6.5502533    179.41492  0.038238474  0.039075885            2 
  392000    1.1874024   -6.5789269    179.14183  0.038082872  0.039067694            3 
  393000    1.1917605    -6.539882    180.18269  0.038206678  0.039059578            4 
  394000    1.1701394   -6.5296251    179.79119  0.038026902  0.039050317            3 
  395000    1.1655038   -6.5373802    180.34364  0.038047182   0.03904006            1 
  396000    1.2174336   -6.5122008    180.40755  0.037964552   0.03903138            3 
  397000    1.1884566   -6.5760723    181.24351  0.038044397  0.039022529            1 
  398000    1.2005264   -6.5422822    181.48296  0.037998945  0.039014763            5 
  399000    1.1848867   -6.5440971    182.42869   0.03810123  0.039006548            1 
  400000    1.1713533   -6.5321342    182.34119  0.037987748  0.038998326            5 
  401000    1.1865763   -6.5468043     182.9618  0.038021987  0.038990038            3 
  402000     1.188039   -6.5634842    183.54257  0.038047797  0.038982215            2 
  403000    1.1721522   -6.5380485    184.12022  0.038072832  0.038974436            2 
  404000    1.1892605    -6.580089    184.59227  0.038075964  0.038967303            1 
  405000    1.2062763   -6.5434173    185.56765  0.038182643  0.038961263            2 
  406000    1.1841883   -6.5417368    185.88006  0.038152721  0.038955093            2 
  407000     1.182142   -6.5412832    186.81047  0.038249482  0.038949194            3 
  408000    1.1806797   -6.5584103    187.37828  0.038271707  0.038943511            1 
  409000    1.1880847   -6.5276748    187.86591  0.038277488  0.038938823            1 
  410000    1.1597551   -6.5505926    188.27772  0.038267829  0.038935267            3 
  411000    1.1855344   -6.5412467    189.12092  0.038345686  0.038932363            3 
  412000    1.2079218   -6.5679429    189.45869  0.038320932  0.038930157            2 
  413000    1.1772528   -6.5749516    189.60698  0.038258066  0.038927105            2 
  414000    1.1954159   -6.5541738    190.64448  0.038374492  0.038924443            2 
  415000    1.1511689   -6.5455099    191.32113  0.038417898  0.038922406            2 
  416000    1.1653939   -6.5351761    192.08255  0.038478075  0.038919345            3 
  417000    1.1886656    -6.534205    191.51979   0.03827334  0.038916188            2 
  418000    1.1602961   -6.5472656    192.12821  0.038303072  0.038911916            8 
  419000     1.213104   -6.5228268    192.45764  0.038277176  0.038907325            2 
  420000    1.1995352   -6.5444031    192.73084  0.038240247  0.038903414            1 
  421000    1.1821194   -6.5152545    193.40904  0.038283659  0.038899515            3 
  422000    1.1851377   -6.5656926    192.91467  0.038095314  0.038894779            2 
  423000    1.1831965   -6.5337795    193.98856  0.038216817  0.038889944            3 
  424000    1.1802506   -6.5491697    194.77544  0.038281337  0.038884797            3 
  425000    1.2138619   -6.5719572    194.70882  0.038178201   0.03888132            2 
  426000    1.1741686   -6.4865685    195.96016  0.038333364  0.038877727            5 
  427000    1.1744583   -6.5415394    195.58435  0.038170248  0.038874093            2 
  428000    1.1860217   -6.5232675    196.20545  0.038201995  0.038869508            3 
  429000    1.1848457   -6.5822262    196.47889  0.038166062  0.038864961            2 
  430000    1.1911698   -6.5716563     196.7668  0.038133102  0.038860779            2 
  431000    1.2074051   -6.5150592      197.694  0.038223898  0.038856485            1 
  432000    1.1988668   -6.5457195    197.84302  0.038164163  0.038852313            2 
  433000    1.1738587    -6.504511    199.04105  0.038306591  0.038848209            5 
  434000    1.1869934   -6.5455829     198.6263  0.038138691  0.038844091            2 
  435000    1.1912535   -6.5348793    200.12336  0.038337809  0.038840038            1 
  436000    1.1998503   -6.5069133    200.88837  0.038396094  0.038836964            3 
  437000    1.1901182   -6.5573403    200.27286  0.038190858  0.038833533            2 
  438000    1.2120365   -6.5608472    201.07638  0.038256541  0.038829464            1 
  439000    1.1868362   -6.5889528    200.88045  0.038132203  0.038825387            1 
  440000    1.2049755   -6.5171579    202.77256  0.038403894   0.03882187            2 
  441000    1.1731913   -6.5846422    202.19398   0.03820748  0.038819152            2 
  442000    1.1733183   -6.5591459    203.49362  0.038366068  0.038816078            5 
  443000    1.1718887   -6.5752697    204.05166  0.038384436  0.038813532            2 
  444000    1.2158223   -6.5550421    204.49772  0.038381704  0.038812008            4 
  445000     1.179232   -6.5173594     204.7783  0.038347995   0.03881103            1 
  446000    1.1743506   -6.5679314     205.0922  0.038320666  0.038808587            2 
  447000    1.1739917   -6.5201967     205.8233  0.038371234  0.038807676            2 
  448000    1.1598473   -6.5808883    206.19526  0.038354774   0.03880675            4 
  449000     1.152564   -6.5779083    206.27461  0.038284078  0.038804372            2 
  450000    1.1967693   -6.5271993    206.85152  0.038305837  0.038802532            2 
  451000    1.1942571   -6.5728243     207.2759  0.038299316  0.038800549            2 
  452000    1.1471238   -6.5716859    207.08112  0.038178673  0.038797524            2 
  453000     1.178291   -6.5973765    207.66704  0.038202178  0.038793761            3 
  454000     1.179279   -6.5697747    208.34191  0.038241907   0.03879044            2 
  455000    1.1712669    -6.556364    209.16114  0.038307901  0.038787678            3 
  456000     1.168683   -6.5788556    210.34329  0.038439928  0.038784673            2 
  457000    1.1721924   -6.5416129    210.35298  0.038357582  0.038782398            2 
  458000    1.1920633    -6.588489    210.15717  0.038238204   0.03877979            2 
  459000    1.2007755   -6.5607044    210.53063    0.0382227  0.038776631            4 
  460000    1.1873148    -6.561186    210.58156  0.038148834  0.038773733            1 
  461000    1.1763108   -6.5874318    211.55356  0.038241785  0.038770905            2 
  462000    1.1705599   -6.5813507    211.53768  0.038156148  0.038767447            2 
  463000     1.171761    -6.529236    212.22373  0.038197216  0.038763898            3 
  464000    1.1659805   -6.5241359    212.78018   0.03821483  0.038760418            3 
  465000    1.1818157   -6.5783662    213.35639  0.038235912  0.038757037            2 
  466000    1.1635717   -6.5511185     213.6388  0.038204363  0.038753685            2 
  467000    1.1925249   -6.6041344    213.21235  0.038046458  0.038749994            3 
  468000    1.1601651   -6.5648002     213.7426   0.03805958  0.038745704            2 
  469000    1.1880251   -6.5701113    215.38756  0.038270711   0.03874227            2 
  470000     1.172082    -6.547673      214.883  0.038099823  0.038738683            2 
  471000    1.1973367   -6.5885251    216.23182  0.038257575  0.038735414            3 
  472000     1.197318   -6.5860254     216.0909  0.038151641  0.038731605            5 
  473000    1.1765405   -6.5830326    216.38218    0.0381223   0.03872749            3 
  474000    1.1967113   -6.5399011    217.02727  0.038155287  0.038724091            1 
  475000    1.1817492    -6.575356    217.31112  0.038124757  0.038720153            2 
  476000    1.1538342   -6.5415331    218.38526  0.038232713  0.038716917            2 
  477000    1.2077795   -6.5580991    218.23216  0.038125815  0.038713684            1 
  478000    1.1945029    -6.569973    219.28764  0.038230063  0.038709968            3 
  479000    1.1646326   -6.5794812    219.29829  0.038152104  0.038705633            5 
  480000    1.1870876    -6.587347     219.0263    0.0380254  0.038701536            3 
  481000    1.1710376   -6.5620463     219.7418  0.038070306  0.038697473            3 
  482000     1.195259   -6.5260732    221.00746  0.038210141  0.038693512            2 
  483000    1.1787528   -6.5607058    220.38648  0.038023892  0.038689307            2 
  484000    1.1860483    -6.576773    221.64113  0.038161351   0.03868606            2 
  485000    1.1621684   -6.5835184    222.21727  0.038181661  0.038683913            1 
  486000    1.1893242   -6.5855387    223.67063  0.038352302  0.038681817            1 
  487000    1.1844456   -6.5762389    224.81158  0.038468785  0.038680172            2 
  488000    1.1896873   -6.5950707    224.23982  0.038292318  0.038678614            1 
  489000    1.1670999   -6.5894728    224.64183   0.03828252  0.038676119            1 
  490000    1.1727689   -6.5700841    224.99054  0.038263698  0.038674865            2 
  491000    1.1587831     -6.60127    225.36444  0.038249225  0.038673162            2 
  492000    1.1560493   -6.5818229    225.77784  0.038241504  0.038671409            2 
  493000    1.1794118   -6.5621679     226.6328  0.038308451  0.038669631            2 
  494000    1.2039735   -6.5841398    226.90597  0.038276985  0.038667898            1 
  495000    1.1746595   -6.5727593    227.78373  0.038347429  0.038666402            1 
  496000    1.1652344   -6.6059979    227.70846  0.038257469  0.038665126            7 
  497000    1.1574268   -6.5649893    228.84818  0.038371593  0.038664296            2 
  498000     1.209879   -6.5750479     228.9176  0.038306157  0.038662471            3 
  499000     1.156355   -6.5657704     229.1305  0.038264946  0.038661441            3 
  500000    1.1899059   -6.5704434    229.92003  0.038320005  0.038659982            3 
  501000    1.1839429   -6.6073283    229.82379   0.03822751  0.038657549            2 
  502000    1.1839871    -6.558805    230.90822  0.038331378  0.038655552            2 
  503000    1.1867904   -6.5575637    230.91686  0.038256604  0.038654356            5 
  504000    1.1754943   -6.5657043    232.09698  0.038375823   0.03865348            1 
  505000    1.1661673   -6.6004059    232.29546  0.038332584  0.038651865            1 
  506000    1.1864468   -6.5869189    232.16609  0.038235523  0.038650105            2 
  507000    1.1890656   -6.5464399    233.09623  0.038312989  0.038648109            2 
  508000    1.1485569   -6.5747576    233.03763  0.038227958  0.038645999            1 
  509000    1.1788613   -6.5902745    233.26456  0.038190006  0.038644183            3 
  510000    1.1697161   -6.5689126    234.25198  0.038276467  0.038642566            2 
  511000    1.1670168   -6.5863815    234.36682   0.03822029  0.038641113            5 
  512000    1.1728054   -6.5867248    234.93058  0.038237399  0.038639561            1 
  513000    1.1693756   -6.5444534    236.55693  0.038427052  0.038638033            1 
  514000    1.1641064   -6.5542123    235.33911   0.03815485  0.038636089            3 
  515000    1.1952176    -6.558508    236.61006  0.038286418   0.03863354            1 
  516000    1.1818918    -6.593788    235.59652  0.038048534  0.038630426            4 
  517000    1.1764262   -6.5567134    236.50949  0.038122097  0.038626561            2 
  518000    1.1752179    -6.571143    236.40454  0.038031618  0.038622682            1 
  519000    1.1709269   -6.5716418    235.26865  0.037775955  0.038617871            2 
  520000    1.1665022   -6.5954195    237.06645  0.037991418  0.038612737            2 
  521000    1.1901642   -6.5910146    237.02767  0.037912296  0.038607577            2 
  522000    1.1634598    -6.570008    238.39449  0.038057869  0.038602489            5 
  523000    1.1555096   -6.5681832    238.19075  0.037952636  0.038597214            3 
  524000    1.1695163   -6.5150291    238.79247  0.037975902  0.038592051            1 
  525000    1.1733914   -6.5774437    239.67968  0.038044394    0.0385866            3 
  526000    1.1682133   -6.5643237    240.13378  0.038044008  0.038581075            1 
  527000    1.1855597   -6.6088647    238.97294  0.037788258  0.038575557            4 
  528000    1.1915231   -6.5458919     239.8417  0.037853804  0.038570081            4 
  529000    1.1443749     -6.57042    240.74194   0.03792406  0.038564853            2 
  530000    1.1803832   -6.6122104    241.27294  0.037935996  0.038559881            2 
  531000    1.1675865   -6.5677854    242.48125  0.038054182  0.038555481            3 
  532000     1.172491    -6.545084    242.66353  0.038011205  0.038551455            3 
  533000    1.1729998   -6.5720067    243.53258  0.038075763  0.038546958            3 
  534000    1.1512699   -6.5795188    243.21101  0.037954278  0.038542855            2 
  535000    1.1497788   -6.6044171    243.15061  0.037873926  0.038539021            1 
  536000     1.159304    -6.583185    244.62641  0.038032714  0.038534659            2 
  537000    1.1677261   -6.5876197    245.36485  0.038076482  0.038531685            2 
  538000    1.1658305   -6.6207251    245.19758  0.037979798  0.038528401            4 
  539000    1.1810053   -6.5819436    245.69894  0.037986849  0.038524862            2 
  540000    1.1618955   -6.5590839    246.26875  0.038004437  0.038520398            1 
  541000    1.1826658   -6.5964195    246.78251  0.038013326  0.038516509            5 
  542000    1.1586309   -6.6024463     246.9595  0.037970403  0.038512057            3 
  543000    1.1511016   -6.6080635     247.0507  0.037914472   0.03850866            2 
  544000    1.1514148   -6.5891047    248.56284  0.038076416  0.038505025            2 
  545000    1.1519806   -6.6010753    248.73888  0.038033468   0.03850045            3 
  546000    1.1750559   -6.5854557     248.0982  0.037866025  0.038495453            3 
  547000    1.1622583   -6.6090995    248.94918  0.037926444  0.038490587            2 
  548000    1.1671283   -6.5705259     249.6756  0.037967701  0.038485684            2 
  549000    1.1576534   -6.6097013    249.02393  0.037799625  0.038480819            2 
  550000    1.1904772   -6.5954936    249.99623  0.037878217  0.038476108            2 
  551000    1.1650036   -6.5581198    250.97319  0.037957227  0.038471731            4 
  552000     1.190879   -6.6189144    250.86876  0.037872699  0.038467131            3 
  553000    1.1511565   -6.5883605    251.54477  0.037906083  0.038461757            2 
  554000    1.1680391   -6.5944063    253.01196  0.038058357  0.038456533            2 
  555000    1.1634986    -6.590127    252.20516  0.037868643   0.03845201            1 
  556000    1.1986888   -6.5924334    253.10893  0.037935991  0.038447972            2 
  557000    1.1768598   -6.5648647    253.42461  0.037915113  0.038443884            3 
  558000    1.1696524   -6.6027336    253.84037  0.037909255  0.038439124            2 
  559000    1.1476369   -6.5892435    253.63865  0.037811368   0.03843421            1 
  560000    1.1663151   -6.6447435    253.94962  0.037790121  0.038428543            1 
  561000    1.1350288   -6.5907451    254.75874  0.037842951  0.038422853            2 
  562000    1.1624341   -6.6020239     255.2581  0.037849659  0.038417539            2 
  563000    1.1751501   -6.5877481    255.26908  0.037784056  0.038412031            3 
  564000    1.1874241   -6.6005295    256.06555  0.037834745  0.038407213            4 
  565000    1.1593478   -6.6108161    256.24621  0.037794426  0.038402365            2 
  566000    1.1519863   -6.6085693    256.57027  0.037775364  0.038397798            2 
  567000    1.1955579    -6.574563    256.23329  0.037659214  0.038393439            5 
  568000    1.1478578   -6.5914582    258.47185   0.03792134  0.038388789            4 
  569000     1.170747   -6.5797265    258.47461  0.037855099  0.038384569            2 
  570000     1.135714   -6.5672011    258.60854  0.037808266  0.038379417            4 
  571000    1.1334929   -6.5404648    258.95674   0.03779287  0.038374507            4 
  572000    1.1440799   -6.5779705    260.25586  0.037916063  0.038369625            5 
  573000    1.1769705   -6.5924176    260.30542    0.0378571  0.038364977            5 
  574000    1.1520773   -6.6059854    260.38095  0.037802113    0.0383601            4 
  575000    1.1759585   -6.6276706    261.13378  0.037845475  0.038355003            1 
  576000    1.1864708   -6.5780529    261.74638    0.0378684  0.038350149            1 
  577000    1.1905975   -6.5963744    261.15123  0.037716816  0.038345474            3 
  578000    1.1794049   -6.6033651    262.78312   0.03788684  0.038340627            2 
  579000    1.1412934   -6.5985272      262.817  0.037826281   0.03833593            3 
  580000    1.1581891   -6.6063886    262.83652  0.037763868  0.038330932            5 
  581000    1.1515309    -6.597083    262.21767  0.037610108   0.03832495            2 
  582000    1.1180666   -6.5999723    262.62819  0.037604266   0.03831883            1 
  583000    1.1417396   -6.5331633    263.49004  0.037662955  0.038312607            4 
  584000    1.1548871   -6.5873299    263.70579  0.037629251  0.038306604            1 
  585000    1.1551945   -6.6112786    263.93919  0.037598176  0.038300254            2 
  586000    1.1683021   -6.6020562    264.05791  0.037550898  0.038293581            2 
  587000    1.1816183   -6.6005199    263.81302   0.03745216  0.038286387            2 
  588000     1.128759   -6.5993857     263.7074  0.037373498  0.038279177            2 
  589000    1.1611381   -6.6037067    264.57125  0.037432266  0.038271439            1 
  590000    1.1546094    -6.598716    265.35149  0.037479024  0.038264224            2 
  591000    1.1270946   -6.6243645    265.75565  0.037472596    0.0382573            1 
  592000    1.1524012   -6.5994149    266.81942   0.03755904  0.038250926            2 
  593000    1.1512029   -6.6159032    266.57189  0.037460917  0.038244643            6 
  594000    1.1596195    -6.629529    268.73295  0.037701031  0.038238461            3 
  595000    1.1507429   -6.6156098    267.84223  0.037512917  0.038232618            2 
  596000    1.1468246   -6.6332345    268.26757  0.037509448   0.03822644            4 
  597000    1.1280001   -6.5818672    269.80992  0.037661909  0.038220328            1 
  598000    1.1695018   -6.5888665    270.64049  0.037714673  0.038214444            2 
  599000    1.1282793   -6.5760702    270.64162  0.037651867  0.038209063            1 
  600000    1.1455043   -6.6091416    271.03714  0.037644047  0.038203441            1 
  601000    1.1623747   -6.6017679    270.95816   0.03757046  0.038197973            2 
  602000    1.1558063   -6.6071054     270.4976  0.037444297  0.038192497            1 
  603000    1.1170202     -6.57486    272.58883  0.037671204  0.038187369            2 
  604000    1.1442013   -6.6232534    272.86994  0.037647618  0.038182142            2 
  605000    1.1661711   -6.6049186     273.1453  0.037623319  0.038177079            4 
  606000    1.1209266    -6.642838    273.57093  0.037619765  0.038171915            3 
  607000    1.1746409   -6.5706191    274.17355   0.03764052  0.038167051            2 
  608000    1.1614167   -6.5910462    274.18166  0.037579724  0.038162279            2 
  609000    1.1335472   -6.6316459    274.70026  0.037588979  0.038157158            2 
  610000    1.1388174   -6.6178771    275.03835  0.037573546  0.038151989            2 
  611000    1.1623052   -6.6019788    276.07016  0.037652777  0.038146247            3 
  612000    1.1550028   -6.6267714    275.56653  0.037522675  0.038140094            3 
  613000    1.2060702   -6.6281991    275.70657  0.037480501  0.038133562            2 
  614000    1.1560176   -6.6208148    276.22988  0.037490483   0.03812743            3 
  615000    1.1344565   -6.6358471    277.17726  0.037557894  0.038121568            2 
  616000    1.1567854   -6.6307026    277.70031  0.037567682  0.038116088            1 
  617000    1.1909292   -6.6204244    277.31521  0.037454782  0.038110272            2 
  618000    1.1241861   -6.6222289    277.74472  0.037452093  0.038104387            1 
  619000    1.1767409   -6.6191976    277.55906  0.037366595  0.038098095            2 
  620000    1.1646378    -6.612874    278.72389  0.037462888  0.038091647            3 
  621000     1.171276    -6.606502    278.94248  0.037431895  0.038085158            3 
  622000    1.1462725   -6.6302367    279.96106  0.037508181  0.038079352            3 
  623000    1.1476415   -6.6396061    280.13782  0.037471619  0.038073262            1 
  624000    1.1384018   -6.5734252    280.80382   0.03750051  0.038067061            1 
  625000    1.1157605   -6.6063039    281.33632   0.03751151  0.038061056            3 
  626000     1.154715   -6.6211554    280.94908  0.037400037  0.038054804            1 
  627000    1.1691708   -6.6047231    282.34477  0.037525887  0.038048615            3 
  628000    1.1544733   -6.5945806    282.79279  0.037525582  0.038042837            4 
  629000     1.143605   -6.5729182    283.49958  0.037559562  0.038037035            2 
  630000    1.1560564   -6.6147111    283.01324  0.037435613  0.038031394            2 
  631000    1.1482516   -6.6235219    283.10985  0.037389045  0.038025496            2 
  632000    1.1477494    -6.586549    283.85203  0.037427746  0.038019684            2 
  633000    1.1335692   -6.6105438    283.98213  0.037385747  0.038013426            2 
  634000    1.1481905    -6.602392    285.39716   0.03751277   0.03800722            2 
  635000    1.1539098   -6.6074998    285.40702   0.03745499  0.038000728            2 
  636000    1.1758045   -6.6257661    284.57901  0.037287606  0.037993758            2 
  637000    1.1058294   -6.6078833    285.55275  0.037356456  0.037986763            2 
  638000     1.175166   -6.6533511    285.46653  0.037286642  0.037980254            2 
  639000    1.1439652   -6.6433148    285.79614  0.037271275  0.037973968            7 
  640000    1.1239599   -6.6201066    287.14186  0.037388263  0.037967211            4 
  641000      1.16679   -6.6178779    287.05507  0.037318651  0.037960834            3 
  642000    1.1607525   -6.5666842    287.67305  0.037340739  0.037954086            4 
  643000    1.1390783   -6.6073368    287.44237   0.03725277  0.037947615            1 
  644000    1.1366465   -6.6243873    287.63999  0.037220495  0.037940735            3 
  645000    1.1374561   -6.6038279    289.73601  0.037433592  0.037934076            2 
  646000    1.1702552   -6.6024893    289.37045  0.037328489  0.037928122            4 
  647000    1.1530697   -6.6089335    289.49356  0.037286651  0.037922065            1 
  648000    1.1360383   -6.6122321    290.26893  0.037328823  0.037915853            2 
  649000    1.1399491   -6.6411155    290.58687  0.037312131  0.037909396            6 
  650000    1.1414685   -6.6165151    291.37511  0.037355783  0.037903252            3 
  651000     1.147525   -6.6259791    291.48273  0.037312177  0.037897642            2 
  652000    1.1457153   -6.6460455    291.18231  0.037216553  0.037891581            1 
  653000    1.1732052   -6.6421376    292.11912  0.037279111  0.037885375            2 
  654000    1.1645854   -6.6128881    292.24955   0.03723873  0.037878725            1 
  655000     1.134015   -6.6059671    293.28558  0.037313687  0.037872427            2 
  656000     1.144214   -6.6362414    293.24405  0.037251531   0.03786611            2 
  657000    1.1416629   -6.6245538    293.16661  0.037185008  0.037859819            5 
  658000    1.1705394   -6.6273886    294.50276  0.037297715  0.037853542            7 
  659000    1.1135348   -6.6336987    295.10252   0.03731696  0.037847653            2 
  660000    1.1386098   -6.6043267    294.99603  0.037246973  0.037841886            2 
  661000    1.1532864   -6.6120537     295.4034  0.037241981  0.037835498            2 
  662000    1.1522278   -6.6516278    296.36159  0.037306343  0.037829102            3 
  663000     1.171992   -6.6145166    296.48111  0.037265097  0.037823027            2 
  664000    1.1332424   -6.6284045     296.5564  0.037218424  0.037817208            1 
  665000     1.131034   -6.6529153     297.5472  0.037286616  0.037811652            2 
  666000    1.1132623   -6.6121135    297.38015  0.037209728  0.037806013            2 
  667000    1.1165834   -6.6220508    297.66196  0.037189151  0.037799721            2 
  668000    1.1119803   -6.6673921    298.69692  0.037262589   0.03779358            2 
  669000    1.1408272   -6.6011884    299.27838   0.03727932  0.037787561            2 
  670000      1.15646    -6.603869    299.91331   0.03730265  0.037782095            1 
  671000    1.1280901   -6.6177586    300.34839  0.037301092  0.037776784            3 
  672000    1.1257069   -6.6281513    300.82519  0.037304711  0.037771588            2 
  673000    1.1549035   -6.6499523    300.47365  0.037205751  0.037766091            3 
  674000    1.1387161   -6.6141174    301.49899  0.037277323  0.037760114            3 
  675000     1.140502   -6.6448739    302.14375  0.037301698  0.037754654            1 
  676000    1.1442048   -6.6349196    302.37118  0.037274553  0.037749141            4 
  677000    1.1442693   -6.6627307    300.70349  0.037014216  0.037742778            5 
  678000     1.119573   -6.6080801    302.26671  0.037151759  0.037736275            1 
  679000    1.1351913   -6.6023523    301.76033  0.037034896  0.037729691            3 
  680000    1.1246631   -6.6311305    302.20947  0.037035474  0.037723067            1 
  681000     1.128161   -6.6277787    303.66758  0.037159517  0.037716503            2 
  682000    1.1512125   -6.6228855    303.53952  0.037089384  0.037710065            2 
  683000    1.1172153   -6.6628482    304.46579  0.037148096  0.037703806            3 
  684000    1.1306029   -6.5863374    305.53906  0.037224544  0.037697509            2 
  685000    1.1472919   -6.6376032    305.21988  0.037131372  0.037691315            4 
  686000    1.1169554   -6.6148014    305.43471  0.037103342  0.037684807            3 
  687000    1.1354271   -6.6420587    305.80001  0.037093645  0.037678227            4 
  688000    1.1451789   -6.6443337    306.71912  0.037151057  0.037671857            1 
  689000     1.128845   -6.6343709    306.76812  0.037103063  0.037665826            1 
  690000    1.1657264   -6.6252079    307.87891  0.037183443  0.037659841            1 
  691000    1.1421728    -6.646422    308.16045  0.037163586  0.037654147            2 
  692000    1.1040863   -6.6089973    309.00808  0.037211955  0.037648638            1 
  693000    1.1002295   -6.6579382    309.47915  0.037214905  0.037642852            2 
  694000    1.1355232   -6.6344678    308.95373   0.03709819  0.037637196            6 
  695000    1.1664245   -6.6269023    308.85002  0.037032377  0.037631467            3 
  696000    1.1295736   -6.6530915    310.61334  0.037190295  0.037625677            3 
  697000    1.1295331   -6.6625104    309.34201  0.036984936  0.037619705            4 
  698000     1.145352   -6.6218102     309.9887  0.037009158  0.037613113            4 
  699000    1.1228367   -6.6169104    311.95542   0.03719068  0.037607045            4 
  700000    1.1560229   -6.6683914    309.31561  0.036823286  0.037600359            2 
  701000    1.1408204   -6.6767155    310.58257   0.03692137  0.037593435            6 
  702000    1.1287731   -6.6383977     312.0453  0.037042415  0.037586742            3 
  703000    1.1394998    -6.631712    313.44038  0.037155095  0.037580531            2 
  704000    1.1534181   -6.6588924    312.91922  0.037040627  0.037575161            3 
  705000    1.1007083   -6.6019111    314.75555  0.037205148  0.037569373            2 
  706000    1.1347063   -6.6548054    313.94883  0.037057227   0.03756358            2 
  707000    1.1635085   -6.6788789    313.18085  0.036914291  0.037557386            6 
  708000    1.1260568   -6.6291238    314.11536  0.036972147  0.037550891            4 
  709000    1.1524589   -6.6417119    313.68745  0.036869704  0.037544509            3 
  710000     1.130745   -6.6295438    315.08287  0.036981558  0.037538683            3 
  711000    1.1219287   -6.6617166     314.3242  0.036840624  0.037532577            3 
  712000    1.1538901   -6.6741487    315.48954  0.036925274  0.037525762            2 
  713000    1.1243366   -6.6639802    315.47464  0.036871743  0.037518666            3 
  714000    1.1442387   -6.6189104    315.38546  0.036809695  0.037511474            1 
  715000    1.1224412   -6.6766485    315.90741  0.036819045  0.037504321            1 
  716000     1.142496   -6.6289836    315.34236  0.036701858  0.037496742            2 
  717000    1.1210674   -6.6700391     314.9978  0.036610623  0.037488679            2 
  718000    1.1376556   -6.6585298    316.68042  0.036754923  0.037480856            2 
  719000    1.1373847   -6.6443778    316.87559  0.036726425  0.037473394            2 
  720000    1.1139771    -6.647189    318.23851  0.036833161  0.037466367            4 
  721000     1.143314   -6.6128627     317.9938  0.036753791  0.037459285            2 
  722000    1.1355739    -6.625931     319.1718  0.036838851  0.037452754            3 
  723000    1.1246069   -6.6325844    320.34456  0.036923071  0.037445912            2 
  724000    1.1429907   -6.6315017     320.6962  0.036912546  0.037439043            1 
  725000    1.1344841   -6.6328543    319.74627  0.036752445  0.037432271            2 
  726000    1.1317991   -6.6730207    320.66082  0.036806798  0.037425514            1 
  727000    1.1601973   -6.6879111    320.87366  0.036780567  0.037418862            3 
  728000    1.1212925   -6.6093037    321.78074  0.036833876  0.037411975            3 
  729000    1.1435013   -6.6426961    321.96433  0.036804336  0.037405502            3 
  730000    1.1393703    -6.659257    321.72362   0.03672644  0.037399368            2 
  731000    1.1261296   -6.6124019    323.07083  0.036829779  0.037393156            4 
  732000    1.1251414   -6.6291652    324.38875  0.036929503  0.037387005            3 
  733000    1.1385242   -6.6786799    324.18442  0.036855891  0.037380737            4 
  734000     1.127174   -6.6550325    324.82633  0.036878557  0.037374629            3 
  735000    1.1169856   -6.6568072    324.50304  0.036791728  0.037368133            3 
  736000    1.1436871   -6.6449202    325.36321  0.036839132  0.037361648            2 
  737000    1.1507161   -6.6654378    325.66258  0.036822996  0.037355295            3 
  738000    1.1507618   -6.6245016    327.32673  0.036961013  0.037349316            2 
  739000    1.1404039   -6.6435969    327.59812  0.036941601  0.037343332            3 
  740000    1.1141624    -6.651278    326.49029  0.036766924  0.037337051            3 
  741000    1.1195704   -6.6632916    326.96671  0.036770885  0.037330544            2 
  742000    1.1328127   -6.6900043    327.19653   0.03674714  0.037324113            4 
  743000    1.1442826   -6.6225749    327.66376  0.036750086  0.037318097            2 
  744000    1.1417759   -6.6639448    328.47403  0.036791446  0.037311985            1 
  745000     1.136541   -6.6825853    328.09103   0.03669922    0.0373056            4 
  746000    1.1397803   -6.6160233    330.18391  0.036883815  0.037299163            7 
  747000    1.1308191   -6.6449681    330.17886  0.036833876  0.037292984            2 
  748000    1.1324727   -6.6298915    330.46707  0.036816742  0.037286975            2 
  749000    1.1776664   -6.6986989     329.4576  0.036655274  0.037280367            3 
  750000    1.1277822   -6.6998631    329.63086  0.036625651  0.037273931            3 
  751000     1.151878   -6.6633318    331.98057  0.036837614  0.037267697            1 
  752000    1.1165327   -6.6437265    331.32967  0.036716497  0.037261758            2 
  753000    1.1345968   -6.6544792    331.92123  0.036733204  0.037255391            1 
  754000    1.1363122    -6.685799    331.84201   0.03667573  0.037249008            3 
  755000      1.13902   -6.6361816    333.03097  0.036758385  0.037242807            2 
  756000    1.1133393   -6.6319387    334.08764  0.036826239  0.037236775            2 
  757000    1.1083554   -6.6141942    334.33283  0.036804583  0.037230937            2 
  758000    1.1344983   -6.6794016    334.26314  0.036748367  0.037224882            2 
  759000    1.1302079   -6.6649211    334.37218  0.036711921  0.037218828            3 
  760000    1.1219829    -6.651724    335.72514  0.036811967  0.037213009            3 
  761000     1.140224   -6.6190018    336.20512  0.036816154  0.037207486            2 
  762000    1.1325607   -6.6789886     334.8211  0.036616481  0.037201508            2 
  763000    1.1469865   -6.6609862    337.12129  0.036819713  0.037195741            1 
  764000    1.1070064   -6.6194814    337.16749  0.036776558  0.037189755            3 
  765000    1.1406969   -6.6457319    337.87061  0.036805077  0.037184107            3 
  766000    1.1461033   -6.6824213    337.18883  0.036682858  0.037178511            4 
  767000    1.1350548   -6.6568883    337.90885  0.036713261  0.037173051            2 
  768000    1.1523271   -6.6501788    338.21694  0.036698887  0.037167453            2 
  769000     1.112771   -6.6845571    338.47777  0.036679429  0.037161348            6 
  770000    1.0998479   -6.6620193    338.40702  0.036624137  0.037155144            4 
  771000    1.1173887   -6.6539869    339.10426  0.036651995  0.037148636            3 
  772000    1.1137105   -6.6297518    339.63578  0.036661893  0.037142357            3 
  773000    1.1153414   -6.6465162    340.11307   0.03666592  0.037136075            2 
  774000    1.1320568   -6.6483236    339.91315  0.036597023   0.03712961            2 
  775000    1.1279913   -6.6656321    340.20135   0.03658079  0.037123182            2 
  776000    1.1115949   -6.6459622    341.27343  0.036648779  0.037116509            2 
  777000    1.1148672   -6.6730043    341.05365  0.036578041  0.037109271            2 
  778000    1.1289862   -6.6548094    340.08535  0.036427308  0.037101718            4 
  779000    1.1302894   -6.6549509     341.2572  0.036505904  0.037094619            2 
  780000    1.1193617   -6.6100616    342.42023  0.036583357   0.03708742            2 
  781000    1.1146956   -6.6527382       342.38  0.036532223  0.037080306            3 
  782000    1.1479742   -6.6673435    342.36297  0.036483693  0.037073183            2 
  783000    1.1171395   -6.6202097    343.40448  0.036547944  0.037066248            1 
  784000    1.1374497   -6.6718013    344.04933  0.036569869  0.037059213            2 
  785000    1.1268331   -6.6236982    344.28829  0.036548651   0.03705205            4 
  786000    1.1467599   -6.6335478      343.702  0.036439991  0.037045138            3 
  787000    1.1467882   -6.6778217    345.02174  0.036533433  0.037038688            4 
  788000    1.1200569   -6.6083566    345.41103  0.036528239  0.037031751            3 
  789000    1.1544974   -6.6521947      345.064   0.03644529  0.037024682            5 
  790000    1.1517987   -6.6517262    345.24316  0.036418055  0.037017775            2 
  791000     1.117579   -6.6661231    346.39892  0.036493776  0.037010879            4 
  792000     1.129018   -6.6857193    345.95857  0.036401364  0.037003493            1 
  793000     1.131892   -6.6474275    345.96118  0.036355736  0.036996167            2 
  794000    1.1048225   -6.6557343    347.50491  0.036471968  0.036989015            3 
  795000    1.1226969   -6.6556297    347.50082  0.036425662  0.036981865            3 
  796000    1.0982525   -6.6357647    348.53158  0.036487812   0.03697481            3 
  797000    1.0994926   -6.6442553    348.67053  0.036456559  0.036967509            2 
  798000    1.1447047   -6.6907253    348.50612  0.036393705  0.036960468            3 
  799000    1.1310737   -6.6585705    348.78488   0.03637723  0.036953246            3 
  800000    1.1176938   -6.6837972    348.02765   0.03625288    0.0369455            3 
  801000    1.1422982   -6.6665582    348.91341  0.036299772  0.036937547            3 
  802000    1.1371767   -6.6952311    348.73956  0.036236446  0.036929846            1 
  803000    1.1316531   -6.6579575    347.87525  0.036101624  0.036921772            3 
  804000    1.1192467   -6.6333749    349.28897  0.036203252  0.036913302            2 
  805000    1.1522039   -6.7036099    351.05974  0.036341588  0.036905438            3 
  806000    1.1286028   -6.6790533    351.18984  0.036309951  0.036897583            2 
  807000     1.144064   -6.7081821    349.73156   0.03611437  0.036889633            7 
  808000    1.1368095   -6.6677287    350.47274  0.036146116  0.036881718            3 
[...]
 4800000   0.48696432   -8.0049808     789.6682  0.013709517  0.012233374           13 
 4801000   0.47905956   -8.0141316    789.77563  0.013708527  0.012229504           19 
 4802000   0.48664603   -7.9978074    789.20892  0.013695837  0.012225634           16 
 4803000   0.48060964   -8.0087786    788.07958  0.013673391  0.012221763           14 
 4804000   0.47914902   -8.0016314    788.01538  0.013669431  0.012217892           13 
 4805000   0.48779856   -8.0058644    790.16261  0.013703826  0.012214026           17 
 4806000   0.48092983   -8.0140164    788.04449  0.013664248  0.012210159           18 
 4807000   0.47907373   -8.0092958    788.28408  0.013665558  0.012206293           24 
 4808000   0.48564805   -8.0222764     789.4642   0.01368317  0.012202428           19 
 4809000   0.47204482   -7.9991232    789.34245  0.013678215   0.01219857           16 
 4810000   0.48321394   -7.9945845    788.50467  0.013660857   0.01219471           30 
 4811000   0.47794762   -8.0013851    788.62639  0.013660126  0.012190851           19 
 4812000   0.47243271   -8.0050445    789.98594  0.013680832  0.012186998           18 
 4813000   0.48494876   -8.0068811    789.21855  0.013664702  0.012183141           16 
 4814000    0.4752634   -8.0060137    789.47901  0.013666373  0.012179289           15 
 4815000   0.48508995   -8.0133736    788.81739  0.013652084  0.012175434           17 
 4816000   0.48063831   -7.9984697    787.90635  0.013633485  0.012171583           30 
 4817000    0.4951776    -8.001673    790.66894  0.013678447  0.012167732           16 
 4818000    0.4886595   -8.0118878    789.01757  0.013647045  0.012163884           13 
 4819000    0.4649377   -7.9948858     789.0408  0.013644615  0.012160035           19 
 4820000   0.48959364   -8.0246227    787.87523  0.013621633  0.012156185           17 
 4821000   0.48970976   -8.0132453    788.06981  0.013622171  0.012152337           20 
 4822000   0.47569013   -8.0245212    787.76384  0.013614058  0.012148493           13 
 4823000   0.47736486    -7.986605    788.09097  0.013616887  0.012144649           13 
 4824000   0.47868198   -8.0089063    789.60388    0.0136402  0.012140807           15 
 4825000   0.48568914   -8.0080334    789.50962  0.013635745  0.012136966           19 
 4826000   0.47879886   -8.0103548     787.9923  0.013606719  0.012133126           20 
 4827000    0.4880233   -8.0019343    787.80153  0.013600606   0.01212929           23 
 4828000   0.47387431   -8.0024069    787.88377  0.013599209  0.012125454           22 
 4829000   0.48342134   -8.0106948    789.05465  0.013616599  0.012121618           14 
 4830000   0.47505405   -8.0045402    787.80317  0.013592187  0.012117782           14 
 4831000   0.47778368   -8.0283084    789.44881   0.01361776  0.012113947           19 
 4832000   0.46662407   -7.9921794    789.28816  0.013612172  0.012110119           22 
 4833000   0.47019619   -8.0217407    788.98494  0.013604127  0.012106287           28 
 4834000    0.4937789   -8.0228333    787.31195  0.013572472   0.01210246           20 
 4835000   0.48508626   -8.0009321    787.34604  0.013570252  0.012098635           27 
 4836000   0.48267978   -8.0125255    788.70292  0.013590828  0.012094812           15 
 4837000   0.48130391   -7.9952286    787.83392  0.013573047  0.012090989           30 
 4838000   0.47016554   -8.0213751    788.42031  0.013580342  0.012087167           16 
 4839000   0.47395976     -8.00839    787.71425  0.013565376  0.012083344           15 
 4840000    0.4823998   -8.0100234    786.13131  0.013535319  0.012079526           19 
 4841000   0.47797905    -8.016485    788.79339  0.013578348  0.012075704           22 
 4842000   0.47113075   -8.0040308    787.63541  0.013555614  0.012071886           19 
 4843000   0.48209159   -8.0132852    787.77672  0.013555247  0.012068072           23 
 4844000   0.48294069   -8.0122386    788.38004  0.013562828  0.012064259           17 
 4845000   0.47456737   -8.0051277    788.63518  0.013564417  0.012060445           15 
 4846000   0.47456064   -8.0083002    788.23869  0.013554799  0.012056636           23 
 4847000   0.48367219   -8.0148975    787.89273  0.013546055  0.012052825           21 
 4848000   0.46716289   -8.0101477    789.57741  0.013572219  0.012049016           20 
 4849000   0.47155279   -8.0131657    787.67963  0.013536805  0.012045208           22 
 4850000   0.47442407   -8.0178944    789.04535   0.01355748  0.012041402           18 
 4851000   0.47820191   -8.0063906    789.65341  0.013565131  0.012037601           18 
 4852000   0.47149851   -8.0069293    787.44583   0.01352442  0.012033801           18 
 4853000   0.48770126   -8.0122671    787.22796  0.013517892  0.012030001           38 
 4854000   0.47709095   -8.0150643    786.42146  0.013501261  0.012026205           12 
 4855000   0.47629958    -8.017603    787.87976  0.013523511  0.012022408           19 
 4856000   0.47989552   -8.0242539    788.32303  0.013528333  0.012018613           14 
 4857000   0.47381675   -8.0100237    788.29624  0.013525088  0.012014822           11 
 4858000   0.48044351   -8.0223402    788.35892  0.013523379  0.012011027           14 
 4859000   0.47727013   -8.0163303    787.39013  0.013503981  0.012007233           20 
 4860000   0.47777658   -8.0144367    788.84535  0.013526155  0.012003441           13 
 4861000   0.47582353   -8.0112868    788.05773   0.01350987  0.011999653           22 
 4862000   0.47604143   -8.0209983    788.64442  0.013517147  0.011995862           24 
 4863000    0.4694828   -8.0149015    787.53666  0.013495384  0.011992075           20 
 4864000   0.46240218   -8.0230875    788.07946   0.01350191  0.011988289           24 
 4865000   0.46844473   -8.0324489    787.82105  0.013494708  0.011984505           21 
 4866000   0.47049736   -8.0184596    787.62483  0.013488574  0.011980723           21 
 4867000    0.4718131   -8.0181788    788.65549   0.01350345  0.011976943           16 
 4868000   0.46767967   -8.0207488     787.8979  0.013487707  0.011973162           17 
 4869000   0.46393047   -8.0224674    786.70656  0.013464547  0.011969386           17 
 4870000   0.46832886   -8.0049529    788.43288  0.013491322  0.011965614           12 
 4871000    0.4798666    -8.017971    788.77299  0.013494371  0.011961839           16 
 4872000   0.47693806      -8.0225     789.2591  0.013499916  0.011958066           11 
 4873000   0.46794702   -8.0086338    788.11489  0.013477579  0.011954296           18 
 4874000   0.47010603   -8.0263805    787.79415   0.01346933  0.011950526           15 
 4875000   0.47400737   -8.0227445    788.03577  0.013470697  0.011946754           13 
 4876000   0.47592582   -8.0026594    787.44333  0.013457809  0.011942988           19 
 4877000   0.46841233   -8.0134872    787.88319  0.013462566  0.011939224           17 
 4878000   0.47019594    -8.032476    787.19172  0.013447993   0.01193546           15 
 4879000   0.46859855   -8.0210178    787.79138  0.013455479  0.011931697           12 
 4880000   0.48162763   -8.0201436     786.5505  0.013431532  0.011927933           17 
 4881000    0.4803665   -8.0293044    787.06966  0.013437644  0.011924171           18 
 4882000   0.47259193   -8.0236059    787.73782  0.013446296  0.011920412           20 
 4883000   0.47347915   -8.0066618     786.9652  0.013430357  0.011916659           37 
 4884000   0.46906313   -8.0268464    787.61531    0.0134387  0.011912904           14 
 4885000    0.4767589   -8.0269764    789.06219  0.013460631   0.01190915           13 
 4886000   0.46919656   -8.0213112    788.34873  0.013445708  0.011905397           14 
 4887000   0.47494149   -8.0156571    787.20437  0.013423443  0.011901644           19 
 4888000   0.46831575   -8.0126452    787.93539  0.013433159  0.011897895           10 
 4889000   0.46670473   -8.0182344    787.86779  0.013429259  0.011894153           30 
 4890000   0.47713224    -8.020299    788.04775   0.01342958   0.01189041           19 
 4891000   0.46262818   -8.0132748    788.87748  0.013440971  0.011886667           17 
 4892000   0.47203209   -8.0098085    787.74422  0.013418919  0.011882923           16 
 4893000   0.46683244   -8.0198241    789.46486  0.013445481  0.011879185           12 
 4894000   0.46234145   -8.0078683    788.12291  0.013419883  0.011875444           18 
 4895000   0.46510737   -8.0402824    787.81058  0.013411825  0.011871702           12 
 4896000   0.46490381   -8.0096542    788.23468  0.013416304  0.011867963           14 
 4897000   0.47864773   -8.0206423    788.15521  0.013412212  0.011864223           15 
 4898000   0.46532688   -8.0351222    787.35818  0.013395913  0.011860487           15 
 4899000   0.47826377   -8.0177221    788.15611  0.013406752   0.01185675           19 
 4900000   0.46164245   -8.0252292    787.09915   0.01338604  0.011853015           20 
 4901000   0.46910031   -8.0246719    787.85631  0.013396183  0.011849281           16 
 4902000   0.46911873   -8.0288518    787.16706  0.013381733  0.011845551           33 
 4903000   0.47031355   -8.0243263    787.16409  0.013378953  0.011841819           12 
 4904000   0.48334644   -8.0327144    787.30856   0.01337868  0.011838091           17 
 4905000   0.46248901   -8.0177208    788.74447  0.013400348  0.011834365           14 
 4906000   0.46468905   -8.0233071    788.88264  0.013399963  0.011830642           14 
 4907000   0.46571457   -8.0292071    787.63063   0.01337597  0.011826919           18 
 4908000   0.46841591   -8.0422683    788.28077  0.013384284  0.011823201           16 
 4909000   0.47316581   -8.0233656    788.40036  0.013383587  0.011819481           22 
 4910000   0.47444577   -8.0271777    787.02604  0.013357536   0.01181576           15 
 4911000    0.4702369   -8.0378185     787.5061  0.013362962  0.011812039           16 
 4912000   0.46567426   -8.0217618    787.71241  0.013363742  0.011808321           12 
 4913000   0.46797749   -8.0350273    787.79002  0.013362338  0.011804606           16 
 4914000   0.46568733   -8.0220746    788.42511  0.013370389  0.011800892           19 
 4915000    0.4715351    -8.016641    786.55914  0.013336032  0.011797179           12 
 4916000   0.46808143   -8.0211504    786.41599  0.013330892  0.011793466           14 
 4917000   0.45771094   -8.0273823    787.90314  0.013353385  0.011789754           23 
 4918000   0.45805772   -8.0280279     788.6467  0.013363269  0.011786045           47 
 4919000   0.46707925    -8.026888    786.60776  0.013326011  0.011782333           15 
 4920000   0.47072276   -8.0333493    787.60554  0.013340202  0.011778627           20 
 4921000   0.46906269   -8.0338724     786.6594  0.013321469  0.011774918           22 
 4922000   0.45232535   -8.0291176    786.76722  0.013320588  0.011771212           19 
 4923000   0.46905114   -8.0284052    786.61221  0.013315259  0.011767508           24 
 4924000   0.46605668   -8.0279321    786.26408  0.013306663  0.011763806           13 
 4925000   0.46610934    -8.027612    786.62492  0.013310066  0.011760108           14 
 4926000   0.46174236   -8.0292675    787.28062  0.013318457  0.011756411           15 
 4927000    0.4695356   -8.0277771    788.34914  0.013333826  0.011752715           12 
 4928000   0.46803167   -8.0253994     786.7985  0.013304899  0.011749019           40 
 4929000   0.46601178   -8.0254126    788.51665  0.013331248  0.011745324           14 
 4930000   0.46484626   -8.0377183     788.2853  0.013324633  0.011741632           20 
 4931000   0.45339509   -8.0359549    787.24579  0.013304363  0.011737944           19 
 4932000   0.47231218   -8.0516897    788.11937  0.013316426  0.011734255           31 
 4933000   0.46009477   -8.0348332     786.5543  0.013287288   0.01173057           15 
 4934000   0.46200759   -8.0251136     786.3068  0.013280415  0.011726882           16 
 4935000    0.4711949   -8.0379919    787.05075  0.013290286  0.011723198           19 
 4936000   0.47212124   -8.0330056    787.43141   0.01329402  0.011719513           35 
 4937000    0.4596589   -8.0171496    787.05589  0.013284989   0.01171583           13 
 4938000   0.45368816   -8.0336864    786.83052  0.013278495  0.011712149           19 
 4939000    0.4585447   -8.0342239    787.68121   0.01329016  0.011708468           21 
 4940000   0.46626867   -8.0342754    788.39667  0.013299539  0.011704787           20 
 4941000   0.45931127   -8.0409571    786.40554  0.013263266   0.01170111           31 
 4942000   0.46975551   -8.0281927    786.88769  0.013268712  0.011697431           32 
 4943000   0.46173142   -8.0341424    786.81105  0.013264735  0.011693755           21 
 4944000    0.4593229   -8.0348614    786.73782  0.013260818  0.011690081           23 
 4945000   0.46006465   -8.0311026    787.49544  0.013270904  0.011686411           36 
 4946000   0.45987029   -8.0315855    787.32125  0.013265286  0.011682742           18 
 4947000   0.45882953   -8.0289979    787.59342  0.013267189  0.011679074           10 
 4948000   0.46086502    -8.026892    787.56608  0.013264048  0.011675405           20 
 4949000   0.45913132   -8.0327872    787.26922  0.013256369  0.011671738           19 
 4950000   0.45392188   -8.0551215    786.44017  0.013239733  0.011668071           32 
 4951000   0.46108562   -8.0254553    786.73385  0.013242002  0.011664408           14 
 4952000   0.44967945   -8.0356962    787.39044  0.013250378  0.011660745           21 
 4953000   0.45119885    -8.032705    787.23018  0.013245006  0.011657082           13 
 4954000   0.46366087   -8.0523772    787.98979   0.01325511  0.011653418           26 
 4955000   0.45766263   -8.0529409    787.35945  0.013241834  0.011649758           15 
 4956000     0.457111   -8.0336541    786.64439  0.013227139    0.0116461           25 
 4957000   0.45842586   -8.0408372    786.92256  0.013229147  0.011642443           26 
 4958000   0.45607484   -8.0500496    787.21131  0.013231332  0.011638786           17 
 4959000   0.46631769     -8.03976    786.95572  0.013224369  0.011635132           32 
 4960000   0.45953053   -8.0401231    787.62051  0.013232871   0.01163148           23 
 4961000   0.45626504   -8.0355331    786.82877  0.013216905  0.011627828           16 
 4962000   0.46203158   -8.0465127    787.64357  0.013227925  0.011624178           18 
 4963000   0.46225674   -8.0362042    786.75341  0.013210313   0.01162053           20 
 4964000   0.45323651   -8.0402489    788.36476  0.013234703  0.011616884           17 
 4965000   0.45453851   -8.0290741    787.10722   0.01321093  0.011613237           20 
 4966000   0.46573054    -8.041583    788.28289  0.013227999  0.011609596           19 
 4967000   0.44944461   -8.0267915     787.2577  0.013208135  0.011605955           18 
 4968000   0.46581175   -8.0452353    786.55878  0.013193753  0.011602316           28 
 4969000   0.46222813   -8.0345842    787.24818  0.013202659  0.011598676           19 
 4970000   0.46350353   -8.0354665    786.84864  0.013193304  0.011595037           13 
 4971000   0.45277556   -8.0433236    786.90145  0.013191535  0.011591399           20 
 4972000   0.45215675   -8.0318324    785.23759  0.013160995  0.011587765           24 
 4973000     0.454262   -8.0350761    787.47354  0.013195816  0.011584133           21 
 4974000   0.46182967   -8.0416543     787.2267  0.013189028    0.0115805           10 
 4975000     0.450052    -8.028271     786.6985  0.013177529  0.011576869           17 
 4976000   0.45376312   -8.0374743    787.19663  0.013183223  0.011573239           32 
 4977000    0.4540703   -8.0412504    787.08557  0.013178715  0.011569607           16 
 4978000   0.45648275   -8.0376711    785.71659   0.01315315   0.01156598           13 
 4979000   0.45321469   -8.0482531    786.32331  0.013160663  0.011562353           32 
 4980000   0.45524157   -8.0351336    786.59806  0.013162618  0.011558728           13 
 4981000   0.46073199   -8.0561011    787.22104  0.013170398  0.011555105           30 
 4982000   0.45270964   -8.0432668    786.97096  0.013163572  0.011551484           28 
 4983000   0.46221626   -8.0379573    786.71699  0.013156683  0.011547864           30 
 4984000   0.45467371   -8.0456332     787.5509  0.013167986  0.011544245           18 
 4985000   0.45089983   -8.0496886    787.39721  0.013162775  0.011540628           18 
 4986000    0.4545183   -8.0263752    787.11658  0.013155445  0.011537013           19 
 4987000    0.4463652   -8.0361447    786.85843  0.013148493  0.011533399           15 
 4988000   0.47129214    -8.035424    787.93226  0.013163797   0.01152979           29 
 4989000   0.45367662   -8.0465841    787.36823  0.013151738  0.011526179           33 
 4990000   0.44509986   -8.0391085    787.62133  0.013153329   0.01152257           16 
 4991000   0.45135227   -8.0393816    786.76419  0.013136382   0.01151896           33 
 4992000   0.45258952   -8.0374098    785.89098  0.013119174  0.011515352           20 
 4993000   0.45955301    -8.036203    786.50628  0.013126816  0.011511748           25 
 4994000    0.4522214   -8.0553679    786.17575  0.013118672  0.011508143           21 
 4995000   0.45647274   -8.0268145     786.0575  0.013114072  0.011504541           16 
 4996000   0.45336059   -8.0194059    786.03992  0.013111154   0.01150094           31 
 4997000   0.44635551   -8.0462558    787.07499  0.013125792  0.011497338           14 
 4998000   0.44604752   -8.0447123    786.24943  0.013109401  0.011493739           14 
 4999000    0.4593539   -8.0506469    786.36672  0.013108734  0.011490142           19 
 5000000   0.45419477   -8.0592975     786.6634  0.013111057  0.011486545           13 
 5001000   0.45889042   -8.0419327    786.79964  0.013110705   0.01148295           24 
 5002000   0.45243625   -8.0604488    786.85381  0.013108987  0.011479358           22 
 5003000   0.45342785   -8.0517729    785.61126   0.01308567  0.011475764           19 
 5004000   0.44804022   -8.0449432    786.57743  0.013099145  0.011472174           19 
 5005000   0.45531655   -8.0592902    786.72012  0.013098903  0.011468586           22 
 5006000   0.45368935   -8.0364205    786.09301  0.013085847  0.011464998           20 
 5007000   0.45336262   -8.0439611    786.52076  0.013090353   0.01146141           40 
 5008000   0.44443812   -8.0350858    786.82124  0.013092739  0.011457826           16 
 5009000   0.45478201   -8.0440392    786.31114  0.013081639  0.011454241           21 
 5010000   0.45510437   -8.0537626    786.28942  0.013078666  0.011450658           15 
 5011000   0.43477434   -8.0467262    786.36603   0.01307733  0.011447074           28 
 5012000   0.45176578   -8.0590124    785.64924  0.013062803  0.011443491           25 
Loop time of 11264.6 on 48 procs for 5000000 steps with 4000 atoms

Performance: 76700.733 tau/day, 443.870 timesteps/s
99.4% CPU use with 48 MPI tasks x no OpenMP threads

MPI task timing breakdown:
Section |  min time  |  avg time  |  max time  |%varavg| %total
---------------------------------------------------------------
Pair    | 712.96     | 748.89     | 792.58     |  63.4 |  6.65
Neigh   | 71.587     | 73.671     | 75.502     |  10.6 |  0.65
Comm    | 664.39     | 707.55     | 748.25     |  74.0 |  6.28
Output  | 13.286     | 13.29      | 13.381     |   0.4 |  0.12
Modify  | 9581.5     | 9606.7     | 9640       |  13.4 | 85.28
Other   |            | 114.4      |            |       |  1.02

Nlocal:        83.3333 ave          92 max          74 min
Histogram: 1 2 3 9 5 9 11 4 2 2
Nghost:        1886.40 ave        1905 max        1862 min
Histogram: 5 2 0 5 4 8 10 6 4 4
Neighs:        11814.0 ave       13198 max        9767 min
Histogram: 2 1 0 5 5 13 10 2 3 7
FullNghs:      23626.7 ave       26299 max       20632 min
Histogram: 1 2 3 5 11 10 6 6 1 3

Total # of neighbors = 1134080
Ave neighs/atom = 283.52000
Neighbor list builds = 268916
Dangerous builds = 1

#clear
#
#next RN
#
#jump SELF
Total wall time: 3:07:48
