
units lj                  # Use reduced LJ style units
atom_style atomic         # Uncharged point particles
atom_modify map hash      # Needed for indexing of clusters etc
                          # Used to be able to find where atoms are in relation to each other.

# Define a lattice with which to populate the simulation cell. With units
# set to 'lj' the second argument to the lattice command is the reduced
# density rho* and the spacings are multiples of that required to acheive
# that density. Also define a simulation cell called 'box' in lattice units
# and fill it with atoms. Here we're creating a box which is ten lattice
# constants in each direction.
lattice fcc 1.0 spacing 1 1 1                 # All equal sizes - gives the right reduced density.
Lattice spacing in x,y,z = 1.5874011 1.5874011 1.5874011

region box block 0 10 0 10 0 10 units lattice # Defines a region, "box", in lattice units
create_box 1 box                              # Creates a simulation box as specified above,
Created orthogonal box = (0.0000000 0.0000000 0.0000000) to (15.874011 15.874011 15.874011)
  2 by 4 by 4 MPI processor grid
                                              # with one type of atom
create_atoms 1 box                            # Creates particles on lattice points
Created 4000 atoms
  using lattice units in orthogonal box = (0.0000000 0.0000000 0.0000000) to (15.874011 15.874011 15.874011)
  create_atoms CPU = 0.001 seconds


# Set the mass of the first (and only) atom type.
mass 1 1.0

# Lennard-Jones interactions between particles, 3.5 sigma cut-off. Apply
# long range tail corrections to energy and pressure and set all coefficients
# to unity since we work in reduced units here. Note that this doesn't shift
# the potential such that it goes to zero at the cutoff. That would require
# pair_modify('shift', 'yes').
pair_style lj/cut  3.5      # non-GPU version
pair_modify tail  yes
pair_coeff 1  1  1.0  1.0   # Intearaction between 1 and 1 set with epsilon = 1 and sigma = 1

write_data data.*
System init for write_data ...
Neighbor list info ...
  update every 1 steps, delay 10 steps, check yes
  max neighbors/atom: 2000, page size: 100000
  master list distance cutoff = 3.8
  ghost atom cutoff = 3.8
  binsize = 1.9, bins = 9 9 9
  1 neighbor lists, perpetual/occasional/extra = 1 0 0
  (1) pair lj/cut, perpetual
      attributes: half, newton on
      pair build: half/bin/atomonly/newton
      stencil: half/bin/3d
      bin: standard

#############################
#   M E L T   S Y S T E M   #
#############################

velocity all create 2.4 2750902 mom yes dist gaussian # Assign velocities
                                                    # Temperature 2.4, random number seed, zero linear momentum
						                                                        # Gaussian distribution

timestep 0.002   # simulation timestep
thermo 100       # output thermodynamic data every 100 steps

# Define a fix  in this case with index 1 applied to all
# particles in the simulation. This fix is for simulations
# in the anisotropic NPT ensemble. Note that we use the MTK
# correction.
fix 1 all npt temp 2.4 2.4 0.1 iso 5.68 5.68 0.5 mtk yes tchain 5 pchain 5 # Use NPT ensemble
                                                                         # Set temperature and pressure and damping
                                                                         # Numbers of thermostats in chain and in barostat
run 1000         # run for 10000 steps
Per MPI rank memory allocation (min/avg/max) = 3.660 | 3.660 | 3.660 Mbytes
Step Temp E_pair E_mol TotEng Press Volume 
       0          2.4   -8.3859253            0   -4.7868253   -2.2405722         4000 
     100    1.2608475   -6.5235855            0   -4.6327871    5.4038563    4091.0951 
     200    1.4674745   -6.2960149            0   -4.0953535    6.0843453    4138.9956 
     300    1.5811347   -6.0195196            0   -3.6484105    5.8230308      4272.98 
     400    1.6903552   -5.7119813            0   -3.1770823    5.9377022    4398.4635 
     500    1.7989246   -5.4338299            0   -2.7361176    5.7946904    4546.9323 
     600    1.9022797   -5.1497661            0   -2.2970598    5.8333119    4691.4311 
     700    2.0414959   -4.9561197            0   -1.8946415    5.6184351    4842.6632 
     800    2.1308362   -4.7068196            0   -1.5113644    5.7371792    4975.4569 
     900    2.2803533   -4.5781415            0   -1.1584666    5.7093427    5072.7544 
    1000    2.3672823   -4.4702836            0  -0.92024792    5.6050301    5163.6463 
Loop time of 0.261994 on 32 procs for 1000 steps with 4000 atoms

Performance: 659556.240 tau/day, 3816.876 timesteps/s
99.1% CPU use with 32 MPI tasks x no OpenMP threads

MPI task timing breakdown:
Section |  min time  |  avg time  |  max time  |%varavg| %total
---------------------------------------------------------------
Pair    | 0.13402    | 0.13986    | 0.14735    |   1.1 | 53.38
Neigh   | 0.026052   | 0.02746    | 0.028685   |   0.4 | 10.48
Comm    | 0.064173   | 0.071679   | 0.077993   |   1.6 | 27.36
Output  | 0.00019485 | 0.00019949 | 0.00026727 |   0.0 |  0.08
Modify  | 0.017926   | 0.020924   | 0.024001   |   1.2 |  7.99
Other   |            | 0.001875   |            |       |  0.72

Nlocal:        125.000 ave         135 max         113 min
Histogram: 1 0 2 4 3 13 2 2 3 2
Nghost:        1662.72 ave        1680 max        1643 min
Histogram: 2 1 2 2 6 6 7 2 3 1
Neighs:        11066.0 ave       11928 max       10173 min
Histogram: 2 2 2 5 6 5 4 0 1 5

Total # of neighbors = 354112
Ave neighs/atom = 88.528000
Neighbor list builds = 89
Dangerous builds = 32

# Equilibrate just above the melting temperature to avoid step fn in T

fix 1 all npt temp 1.25 1.25 0.1 iso 5.68 5.68 0.5 mtk yes tchain 5 pchain 5
run 1000
Per MPI rank memory allocation (min/avg/max) = 3.661 | 3.661 | 3.661 Mbytes
Step Temp E_pair E_mol TotEng Press Volume 
    1000    2.3672823   -4.4702836            0  -0.92024792    5.6050301    5163.6463 
    1100    1.9569734    -4.706111            0   -1.7713848    5.4657034    5011.4174 
    1200    1.7262382   -4.9667701            0   -2.3780602    5.5966981    4817.3008 
    1300     1.587552    -5.220701            0   -2.8399684    5.6758355    4663.7229 
    1400    1.4738799   -5.4342144            0   -3.2239472    5.4755949    4569.2977 
    1500    1.3534378   -5.5295528            0   -3.4999037    5.6215529    4496.5144 
    1600    1.2908728   -5.6315259            0   -3.6957007    5.7257345     4433.469 
    1700    1.2788408   -5.7494795            0   -3.8316978    5.6735232     4386.563 
    1800     1.254965   -5.8228809            0   -3.9409041    5.4759615    4370.1173 
    1900     1.226926   -5.8280252            0   -3.9880963    5.6657418    4349.5824 
    2000    1.2829323   -5.8566878            0   -3.9327705    5.6371083    4341.9677 
Loop time of 0.2511 on 32 procs for 1000 steps with 4000 atoms

Performance: 688171.832 tau/day, 3982.476 timesteps/s
99.7% CPU use with 32 MPI tasks x no OpenMP threads

MPI task timing breakdown:
Section |  min time  |  avg time  |  max time  |%varavg| %total
---------------------------------------------------------------
Pair    | 0.13204    | 0.13835    | 0.14423    |   0.7 | 55.10
Neigh   | 0.022351   | 0.023216   | 0.02397    |   0.3 |  9.25
Comm    | 0.059799   | 0.067205   | 0.074738   |   1.2 | 26.76
Output  | 0.00019265 | 0.00019739 | 0.00025249 |   0.0 |  0.08
Modify  | 0.017266   | 0.019882   | 0.023094   |   1.1 |  7.92
Other   |            | 0.002245   |            |       |  0.89

Nlocal:        125.000 ave         131 max         119 min
Histogram: 2 3 5 2 4 4 3 2 3 4
Nghost:        1848.94 ave        1863 max        1828 min
Histogram: 1 0 1 1 3 11 7 3 2 3
Neighs:        13168.5 ave       13949 max       12671 min
Histogram: 5 6 5 1 3 2 3 4 1 2

Total # of neighbors = 421393
Ave neighs/atom = 105.34825
Neighbor list builds = 75
Dangerous builds = 6


# Small amount of linear quench

fix 1 all npt temp 1.25 ${temp} 0.1 iso 5.68 5.68 0.5 mtk yes tchain 5 pchain 5
fix 1 all npt temp 1.25 1 0.1 iso 5.68 5.68 0.5 mtk yes tchain 5 pchain 5
run 2000
Per MPI rank memory allocation (min/avg/max) = 3.661 | 3.662 | 3.662 Mbytes
Step Temp E_pair E_mol TotEng Press Volume 
    2000    1.2829323   -5.8566878            0   -3.9327705    5.6371083    4341.9677 
    2100    1.2352468   -5.8517236            0   -3.9993166     5.697492    4337.2659 
    2200    1.2268614   -5.8931785            0   -4.0533465    5.5436044    4332.4719 
    2300    1.2260824   -5.9106336            0   -4.0719697    5.7112575    4309.8951 
    2400    1.1961926   -5.9076835            0   -4.1138432    5.8417277    4296.7459 
    2500    1.2193926   -5.8755847            0   -4.0469531    6.2351428    4280.6356 
    2600    1.1893792    -5.915364            0   -4.1317413    5.8396961    4293.8413 
    2700    1.1744354   -5.9701963            0   -4.2089836    5.5010514    4300.6278 
    2800    1.1412321   -5.9682077            0   -4.2567874    5.4767423    4298.3284 
    2900    1.1371337   -6.0065734            0   -4.3012993    5.5944034    4273.5484 
    3000    1.1219661   -5.9996222            0   -4.3170938    5.7839036    4260.6903 
    3100    1.1188144    -6.047246            0   -4.3694439    5.7293421    4245.0525 
    3200    1.1039128   -6.0460827            0   -4.3906275    5.6765474    4247.2402 
    3300    1.0922853   -6.0657495            0   -4.4277312    5.6141543    4243.6977 
    3400    1.0723201   -6.0813499            0   -4.4732718     5.741063    4227.0294 
    3500    1.0588088   -6.1131278            0   -4.5253116    5.5824972    4226.3684 
    3600    1.0427949   -6.1304116            0   -4.5666103    5.6919541    4210.6808 
    3700    1.0453363   -6.1351188            0   -4.5675065    5.8232942    4198.4467 
    3800    1.0408454   -6.1821903            0   -4.6213126    5.8478448    4179.2262 
    3900    1.0263883    -6.195733            0   -4.6565354    6.0537974    4156.2759 
    4000   0.99839802   -6.2243581            0   -4.7271354    5.8502061    4160.1242 
Loop time of 0.525148 on 32 procs for 2000 steps with 4000 atoms

Performance: 658100.812 tau/day, 3808.454 timesteps/s
99.7% CPU use with 32 MPI tasks x no OpenMP threads

MPI task timing breakdown:
Section |  min time  |  avg time  |  max time  |%varavg| %total
---------------------------------------------------------------
Pair    | 0.28639    | 0.29658    | 0.30338    |   0.9 | 56.48
Neigh   | 0.039358   | 0.040469   | 0.041881   |   0.3 |  7.71
Comm    | 0.13124    | 0.14107    | 0.15607    |   1.4 | 26.86
Output  | 0.000388   | 0.0003955  | 0.00051764 |   0.0 |  0.08
Modify  | 0.037479   | 0.041355   | 0.045919   |   1.2 |  7.87
Other   |            | 0.005284   |            |       |  1.01

Nlocal:        125.000 ave         132 max         116 min
Histogram: 1 2 0 7 2 4 5 5 4 2
Nghost:        1902.44 ave        1918 max        1878 min
Histogram: 1 2 4 1 1 5 2 2 10 4
Neighs:        13740.1 ave       14529 max       12762 min
Histogram: 1 2 2 7 3 2 3 6 3 3

Total # of neighbors = 439683
Ave neighs/atom = 109.92075
Neighbor list builds = 126
Dangerous builds = 0

#############################
# F R E E Z E  S Y S T E M  #
#############################

# Define solid atoms. This closely follows ten Wolde  Ruiz-Montero and Frenkel  Faraday Discuss  1996  104  93-110
# Compute components of the per-atom q6 vector
compute q6 all orientorder/atom degrees 1 6 components 6 nnn NULL cutoff 1.3 # compute the Q6 parameter.
                                                                             # Use all neighbours within 1.3 unit cell.

# get number of connections
compute coord_number all coord/atom orientorder q6 0.5

# An atom is solid if it has 8 or more connections (of a possible 14)
variable is_solid atom c_coord_number>=8
group solid dynamic all var is_solid    # Must be dynamic to update
dynamic group solid defined

# do clustering
compute cluster solid cluster/atom 1.3 # Create a cluster where all atoms within are solid and max 1.3 units from another member

# define chunks one chunk per cluster
compute clus_chunks solid chunk/atom c_cluster nchunk every compress yes  # Says which atoms are in which chunk

# count the size of each chunk
compute size_chunks solid property/chunk clus_chunks count


# Find the maximum entry in the vector of chunk sizes
variable max_n equal max(c_size_chunks)


# Thermo style which includes this variable
thermo_style custom step temp pe vol v_max_n

thermo ${N}  # Print the thermo information every 100 steps
thermo 100  

# Reset the npt fix at a lower temperature (below freezing)
fix 1  all npt temp  ${temp} ${temp}  0.1  iso  5.68  5.68  0.5  mtk yes tchain  5  pchain  5
fix 1  all npt temp  1 ${temp}  0.1  iso  5.68  5.68  0.5  mtk yes tchain  5  pchain  5
fix 1  all npt temp  1 1  0.1  iso  5.68  5.68  0.5  mtk yes tchain  5  pchain  5

dump dmp2 all dcd ${N} traj_${rand}.dcd
dump dmp2 all dcd 100 traj_${rand}.dcd
dump dmp2 all dcd 100 traj_462431.dcd


# fix rnuntil all halt ${N} v_max_n >= 3980 error soft message no   # Stop when solidified


run 100000 # 5000000  # Run for this many steps
Neighbor list info ...
  update every 1 steps, delay 10 steps, check yes
  max neighbors/atom: 2000, page size: 100000
  master list distance cutoff = 3.8
  ghost atom cutoff = 3.8
  binsize = 1.9, bins = 9 9 9
  4 neighbor lists, perpetual/occasional/extra = 1 3 0
  (1) pair lj/cut, perpetual
      attributes: half, newton on
      pair build: half/bin/atomonly/newton
      stencil: half/bin/3d
      bin: standard
  (2) compute orientorder/atom, occasional
      attributes: full, newton on
      pair build: full/bin/atomonly
      stencil: full/bin/3d
      bin: standard
  (3) compute coord/atom, occasional
      attributes: full, newton on
      pair build: full/bin/atomonly
      stencil: full/bin/3d
      bin: standard
  (4) compute cluster/atom, occasional
      attributes: full, newton on
      pair build: full/bin/atomonly
      stencil: full/bin/3d
      bin: standard
Per MPI rank memory allocation (min/avg/max) = 9.437 | 9.440 | 9.445 Mbytes
Step Temp PotEng Volume v_max_n 
    4000   0.99839802   -6.2243581    4160.1242            3 
    4100   0.99576168   -6.2418068     4165.737            4 
    4200    1.0026376   -6.2647766    4158.0667            5 
    4300   0.98247917   -6.2556297    4159.8872            5 
    4400    0.9952973   -6.2474808    4159.7029            6 
    4500   0.99079871   -6.2620928    4140.6573            8 
    4600   0.99754497   -6.2987213    4144.2095            6 
    4700   0.99990621   -6.2593073    4147.4345            4 
    4800    1.0044393   -6.2652555    4154.4947            4 
    4900   0.98623078   -6.2948392    4141.9444            5 
    5000    1.0079031   -6.2891477     4148.544            6 
    5100    1.0004612   -6.2750223    4155.4657            5 
    5200   0.98753968   -6.2626245    4154.4625            6 
    5300   0.99270614   -6.2773312    4146.9419            8 
    5400    1.0052094   -6.2324744    4159.2598            8 
    5500    1.0095042   -6.2542696     4154.334           14 
    5600   0.98814542   -6.2659868    4145.3831           13 
    5700   0.99971345   -6.2500147    4159.8071            6 
    5800    1.0114038   -6.2729791     4161.292            5 
    5900   0.99779401   -6.2778106    4168.4073            4 
    6000   0.98393313   -6.2547688    4170.2099            8 
    6100   0.98028509   -6.2829859    4162.1572            5 
    6200    1.0049639    -6.272649    4166.9863           14 
    6300   0.99685846   -6.2748419    4156.2721            5 
    6400    1.0015146   -6.2808914    4149.9092            5 
    6500   0.98181918   -6.2839091    4154.5082            4 
    6600    1.0085019   -6.2794772    4162.6585            3 
    6700    1.0023523     -6.27682     4156.116            3 
    6800   0.99523197   -6.2800923    4156.1033            5 
    6900    1.0027708   -6.2954098    4159.0103           13 
    7000   0.97887212   -6.2713199    4150.4814            5 
    7100    1.0135094   -6.2685837    4155.8042            5 
    7200    1.0004071   -6.2868463    4155.0738            5 
    7300     1.004665   -6.2494069    4152.5771            5 
    7400    1.0138426   -6.2741378    4150.2205            5 
    7500   0.99397823   -6.2672075    4155.5437            4 
    7600   0.99782186   -6.2773907    4160.8069            6 
    7700    1.0161998   -6.2952692    4164.9621            7 
    7800    1.0023924   -6.2812149    4162.5857            3 
    7900    1.0060132   -6.3227462    4140.7167            8 
    8000   0.99875674   -6.3054069    4145.8866           18 
    8100   0.98665648   -6.2534014    4162.9133           10 
    8200   0.98263227   -6.2310335    4162.7996            7 
    8300   0.97437536   -6.2638845    4155.7783            8 
    8400   0.98797376   -6.2818384    4158.3942            6 
    8500     1.015228   -6.2966641    4174.6539           13 
    8600   0.99687053   -6.2697179    4167.3758            6 
    8700   0.98983828   -6.2872606    4160.7016            4 
    8800    1.0112541   -6.3043661    4163.1948            4 
    8900   0.99857152   -6.2577049    4171.2523            7 
    9000    1.0008433   -6.2521429    4162.5013            5 
    9100   0.98265604   -6.2696899    4159.9939            4 
    9200    1.0139823   -6.2770214    4162.8881            9 
    9300   0.97532761    -6.266535    4150.3552            5 
    9400    1.0000816   -6.2717167      4149.81            8 
    9500    1.0098933   -6.2227195    4147.3228            4 
    9600    0.9924236   -6.2466041    4146.9807            5 
    9700   0.98995127   -6.2618069    4141.6685            6 
    9800   0.99479583   -6.2520724    4154.2201            6 
    9900    1.0106809   -6.2478321    4160.4624            7 
   10000    1.0135014   -6.2617637    4151.6136            4 
   10100   0.99138448   -6.2533716    4157.9809            4 
   10200   0.98749488   -6.2692885    4170.5366            4 
   10300    1.0413071    -6.281391    4153.6919           17 
   10400    1.0037374   -6.2650734    4153.2144            7 
   10500   0.97882892   -6.2578989     4156.058           11 
   10600    0.9790886   -6.3082539    4149.9968            9 
   10700    1.0094337   -6.3039375    4149.8491            4 
   10800    1.0150614   -6.2617291    4145.3506            7 
   10900    1.0008787   -6.2560307    4152.1017            6 
   11000   0.99891355    -6.253426    4139.9024            2 
   11100    1.0173784   -6.2363413    4151.3215            6 
   11200   0.99516974   -6.2555931    4143.2716            4 
   11300   0.99509295    -6.260033    4146.6261            5 
   11400    1.0200644   -6.2448067    4157.6755            6 
   11500   0.99491555   -6.2495875    4152.3303            4 
   11600    1.0073285   -6.2688724    4149.3684            5 
   11700   0.98653843   -6.2848343    4147.2062            4 
   11800    1.0089531     -6.26858    4162.0679            6 
   11900    0.9924804   -6.2656716    4159.3445            4 
   12000   0.99209961   -6.2665206    4147.0123            7 
   12100   0.98000223   -6.2980854    4138.3482            6 
   12200   0.98835977   -6.2698417    4146.3043            6 
   12300    1.0126064   -6.2738203    4146.8413            7 
   12400    1.0022942   -6.3126014    4144.0274            4 
   12500   0.98710868   -6.3095158    4148.1694            8 
   12600   0.99732674   -6.2641167    4160.3285            6 
   12700   0.97856392   -6.2719929    4172.5435            6 
   12800    1.0042169   -6.2791997    4158.4084            9 
   12900   0.99598687   -6.2535293    4159.3629           11 
   13000   0.97348073   -6.2599276    4156.2967           14 
   13100   0.97997634   -6.2733082    4167.1179           16 
   13200   0.98026888   -6.2638869     4163.299           12 
   13300    1.0135024   -6.2697238    4160.5549            9 
   13400   0.97881154   -6.2649025    4153.8926           10 
   13500   0.98837766   -6.2733446    4156.0815            8 
   13600    1.0028467   -6.2611983    4149.1014           14 
   13700    1.0107956   -6.2814638    4137.0968           16 
   13800    1.0290757   -6.2763173     4147.024            8 
   13900   0.99111532   -6.2700797    4143.8892            5 
   14000   0.99679055   -6.2842587    4143.0027            6 
   14100   0.99540755   -6.2551002    4146.2752            3 
   14200    1.0276519    -6.273976    4157.9085            3 
   14300    0.9909719   -6.2776481    4155.8118            3 
   14400    1.0166027   -6.2905262    4154.9913            6 
   14500   0.98910493   -6.2925829    4152.7549            6 
   14600   0.99058025   -6.2805106    4163.0726            7 
   14700    1.0035609   -6.2777987    4150.4755            6 
   14800    1.0007544   -6.2476546    4144.2145            5 
   14900     1.007272   -6.2850682    4136.7758            4 
   15000    1.0095758   -6.2941027    4129.3205            7 
   15100    1.0032702    -6.268002    4137.9804            5 
   15200    1.0141729    -6.276428    4144.4405            8 
   15300   0.98661868   -6.2590108     4155.473            4 
   15400    1.0211775   -6.2571651    4147.4724           10 
   15500    1.0064093   -6.2786847    4134.2924            4 
   15600   0.98811775   -6.2839765    4139.4155            6 
   15700   0.98613135    -6.261849    4146.7578            5 
   15800    1.0152144   -6.2662912    4157.5603           11 
   15900   0.99779715   -6.2657784    4156.1924            8 
   16000    1.0094987   -6.2609252    4151.3181            6 
   16100    1.0285398   -6.2648609    4143.6485            6 
   16200   0.99968676   -6.2651778    4135.9212            9 
   16300   0.99516668   -6.2681427    4150.4459            7 
   16400   0.99816854   -6.2446503    4167.5446            5 
   16500   0.99684298   -6.2694664    4146.5125            6 
   16600   0.99660372   -6.2652735    4141.7784           14 
   16700    1.0171756   -6.2841089    4148.6828           16 
   16800     1.003515   -6.2725974    4149.8195           25 
   16900   0.98981196   -6.2787236     4148.023           16 
   17000    0.9825984   -6.2543065    4143.5944            6 
   17100   0.99896459   -6.2505892    4157.1627            9 
   17200    1.0188403   -6.2487828    4150.8103           18 
   17300   0.99220941   -6.2434708    4147.3164           19 
   17400     0.997427   -6.2669632    4156.0126            9 
   17500   0.99486375   -6.2533254    4152.0055           14 
   17600    1.0128683    -6.238082     4160.955           17 
   17700    0.9964916    -6.225215    4160.2533            9 
   17800    1.0095739   -6.2745155    4156.2933           17 
   17900   0.99458839   -6.2887186    4148.9844            7 
   18000    1.0159827   -6.3016824    4151.0371           12 
   18100    0.9991661   -6.2762477    4164.6638            4 
   18200    1.0097243   -6.2438558    4161.0498           13 
   18300    1.0133384   -6.2868484    4150.5904            5 
   18400    1.0012389    -6.259196    4150.2501            7 
   18500    1.0270244   -6.2403804    4157.7305            6 
   18600   0.98994088   -6.2478573    4152.7664            8 
   18700   0.99244797   -6.2492482    4149.2798            8 
   18800    1.0249372    -6.262237    4161.5011            7 
   18900   0.98825409   -6.2540076    4152.2405           10 
   19000    1.0062263   -6.2777065    4158.3965            8 
   19100   0.99354853   -6.2503197    4164.8057            6 
   19200    1.0017897   -6.2608934    4156.2391            4 
   19300    1.0063938   -6.2832659    4145.9646           16 
   19400   0.98949304   -6.2734428    4138.8023           15 
   19500    1.0175493   -6.2880948    4150.9289            7 
   19600   0.96987112   -6.2596017    4142.2936            7 
   19700   0.98908293   -6.3205995    4150.2347           16 
   19800   0.97026134   -6.3156129    4147.7085           18 
   19900    0.9953942   -6.2690046    4149.3181            9 
   20000    1.0055877    -6.283289    4150.5302           10 
   20100   0.97251331   -6.2696931    4129.3774            8 
   20200    1.0087459   -6.2606203    4125.7187            6 
   20300    1.0183205   -6.2673041    4138.0941            7 
   20400    1.0221178   -6.2532206    4150.4451            5 
   20500    1.0105609   -6.2954449    4148.3305            3 
   20600    1.0130622   -6.2811548    4155.9622            4 
   20700    1.0055526   -6.2569546    4160.3155            6 
   20800   0.98832609   -6.2673946    4149.1007            6 
   20900   0.98383337   -6.2790979    4142.7481           10 
   21000    1.0150037   -6.2998028    4148.7467            8 
   21100    1.0029808   -6.2703718    4144.4268            3 
   21200    1.0226693   -6.3019454    4142.0701            5 
   21300     1.016029   -6.3066452    4137.6913            4 
   21400   0.98217006   -6.2761622    4152.3227            5 
   21500   0.99538928   -6.2748461     4163.614           24 
   21600   0.98106133   -6.2944499    4153.1477            3 
   21700   0.98951115   -6.3000004    4146.6382           12 
   21800   0.99886097   -6.2524513    4147.5227            7 
   21900    1.0020554   -6.2744198    4154.7436            5 
   22000   0.99684102   -6.2760875    4147.6437            8 
   22100    1.0213731   -6.2800474    4141.2338            7 
   22200   0.99143237   -6.2650518    4153.7177            5 
   22300   0.98887141   -6.3107367    4143.8231            7 
   22400   0.99231679   -6.2768153    4161.6914            8 
   22500   0.99499283    -6.278446    4166.7037           12 
   22600    1.0161492   -6.2805853    4161.0754            5 
   22700    1.0068663   -6.3106837    4145.7542            6 
   22800   0.98208838   -6.2766416    4148.3869            4 
   22900    1.0013846   -6.2821569    4142.6731            7 
   23000    1.0085186   -6.2603316    4147.2573            4 
   23100    1.0044409   -6.2658328    4156.9445            5 
   23200   0.97919553   -6.2815846    4144.7775            7 
   23300   0.99653343   -6.2698216    4152.2815            4 
   23400    1.0150419   -6.2852817    4150.0673            5 
   23500   0.99550615   -6.3035005    4150.9815           10 
   23600    1.0089524   -6.2739834    4154.6593            4 
   23700   0.99024233   -6.2573754    4153.0394           11 
   23800    1.0004375    -6.301151    4151.5615           11 
   23900   0.99118398   -6.2932132    4151.3749            8 
   24000    1.0008816   -6.2708495    4161.9055           18 
   24100   0.98602907   -6.2843418    4144.7278           11 
   24200     1.007549   -6.3023749    4144.6517           10 
   24300    1.0205949    -6.282014    4149.3055            6 
   24400   0.99528334    -6.240245    4167.1793           14 
   24500   0.99177981   -6.2567338    4157.6432           30 
   24600    1.0050394   -6.2843906    4154.4043           30 
   24700   0.98809508   -6.2911298     4165.391           12 
   24800   0.98420189     -6.28845    4165.2647            4 
   24900   0.99408746   -6.2867932    4154.0479           16 
   25000    1.0020921   -6.2667815    4159.9069           16 
   25100   0.96970078   -6.2739009    4148.2627            7 
   25200    1.0086446   -6.2771534    4157.4632           20 
   25300    1.0052018   -6.2640384    4149.0565           28 
   25400   0.99808141   -6.2792016    4148.7711           23 
   25500    1.0020912    -6.259041    4156.6003           24 
   25600   0.98409151   -6.2405992    4168.5608           16 
   25700   0.98462551   -6.2724246    4159.7955            8 
   25800    1.0009935   -6.2946438    4144.7109            6 
   25900   0.98476386   -6.2584334     4149.363            9 
   26000   0.99323233   -6.2568217    4156.7261            6 
   26100    1.0097306   -6.2663896    4162.7813           10 
   26200   0.99849881   -6.2431465    4163.0073           14 
   26300   0.97724676    -6.248046    4145.5173            5 
   26400    1.0188192   -6.2576767    4144.0576            4 
   26500   0.99879344   -6.2499413    4135.5903            8 
   26600    1.0000435    -6.266511    4140.5926            7 
   26700   0.99104832   -6.2376526    4156.1999            9 
   26800    1.0284981   -6.2657486    4157.0588           11 
   26900    1.0037247   -6.2504014     4150.786            8 
   27000   0.99811535   -6.2896572     4153.044            3 
   27100    1.0002432    -6.298298    4147.9494            4 
   27200   0.99374731   -6.2612549    4144.0867            4 
   27300    1.0168471   -6.2617351    4159.1634            3 
   27400   0.98702588   -6.2699205    4141.8088            9 
   27500   0.99589167   -6.2904974    4156.9076            4 
   27600    1.0159912   -6.2734122    4152.9306            7 
   27700   0.99136061    -6.274111    4149.0934           12 
   27800   0.96547634   -6.2860985    4148.6138            7 
   27900   0.99747272   -6.2977923    4155.7741            4 
   28000    1.0019756   -6.2974429    4155.5657            7 
   28100   0.99267214    -6.304122    4133.0303            7 
   28200   0.99580766   -6.2554512    4152.2449            5 
   28300    1.0000267   -6.2779293    4152.3666            5 
   28400   0.99439939   -6.2817968    4145.3988            4 
   28500    1.0106259   -6.2487286    4151.3126            6 
   28600    1.0002016   -6.2763696    4147.1679            6 
   28700   0.99401798   -6.2419162    4148.8525            8 
   28800   0.99393463   -6.2387813    4164.1003            5 
   28900    0.9944514   -6.2504128    4154.4118            7 
   29000   0.99371914   -6.2795468     4145.149            8 
   29100    1.0265069   -6.2751849    4154.4196            7 
   29200   0.99628791   -6.2621819    4148.1961            7 
   29300   0.99843074   -6.2813917    4147.2148           10 
   29400    1.0091103   -6.2592996    4155.8104            5 
   29500   0.99871763   -6.2841355     4147.702            5 
   29600     1.002958   -6.2994392    4142.8905            4 
   29700    1.0051268   -6.2585846     4157.086            7 
   29800   0.99246034   -6.2748858    4152.2672            8 
   29900    0.9945352   -6.2980755     4145.525            4 
   30000    1.0156447   -6.2788492    4140.6912            9 
   30100   0.99107014   -6.2736467    4144.1801            4 
   30200    1.0033231   -6.2795965    4146.3045            9 
   30300   0.99289224   -6.2813347    4155.1482            3 
   30400   0.97534336   -6.2786433    4156.0046           12 
   30500     1.003749    -6.275116    4168.4752            7 
   30600   0.98791095    -6.279306    4161.8271            6 
   30700   0.99660408   -6.2996598    4150.5357            4 
   30800   0.95939983   -6.2911371    4153.2645            6 
   30900   0.99139115   -6.2750619    4161.3589           10 
   31000    1.0154781   -6.2571859    4162.6966            5 
   31100   0.99954852    -6.260959    4148.4913            8 
   31200   0.99506067   -6.2667284    4153.5229            5 
   31300   0.97939647   -6.2411594    4165.0265           11 
   31400    1.0019181   -6.2561958    4169.1954            4 
   31500   0.99435878   -6.2757331     4153.132           14 
   31600    1.0140244   -6.2990381    4150.1003            4 
   31700   0.98444889   -6.3027918    4137.0067           11 
   31800   0.99279193   -6.2808855     4150.181           16 
   31900   0.99868704   -6.2452107    4155.0823           11 
   32000   0.98461842   -6.2665725    4156.9025           16 
   32100    1.0011125   -6.2901803    4159.8464            4 
   32200    1.0228739   -6.2800718     4170.762            7 
   32300   0.98908757   -6.2791859    4162.8413            8 
   32400    1.0033057   -6.2727877    4152.1873            5 
   32500   0.97747501   -6.2798185    4144.9602            7 
   32600   0.98064807   -6.2241398    4154.2723           10 
   32700    1.0101063   -6.2434133     4162.761            7 
   32800    1.0026244    -6.282529    4152.7387           13 
   32900   0.99801296   -6.2889579    4150.6411           12 
   33000    1.0077075   -6.2531591    4144.7586            6 
   33100    1.0060456   -6.2526085    4146.6847            4 
   33200    1.0031239   -6.2756263    4137.8487           11 
   33300   0.98006557   -6.2875582    4133.2926            7 
   33400    1.0169452   -6.2947114    4137.9694            7 
   33500   0.99429041   -6.2819696    4135.3377            3 
   33600   0.98627968   -6.2654287     4138.285            6 
   33700    1.0010629   -6.2682285    4139.7643            6 
   33800    0.9781738    -6.284346    4134.4047            6 
   33900    1.0143465   -6.3226086    4135.3233            4 
   34000   0.99093418   -6.2613355    4152.1604            5 
   34100   0.98012684   -6.2525753    4156.2442            9 
   34200   0.96960057   -6.2897729    4146.5201            5 
   34300    1.0045673   -6.3208279     4151.411            5 
   34400   0.99147275   -6.3056109    4156.0128           11 
   34500    1.0078713   -6.2878798    4154.6884            5 
   34600    1.0160859   -6.2795999    4152.7369            7 
   34700   0.99566227   -6.2769426    4151.0584            5 
   34800   0.98359765   -6.3037924    4155.2218            9 
   34900   0.99321638   -6.3036457    4157.2964           10 
   35000   0.99882704   -6.2834342    4160.9548            8 
   35100    1.0118046   -6.2667148    4160.7952           12 
   35200   0.99922172   -6.2937342    4147.1286            4 
   35300   0.99773307    -6.283384    4145.4421            6 
   35400    1.0026434   -6.2631025    4157.1465            9 
   35500   0.98346631   -6.2473216    4151.4379            5 
   35600    1.0063902   -6.2549075    4148.5274            9 
   35700    1.0317796   -6.2627157    4151.3752            5 
   35800    1.0068117   -6.2659707    4143.9997           10 
   35900    0.9935442    -6.278062    4147.7958            7 
   36000    1.0121544   -6.2500549     4159.292            7 
   36100   0.98645217   -6.2536987    4155.0541            5 
   36200   0.99652082   -6.2501007    4157.7593            4 
   36300    1.0132504   -6.2459114    4163.6504            5 
   36400   0.98945155   -6.2432073    4154.3942            3 
   36500    1.0112126   -6.2634598    4152.5497           11 
   36600   0.99373378    -6.235692    4162.2275           12 
   36700   0.99943529   -6.2471994    4163.6715            7 
   36800   0.99350287   -6.2748039    4160.8599            7 
   36900   0.97955672   -6.2945008    4140.9404            8 
   37000   0.99964796   -6.2667435    4151.4091            6 
   37100    1.0073453   -6.2634173    4158.7671            9 
   37200    1.0225444   -6.2419788    4166.0618            9 
   37300   0.99912926    -6.272976    4157.5294            6 
   37400    1.0072734   -6.2682153    4149.5013           12 
   37500   0.99810547   -6.2884516    4148.0058            5 
   37600    1.0130716   -6.2628523    4152.4161            9 
   37700    1.0072424   -6.2780109    4161.4621            7 
   37800   0.98934617   -6.2939534    4153.9348            8 
   37900   0.97633879   -6.3057256    4157.1337            9 
   38000   0.99543561   -6.2876858    4147.7248            8 
   38100    1.0178612   -6.2842279    4152.6499            5 
   38200   0.99537204   -6.3026002    4145.2391            4 
   38300    1.0173094   -6.3032163     4154.234            6 
   38400   0.99379132   -6.3062795    4152.1447            3 
   38500   0.99495767   -6.2660027    4154.3872            6 
   38600    1.0092956   -6.2638457    4144.9519            8 
   38700    1.0092271   -6.2719623    4140.4033            8 
   38800     1.028348    -6.254026    4162.4358           11 
   38900    1.0214364   -6.2885153    4156.3909            6 
   39000   0.99003545   -6.2773937     4153.871            7 
   39100   0.98281767   -6.2623578    4153.4714           16 
   39200     1.006968   -6.2651938    4162.7452            6 
   39300    1.0114894   -6.2887008    4154.7871            8 
   39400    1.0021417   -6.3051684    4148.6159            5 
   39500    1.0119082   -6.2711937     4152.725            9 
   39600    1.0022161   -6.2501012    4149.7505            6 
   39700   0.98950129   -6.2535691    4154.9015            6 
   39800   0.98831661   -6.2747991    4169.4488            6 
   39900   0.98954536   -6.2376653    4161.8549            4 
   40000   0.98577342   -6.2712891    4161.4113            4 
   40100   0.98732599   -6.2759451    4155.8747            4 
   40200     1.016157   -6.2836923    4158.1785            8 
   40300   0.99820001   -6.3015911    4157.0336           15 
   40400   0.99380186   -6.2924559    4164.9244            7 
   40500   0.98969496    -6.268419    4169.9151            5 
   40600   0.98618939   -6.2618715    4171.1603            4 
   40700    0.9933821   -6.2722577    4160.8125            6 
   40800    1.0017035   -6.2765108    4164.2707            7 
   40900   0.99518873   -6.2682203    4170.5811            5 
   41000    0.9864417   -6.2670891    4170.5249            6 
   41100    1.0047227   -6.2853248    4160.5582           12 
   41200   0.99611848   -6.2674356    4153.8052            9 
   41300    1.0150679   -6.2609725    4159.2379            8 
   41400    1.0182341   -6.3067229    4147.8287           12 
   41500    0.9944537   -6.2762286    4159.4215            5 
   41600    1.0127865   -6.2766301    4159.0787            8 
   41700   0.97730676   -6.2739265    4151.8931            3 
   41800   0.97908084   -6.2591102    4169.3511            4 
   41900    1.0222671   -6.2907462    4175.4028            4 
   42000   0.99101607   -6.2932071    4164.3836            6 
   42100   0.98312304   -6.2657098    4169.7199            6 
   42200   0.99285841   -6.2446482    4169.9845            8 
   42300   0.99922301   -6.2893024    4158.4133            4 
   42400    1.0083108    -6.313338    4162.1405           15 
   42500    0.9927987   -6.2896662    4154.1832            6 
   42600   0.99321766   -6.2836211    4152.3753            8 
   42700    1.0013399   -6.2456152    4165.0598            8 
   42800    1.0041144   -6.2652248     4153.799            6 
   42900    1.0016827   -6.2774426    4153.8475            4 
   43000   0.99329751    -6.249128    4156.0967            7 
   43100   0.99137365   -6.2954581    4147.4021            4 
   43200    0.9895631   -6.2544035    4155.0812            3 
   43300    1.0329343   -6.2549111    4164.7471            6 
   43400   0.99134747   -6.2290153     4160.556            7 
   43500   0.99207194   -6.2315369     4152.953           13 
   43600      0.99189    -6.273164    4147.0474            7 
   43700   0.98229902   -6.2985772    4157.4506            9 
   43800   0.98814038   -6.2736209    4169.7986            4 
   43900   0.99138038   -6.2689735    4167.2777            3 
   44000   0.98264739   -6.2577653    4160.3941            4 
   44100    1.0179771   -6.2647814    4167.7697            5 
   44200   0.97702561   -6.2501775    4160.5457            4 
   44300   0.99723048   -6.2769901     4156.879            7 
   44400    1.0199183   -6.2543057    4162.9314            5 
   44500    1.0002272   -6.2246737    4156.2361            3 
   44600   0.99424059   -6.2390899    4154.1868            4 
   44700    1.0173907   -6.2410389    4151.6504            5 
   44800     1.008629   -6.2644264    4148.8953            3 
   44900   0.98453894   -6.2454882     4150.943            4 
   45000    1.0194751    -6.249506    4145.3654            8 
   45100     1.007132   -6.2656219    4142.2906            3 
   45200   0.99420865   -6.2593761    4140.4544            8 
   45300   0.99970545   -6.2596965    4146.2926           10 
   45400    1.0260838    -6.262138    4148.6499            7 
   45500   0.98402269    -6.249149    4154.2012            7 
   45600     1.016364   -6.2845533    4161.5735            8 
   45700   0.99536106   -6.2825922    4164.5485           10 
   45800   0.97851811    -6.298744     4153.616           15 
   45900   0.99499427   -6.2752702    4151.9809            7 
   46000   0.98864931   -6.2661584    4154.8777           16 
   46100   0.99318225   -6.2705955    4141.7229            5 
   46200   0.99384648   -6.3022802    4137.7982           10 
   46300    1.0103992     -6.27862    4151.9285           21 
   46400    1.0121417   -6.2914154    4154.6292            6 
   46500   0.97870717   -6.2992604    4156.5864            8 
   46600    0.9937605   -6.2918181    4164.6589           10 
   46700    1.0078319   -6.2849403    4164.3748            3 
   46800   0.99672566   -6.3144683     4155.161            2 
   46900    1.0145298   -6.2907947    4149.9231            7 
   47000   0.99984949   -6.2697572    4155.2009            8 
   47100   0.97639246   -6.2733868    4159.3068            9 
   47200    1.0264997   -6.2925829    4151.4221            6 
   47300   0.97332982   -6.2695553    4157.4066            3 
   47400   0.99262984   -6.3030438    4151.9606            5 
   47500   0.99056591   -6.2498565    4156.2568           11 
   47600    1.0338686    -6.293399    4150.1766           10 
   47700   0.99533216   -6.2636753    4147.2173            5 
   47800   0.98856405   -6.2567786    4157.7319            3 
   47900    1.0224038   -6.2738177    4163.9151           11 
   48000   0.97692356   -6.2440223    4153.7822            6 
   48100    1.0010052   -6.2758627    4159.9219            6 
   48200    1.0193159   -6.2801561    4164.4251            4 
   48300   0.97412304     -6.25434    4149.4996           13 
   48400     1.003234   -6.2840312    4146.4764            7 
   48500   0.99425159    -6.272155     4151.048           10 
   48600   0.98765353   -6.2373914    4169.1388           10 
   48700   0.98149464   -6.2867983    4153.9718            6 
   48800    1.0037973   -6.2914973    4152.7381            7 
   48900    1.0117658   -6.3078261     4145.472            7 
   49000   0.97807673   -6.3092816    4143.6181           13 
   49100   0.99243541   -6.2953355    4144.2122            7 
   49200    1.0149277   -6.2929237    4150.2785            6 
   49300    1.0112688   -6.2873852    4150.4525            5 
   49400    1.0204278    -6.298732    4161.3387            4 
   49500    1.0066239   -6.2456747    4148.9499            6 
   49600    1.0010904   -6.2529269    4132.6167            4 
   49700    1.0034418   -6.2849055    4137.8235            6 
   49800   0.97524281   -6.2700065    4148.3052            6 
   49900    1.0084602   -6.2789898     4156.637            5 
   50000    1.0103476    -6.296122    4151.1535            4 
   50100    1.0016476   -6.2781328    4146.2077            5 
   50200    0.9735283    -6.272393    4145.3012           10 
   50300    0.9857469   -6.2997267    4142.0326            9 
   50400   0.99313813   -6.2777271    4145.7162            4 
   50500    1.0160972   -6.2655757    4156.5964            6 
   50600    1.0138126   -6.2837628     4158.312            6 
   50700    1.0065398   -6.2857852    4151.2671            6 
   50800    1.0115554   -6.2487445      4139.54            7 
   50900    1.0162634   -6.2499189    4141.3061            6 
   51000    0.9973087   -6.2687111    4142.1263            6 
   51100    1.0130482    -6.257451     4148.755            6 
   51200   0.98946584   -6.2363739    4150.8504            4 
   51300   0.97982157   -6.2756541    4145.3159            6 
   51400    1.0029573   -6.2876554    4150.6195            5 
   51500   0.99806309   -6.2825254    4148.8942            3 
   51600   0.98181009   -6.2755682    4155.2039           10 
   51700    1.0065113   -6.2643592      4158.72            4 
   51800    1.0085699   -6.3117867    4158.8349            4 
   51900    0.9825726   -6.2683625    4148.8825            4 
   52000    1.0303544   -6.2950687    4149.1781            4 
   52100    0.9850723   -6.2742163    4140.5884            5 
   52200   0.99799924   -6.2926373     4153.423            4 
   52300   0.99400614   -6.2521687    4158.4637            6 
   52400   0.98585578   -6.2718654     4153.225            6 
   52500    1.0098338    -6.282355    4152.7782            5 
   52600    1.0146521   -6.2888756      4152.37            9 
   52700   0.98024161   -6.2759713    4160.7179           11 
   52800   0.98694736   -6.2707968    4163.7404           10 
   52900    1.0017317   -6.2613953    4168.6697            4 
   53000   0.98521469   -6.2929518    4157.2277            9 
   53100   0.98422304   -6.2529334     4163.743            6 
   53200    1.0097467   -6.2721299     4159.945            7 
   53300   0.99314041   -6.2603193    4149.1481            6 
   53400   0.99377291    -6.289594    4147.2081           10 
   53500    1.0020269   -6.3033094    4147.5873           12 
   53600   0.99899026   -6.2671415    4163.9941           10 
   53700     1.011109   -6.2671791    4156.3978            7 
   53800   0.99392676   -6.2808297    4157.2433            4 
   53900    1.0217661   -6.2605553    4168.8045            8 
   54000   0.99980343    -6.262305    4166.3672            9 
   54100   0.98770632   -6.2518622    4166.7824            9 
   54200    1.0144006   -6.2575071    4178.1329            6 
   54300    1.0004694   -6.2694894    4177.0092            5 
   54400    0.9867136   -6.2722272     4165.897            3 
   54500    1.0064784   -6.2737651    4156.8985            5 
   54600    1.0094607   -6.2741301    4153.0236            6 
   54700     1.008041   -6.2774843    4160.5931            4 
   54800   0.99803066   -6.2819478    4165.5144            6 
   54900    1.0047229    -6.260478    4157.3148            8 
   55000   0.98753861   -6.2900547    4142.2424            9 
   55100    1.0050061   -6.2646464    4153.6813           12 
   55200    1.0037477   -6.2601402    4153.3809            5 
   55300   0.99177825   -6.2851809    4148.0032           10 
   55400   0.99215781   -6.2810052    4152.4126            7 
   55500   0.99002333   -6.2336987    4164.1553            5 
   55600      1.00773   -6.2641541    4157.5664            6 
   55700   0.99172759   -6.2825116    4145.8514            7 
   55800   0.99727444   -6.2381076    4138.7154            4 
   55900   0.99867993   -6.2745427    4134.6427            4 
   56000    1.0284105   -6.3098796    4132.0657           14 
   56100   0.99048175   -6.2759282    4140.4903           16 
   56200    1.0056637   -6.2634908     4157.117           10 
   56300    1.0037131   -6.2837315    4149.2694           14 
   56400   0.99267009   -6.2867988    4146.6362           11 
   56500    1.0024699   -6.2603267    4158.3841           10 
   56600    0.9944208    -6.290791    4159.1851            4 
   56700   0.99411799   -6.3060093    4166.0552           10 
   56800   0.99275254    -6.270531    4159.2416            8 
   56900   0.99769926   -6.2812203    4153.2591            6 
   57000    1.0025142   -6.2747776    4144.0712            5 
   57100    0.9987227   -6.3058208    4145.0456            6 
   57200   0.99471278   -6.2882904    4157.3891            7 
   57300    1.0139825   -6.2767663    4162.1284            7 
   57400   0.97596132   -6.2742997    4153.5486           10 
   57500   0.99347483   -6.2537078    4153.5987            5 
   57600   0.99794879   -6.2719643    4145.7724            7 
   57700   0.99499283    -6.293641    4143.1084            7 
   57800   0.99034336   -6.2768035    4159.3209            5 
   57900   0.98746596   -6.2564122    4163.5176            5 
   58000     1.014453   -6.2589204    4164.2236            9 
   58100     0.992868   -6.2791514    4144.3552           16 
   58200    1.0013093   -6.2928435    4154.8707           12 
   58300    1.0114116   -6.2802761     4157.028            8 
   58400   0.99470953   -6.2814774    4160.0482            7 
   58500   0.99737093    -6.240817    4165.9197            8 
   58600   0.99056171   -6.2714088    4162.8362            8 
   58700    1.0120021   -6.2944794    4158.1786            5 
   58800   0.99059175   -6.2517487    4170.4562            4 
   58900    1.0003694   -6.2640194    4165.1171            3 
   59000   0.97600038   -6.2476926    4172.0842            8 
   59100   0.99765393    -6.259382    4161.6815            5 
   59200   0.99381434   -6.3036812    4151.4112            6 
   59300     1.018868   -6.3019428    4152.7793            3 
   59400    0.9918765    -6.245636    4147.7061            5 
   59500    0.9789508   -6.2750102    4147.2695            6 
   59600   0.96614591   -6.2836884    4140.9246            6 
   59700    1.0058161   -6.2717406    4145.9951           17 
   59800   0.98613505   -6.2804285    4146.8531            8 
   59900   0.99850563   -6.3008211    4142.0493            4 
   60000    1.0036087   -6.2640817    4158.2956           13 
   60100    1.0074503   -6.2758766    4153.3471           10 
   60200    1.0152999   -6.3069125    4141.9378            5 
   60300   0.99616619   -6.2848385    4136.8409            7 
   60400    1.0064157   -6.2903119    4136.7788           11 
   60500    0.9896514   -6.2950066    4132.4094            5 
   60600     1.000178    -6.278142    4146.1411            4 
   60700   0.99589975   -6.2641031    4145.5491            8 
   60800   0.99341485   -6.2801184    4142.7284           13 
   60900   0.99581665   -6.2541046    4152.9586            6 
   61000   0.99076076   -6.2507658    4159.9766            5 
   61100   0.99769181   -6.2910176     4157.517            4 
   61200   0.99073798   -6.2795912    4156.4694            6 
   61300   0.99320953   -6.2794935    4152.1454            5 
   61400   0.97807821   -6.2928837    4153.1036           17 
   61500   0.97128617   -6.2880341     4159.528            4 
   61600    0.9923383   -6.2938047    4154.2664           11 
   61700    1.0031441   -6.3087828    4155.3677            7 
   61800     1.000622   -6.2930898     4144.035            4 
   61900   0.99044419   -6.3073133    4141.4957           10 
   62000   0.99231763   -6.2686781    4155.1757           11 
   62100     1.007119   -6.2806057    4150.7403            6 
   62200   0.98618765   -6.2880137    4145.3418           11 
   62300    1.0071696   -6.2777408    4150.0128            5 
   62400    1.0165929   -6.2565999    4162.8376            8 
   62500   0.99442812   -6.2268747    4146.0977            4 
   62600    1.0042784   -6.2696653    4141.6012            8 
   62700    1.0147746   -6.2517076    4142.2576            4 
   62800    1.0000313   -6.2542661    4142.7034            5 
   62900    1.0017384   -6.2729658    4143.2837            3 
   63000     1.011676   -6.2763378    4151.2151            7 
   63100   0.98137267   -6.2646908    4150.2299            4 
   63200   0.98180463    -6.294416    4134.8203            9 
   63300    1.0054885   -6.2635471    4147.8004           13 
   63400   0.98160171   -6.2598768    4156.8692            5 
   63500   0.98680685    -6.238348    4170.9341            7 
   63600   0.99455443   -6.2281236    4175.6636            5 
   63700   0.99997506   -6.2910913    4150.0408            9 
   63800    1.0093093   -6.2711771    4160.5404            5 
   63900    1.0329425   -6.2820605    4156.5964            8 
   64000    1.0065451   -6.2906062    4142.0755            6 
   64100   0.98285934   -6.2759343    4145.3099            4 
   64200    1.0218038    -6.282222    4149.1963            5 
   64300   0.98082405    -6.249594    4152.9382            8 
   64400    1.0019282   -6.2556225    4163.2447            8 
   64500   0.99147141   -6.2534715     4152.962           12 
   64600   0.98006859   -6.2811209    4133.4201            8 
   64700    1.0025046    -6.264829    4145.2962            7 
   64800    1.0293926   -6.2802401    4142.5505            5 
   64900    1.0007339   -6.2692309    4142.9027            5 
   65000    1.0029639   -6.2740675    4147.6259            6 
   65100   0.98819329   -6.2578351    4160.8786           11 
   65200     1.006551   -6.2665583    4160.1253            7 
   65300   0.99442981   -6.2714673     4161.547            5 
   65400    1.0016775   -6.2574717    4170.2807            7 
   65500    1.0004478   -6.2770034    4162.2259           13 
   65600    1.0009753   -6.2795115    4152.2641            6 
   65700   0.99551523   -6.2890935     4154.208           10 
   65800    1.0060644    -6.258498    4163.6008            7 
   65900   0.98960563   -6.2867518    4152.5529            5 
   66000    0.9922489   -6.2919981    4152.7366           10 
   66100    1.0028934   -6.2901825     4160.216            5 
   66200   0.97411814   -6.2834972    4162.7406           10 
   66300    1.0008919   -6.2806471    4174.3807            7 
   66400   0.99658819   -6.2504718    4165.7294            5 
   66500    1.0002221   -6.2788807    4152.8941            8 
   66600    1.0073868   -6.2811634    4154.0006            6 
   66700     1.010197   -6.2420968    4166.5841            8 
   66800    1.0037998    -6.287728    4152.4294            7 
   66900   0.99628414   -6.2781039    4148.9704            9 
   67000   0.99115321   -6.2156717    4169.6309            3 
   67100    1.0140009   -6.2508253     4160.021           11 
   67200   0.99632932   -6.2751264    4154.8408            9 
   67300    1.0153078   -6.2470047     4147.263            9 
   67400   0.99650289   -6.2788699    4141.8867            7 
   67500   0.99613781   -6.2530997    4153.5738            4 
   67600    1.0055939   -6.2474803    4152.1107            3 
   67700   0.99106891   -6.2678192    4147.9543            6 
   67800    1.0228896   -6.2419994    4151.2933            5 
   67900    1.0169876   -6.2570642    4162.4174            4 
   68000   0.99957719   -6.2713866    4152.9704            6 
   68100   0.98748494   -6.2454401    4145.4151            6 
   68200    1.0069288   -6.2337701    4154.0904            4 
   68300    1.0114416   -6.2700708    4161.5459            4 
   68400   0.99434452   -6.2690393    4160.9015            6 
   68500   0.98433793   -6.2653275    4165.7593            3 
   68600   0.99566533   -6.2958758    4154.5159            7 
   68700   0.98639508   -6.2659517    4152.7728            5 
   68800    1.0218816   -6.2852538    4152.4795            7 
   68900   0.99979624   -6.2767676    4155.0964            6 
   69000   0.99503687   -6.2605299    4143.5897            8 
   69100   0.98676666   -6.2655592    4146.3955           16 
   69200   0.99632683   -6.2633355    4145.8739            8 
   69300    1.0165267   -6.2430511    4147.5711            8 
   69400    1.0046152   -6.2208118    4151.6127            6 
   69500     1.004719   -6.2654235     4144.344            6 
   69600   0.99399092   -6.2249108    4153.8518            5 
   69700    1.0036894    -6.237461    4154.3436            5 
   69800    1.0017285   -6.2607536    4155.5569            8 
   69900    1.0092111   -6.2589127    4156.5976            7 
   70000    1.0101029   -6.2617311    4161.4167            4 
   70100    0.9853129   -6.2529484    4145.7815           13 
   70200    1.0253878   -6.2651708    4153.5781            8 
   70300   0.98726277   -6.2370417    4159.1522            5 
   70400   0.99563584   -6.2551201    4152.3806            4 
   70500    1.0024549   -6.2221303    4154.8072           14 
   70600   0.99935263   -6.2336042    4135.4893            9 
   70700    1.0015487   -6.2682053    4137.7184            5 
   70800     1.024345    -6.249757    4148.7546           14 
   70900    1.0123064   -6.2672777    4150.8255           20 
   71000   0.99160034   -6.2828402    4137.5278            7 
   71100   0.98719643   -6.2539144     4144.494            9 
   71200   0.98880991   -6.2287785    4154.3392            6 
   71300    1.0116458   -6.2525777    4159.2127            6 
   71400   0.97926401   -6.2389824    4160.4097            4 
   71500    1.0178391   -6.2803094    4154.8883            7 
   71600   0.98786605   -6.2596249     4154.947            9 
   71700    1.0051331   -6.2351388    4157.0675            7 
   71800   0.99966571   -6.2480019    4156.6781            8 
   71900    1.0007063   -6.2946987    4149.3913            7 
   72000   0.99098855   -6.3147197    4138.2517            6 
   72100   0.98191651   -6.2650352    4169.0896           11 
   72200   0.99793601   -6.2625316    4158.4123           11 
   72300    1.0021738   -6.2500341     4152.502            9 
   72400    1.0168065   -6.2223672    4161.4524            9 
   72500    1.0178168   -6.2696155     4157.655            6 
   72600    1.0039016   -6.2870108    4151.9938            7 
   72700   0.98108549   -6.2678439    4141.3093            5 
   72800    1.0067515   -6.2649487    4141.6973            7 
   72900    1.0103281   -6.2600749    4146.1929            5 
   73000    1.0175714   -6.2621568    4143.7414            9 
   73100    1.0056875   -6.2688377    4136.3569            7 
   73200    1.0046832   -6.2604202    4138.9247            5 
   73300    1.0053292   -6.2379549    4151.0464            7 
   73400   0.99404684   -6.2649907     4151.792            7 
   73500    1.0065514   -6.3061588    4135.2167            3 
   73600    1.0013255   -6.3065255    4140.1453            3 
   73700    1.0114583     -6.30133    4156.7929            3 
   73800   0.99501648    -6.271416    4155.5452            4 
   73900   0.98297914   -6.3082431    4142.8081            4 
   74000    1.0053735   -6.2956993    4147.9144            3 
   74100    1.0064757   -6.2823948    4143.2313            9 
   74200    0.9772318   -6.2883986    4129.2798           13 
   74300   0.99044536   -6.2598333    4129.0433            8 
   74400     1.025263   -6.2618621    4137.5697            9 
   74500    0.9927746   -6.2590171    4139.5368            6 
   74600    1.0064267   -6.2788714    4141.5361            5 
   74700    1.0048363   -6.2573639    4149.1015            8 
   74800    1.0101683   -6.2603558    4154.6859            5 
   74900    1.0015204   -6.2907199    4142.7532            7 
   75000    1.0287291   -6.2829051    4147.5994            7 
   75100    1.0167397   -6.2655664     4156.384           12 
   75200    1.0007886    -6.275312    4159.2243            6 
   75300    1.0101953   -6.2593115    4158.5595            8 
   75400    1.0224642    -6.293388    4148.8774            8 
   75500   0.98009066   -6.2987802    4148.7567            9 
   75600   0.99634396   -6.2730232    4157.4178           14 
   75700    1.0052015   -6.2414162    4150.8016           12 
   75800   0.99116685    -6.273552    4142.3697           20 
   75900   0.99349866   -6.2730663    4139.5015           12 
   76000    1.0087893   -6.2699133    4156.4669           12 
   76100    1.0074552   -6.2713002    4151.8559           11 
   76200    1.0017755   -6.2963544    4150.8622           16 
   76300   0.99338563   -6.2435448    4157.8922            6 
   76400    1.0038903    -6.231609    4168.9463           10 
   76500    1.0021343   -6.2799347    4158.1031            6 
   76600   0.99827219   -6.2549169    4158.4435            9 
   76700   0.99048828   -6.2739318    4161.1284            5 
   76800   0.99193756   -6.2848291    4165.0714            7 
   76900    1.0034595   -6.2706208    4168.0432           18 
   77000   0.98722411   -6.2703721    4170.6628           10 
   77100   0.97434582    -6.282817    4167.8936            8 
   77200    1.0006115    -6.280756     4164.664           10 
   77300    1.0213319   -6.2674081    4172.2064            5 
   77400    0.9892145   -6.2666575    4165.2214            9 
   77500   0.98680805   -6.2733572    4161.4665            6 
   77600   0.99284562    -6.267953    4157.8751            7 
   77700    1.0137215    -6.250391    4162.0853            4 
   77800   0.98486175   -6.2577871    4169.7534           11 
   77900    1.0016918   -6.2494205    4160.8279            8 
   78000   0.99282833   -6.2914825    4156.3819           15 
   78100   0.99814196   -6.2620748     4157.288            4 
   78200   0.99140756   -6.2701628    4158.6126           12 
   78300   0.99435826   -6.2462067    4156.0832            8 
   78400   0.97141887    -6.261747    4154.3951            6 
   78500   0.98913169   -6.2735084    4149.1509           11 
   78600    1.0054008    -6.261214    4155.6302           11 
   78700   0.98392302   -6.2738505    4149.5165            4 
   78800    1.0104541   -6.2714898    4151.4604            9 
   78900    1.0084406   -6.2676178    4153.5882            8 
   79000   0.99134114   -6.2839225    4150.2778            7 
   79100   0.97163353   -6.2922277    4147.3608            8 
   79200   0.99120663   -6.2687424     4144.848           11 
   79300    1.0160384   -6.2822121    4148.0059            6 
   79400    1.0061248   -6.2837359    4150.0461            3 
   79500    1.0271997   -6.2850517    4154.5034           11 
   79600   0.97393649   -6.2527853    4152.6023            5 
   79700    1.0179269   -6.2833769     4144.997            6 
   79800   0.99166759   -6.2878936    4147.2532            7 
   79900    1.0016105    -6.272047    4158.1596            7 
   80000   0.98201449   -6.2486592    4162.1364            9 
   80100    1.0155402    -6.273087    4164.1944           12 
   80200    1.0041408   -6.2755469    4157.5245            8 
   80300   0.98824005    -6.273183    4153.8312           10 
   80400   0.99829146   -6.2730171    4167.0773            8 
   80500   0.99118689   -6.2456492    4167.9319            4 
   80600    1.0060036   -6.2458441      4165.07            7 
   80700   0.99593467   -6.2926552    4153.7256           12 
   80800    1.0031268   -6.2790959    4152.5905           11 
   80900    1.0288791   -6.2650313    4168.4032           12 
   81000   0.98269022   -6.2439385    4145.2923            7 
   81100    1.0155473   -6.2598414    4141.9324           10 
   81200   0.99613668   -6.2702013    4136.8906            5 
   81300    1.0252216   -6.2857586    4134.3845            9 
   81400    1.0214844   -6.2386069    4142.7347            6 
   81500   0.99509455    -6.235846    4146.1806            5 
   81600    1.0027705   -6.2803624    4152.3171            6 
   81700    1.0154192   -6.2779923    4155.9706            4 
   81800    0.9687582    -6.230778    4167.8917            4 
   81900    1.0032924   -6.2867784    4154.9752            5 
   82000   0.98486396   -6.3009191    4142.1545            3 
   82100    1.0027559   -6.2951678    4156.4119            5 
   82200   0.99465195   -6.2800592    4154.4447            5 
   82300    1.0218052   -6.2722462    4147.4225            7 
   82400    1.0124606   -6.2938141    4155.9558            8 
   82500   0.99128585   -6.3059788    4131.2179           11 
   82600    1.0006711   -6.3253859    4138.7747            5 
   82700    1.0111265   -6.2962159     4144.452            6 
   82800   0.99092122   -6.2705254    4146.2821            7 
   82900   0.98420146   -6.2602136    4144.8049            4 
   83000     1.003174   -6.2551261    4141.3167            8 
   83100     1.014481   -6.2760467    4145.9907           13 
   83200    1.0055264   -6.2644503    4138.8107            9 
   83300    1.0022979   -6.2932726    4138.6236            4 
   83400    1.0004922     -6.28505    4150.3297            8 
   83500   0.99893564   -6.2704701    4152.2367            5 
   83600   0.98105408   -6.2768152    4146.5961            6 
   83700    1.0146152   -6.2806015    4156.3484            8 
   83800   0.98978263   -6.2664572    4159.2771            8 
   83900    1.0099655    -6.259791    4160.4844           12 
   84000    0.9831709   -6.2681655    4154.6774           10 
   84100   0.99219305   -6.2791742    4160.3226            4 
   84200    1.0149247   -6.2632554    4161.1919            5 
   84300    1.0030324   -6.2957035    4149.8859            7 
   84400    1.0053344   -6.3158964    4136.9429           16 
   84500    0.9859522   -6.3019592    4139.3938            6 
   84600    1.0004946   -6.2985474    4146.5522            7 
   84700    1.0135741   -6.2520466     4151.141           12 
   84800    0.9950872   -6.2592438    4150.6612            5 
   84900    1.0035062   -6.2739159    4151.3385            7 
   85000    1.0009904   -6.2406059    4171.5204            9 
   85100    1.0078166   -6.2573857    4160.8306            6 
   85200   0.99839082    -6.279842    4144.2589            6 
   85300    1.0023696   -6.2585871    4147.5025           14 
   85400   0.99037105   -6.2556487     4157.444            7 
   85500   0.98094327   -6.2936479    4145.8684            6 
   85600   0.98569002   -6.2841044    4146.6158           11 
   85700   0.99627777   -6.2897007     4151.337            6 
   85800     1.005131   -6.2918453    4152.1678            4 
   85900    1.0074863    -6.251119    4163.5928            8 
   86000     1.000004   -6.2496906     4164.593            8 
   86100   0.99250593   -6.2799992    4146.1237            7 
   86200      1.00489   -6.2782707    4156.4247            9 
   86300     0.987487   -6.2739659    4163.7266            5 
   86400   0.98593847   -6.2551655    4159.5879            7 
   86500   0.98498606   -6.2819512    4146.0974            7 
   86600    1.0142361   -6.2782599    4150.9055            9 
   86700   0.98801445   -6.2701979    4157.9335            7 
   86800    1.0112165   -6.2625987    4164.8148            8 
   86900    1.0129375    -6.255552    4164.2308            5 
   87000   0.99555183   -6.2599675    4146.9396            7 
   87100    1.0162985   -6.2659442    4144.5239            7 
   87200     1.003062   -6.2698538    4150.1191            5 
   87300    1.0149647   -6.2348578    4164.8285            4 
   87400    1.0009007   -6.2634424    4147.2275            5 
   87500   0.97910512   -6.2624645    4151.6344            8 
   87600   0.98712278   -6.2374443    4158.0751            3 
   87700    1.0034887   -6.2459761    4158.4222            7 
   87800   0.98482594   -6.2357641    4158.9647            9 
   87900    1.0314878   -6.2407247    4162.2725            7 
   88000    1.0103945   -6.2459583    4157.1961            8 
   88100   0.98680003   -6.2395981    4153.9261           10 
   88200    1.0073522   -6.2339704    4154.2833            6 
   88300    1.0240267   -6.2763576     4139.195           10 
   88400    0.9919987    -6.268231    4136.8928           10 
   88500    1.0067785   -6.2660341    4142.3282            4 
   88600   0.99377121   -6.2930585    4132.0502            8 
   88700    1.0116035   -6.2715811    4138.5561            7 
   88800   0.99102741   -6.2544487    4153.4688            9 
   88900    1.0001144   -6.2828405    4158.1516            5 
   89000   0.99017605   -6.2761204    4156.9345            5 
   89100   0.99245825   -6.3019336    4168.5995            5 
   89200   0.98196856   -6.3073051    4151.7363            4 
   89300   0.99020095   -6.2917548    4150.4528            5 
   89400    0.9926933   -6.2947718    4149.4385            8 
   89500    1.0101838   -6.2773818    4147.5892           26 
   89600    1.0170947   -6.2796648    4153.3392            9 
   89700   0.98808629   -6.2653886    4154.8197            7 
   89800    1.0065239    -6.305358    4155.4102           11 
   89900   0.97032349   -6.2852741    4150.4404            9 
   90000    1.0059554   -6.2812325    4161.8731            8 
   90100   0.97438929   -6.2772467    4167.5403            2 
   90200   0.97967871   -6.2733635    4171.6203            3 
   90300    0.9777214   -6.2642011      4166.65            8 
   90400    1.0070734   -6.2671627     4166.758            4 
   90500   0.98309469   -6.2446155    4173.3265           11 
   90600   0.97747489   -6.2721784    4164.4821            6 
   90700   0.99440186   -6.2453831    4178.9868            3 
   90800   0.99881156   -6.2520233    4161.2828            7 
   90900   0.99619408   -6.2524673    4156.0459            9 
   91000   0.99010768   -6.2762688     4159.482           14 
   91100   0.99025702   -6.2687515    4159.3441           14 
   91200    1.0146605   -6.2552718    4165.0722            5 
   91300   0.96700398    -6.220907    4161.1951           12 
   91400    1.0098085   -6.2316512    4164.6143            8 
   91500   0.99850677   -6.2621923    4164.0169            3 
   91600    1.0236513   -6.2784664    4158.9254            5 
   91700   0.98640545    -6.268021    4141.6563           11 
   91800   0.99013799   -6.2450793    4142.0378            9 
   91900    1.0116447   -6.2548943    4145.9841            5 
   92000    1.0056977   -6.2757726    4144.2352            9 
   92100   0.99367494   -6.3014976    4136.7566            8 
   92200    1.0145355   -6.2855356    4155.6742            5 
   92300    1.0135466   -6.2533644    4168.6579            5 
   92400    1.0134101   -6.2781238    4159.6563            6 
   92500   0.98568484   -6.2807241    4158.1918            6 
   92600    1.0041107   -6.2715888    4159.9914            7 
   92700    1.0004538   -6.2546415    4166.0349           16 
   92800    0.9892286   -6.2732442    4147.3549            4 
   92900    1.0110802   -6.2987839    4146.3876            6 
   93000    0.9829364   -6.2837124    4154.0686            6 
   93100    1.0014361   -6.2790813    4154.4704            5 
   93200    1.0009554   -6.2970762    4147.1713            7 
   93300   0.98999651   -6.2750199    4146.0363            6 
   93400    1.0002818   -6.2588926    4154.7505            3 
   93500   0.99139416   -6.2836286    4154.3065            5 
   93600    1.0111319   -6.2523562    4161.9022            4 
   93700    1.0205057   -6.2658914    4160.0145            5 
   93800   0.99687968   -6.2747874    4158.1194           11 
   93900   0.98978344   -6.2659398    4168.3608            7 
   94000   0.99282725   -6.2575568    4170.1896            6 
   94100   0.99197531   -6.2792184    4154.1288            7 
   94200   0.99867655   -6.2934815     4148.158            8 
   94300   0.97767783   -6.3032358    4151.8162            6 
   94400   0.97585375   -6.2990723    4152.7475            3 
   94500    1.0135599   -6.2992125    4154.5683           12 
   94600   0.99405872   -6.3205014    4148.3459            9 
   94700    1.0108936   -6.3233495     4148.848            6 
   94800    1.0000046   -6.2683961    4155.7229           13 
   94900   0.98915459   -6.2493842    4158.0308            7 
   95000   0.99915682   -6.2959982    4149.3125            7 
   95100    1.0180091   -6.2759666    4151.8139            8 
   95200    0.9945955   -6.2527143    4153.4793            5 
   95300   0.99172553   -6.2755189    4137.2235            4 
   95400    1.0019631   -6.2346282    4158.0665            4 
   95500    0.9932076   -6.2163007    4165.5601            7 
   95600   0.99748915   -6.2731353    4160.0547            5 
   95700   0.99724821   -6.2651236    4160.5176            9 
   95800      1.00605    -6.254076    4165.9292            4 
   95900   0.97893923   -6.2609332    4158.7551            5 
   96000    1.0099444   -6.2929699    4167.2011            3 
   96100    1.0183141   -6.2850471    4157.5558            3 
   96200   0.98619908   -6.2731844    4153.9795            3 
   96300    1.0094064    -6.271243    4157.5143            5 
   96400   0.99846899    -6.307847      4148.11            2 
   96500    0.9839847   -6.2914403    4145.3781            5 
   96600    1.0109585   -6.2824203     4155.521            3 
   96700    1.0178641   -6.2644842    4157.0339            3 
   96800   0.99321306   -6.2754268    4147.3427            3 
   96900   0.99202968   -6.2767722    4144.1551            2 
   97000    1.0100113   -6.2666564    4170.3945            9 
   97100   0.99465619   -6.2693139     4162.653            8 
   97200    0.9969343   -6.2896784     4150.872            7 
   97300   0.98524055   -6.2888345    4155.4668            7 
   97400    1.0034429   -6.2824742    4169.5627            5 
   97500   0.99087041   -6.3110869    4165.0674            6 
   97600   0.99452624   -6.2786888    4159.3975            6 
   97700    1.0069213   -6.2650074    4165.9364            4 
   97800    1.0002782   -6.2889723    4151.0919            4 
   97900   0.99337675   -6.3215808     4150.123            5 
   98000    1.0091183   -6.2855147    4144.8213            6 
   98100   0.99306657   -6.2989719     4142.806           13 
   98200   0.98903556   -6.2441998    4148.9184           16 
   98300    1.0075322   -6.2496694    4142.4306           16 
   98400    1.0067352   -6.2815817    4138.3689           10 
   98500    1.0057936   -6.2950898    4133.4638           13 
   98600   0.98692941   -6.2807047    4133.9311           20 
   98700    1.0068561   -6.2676364     4144.956            8 
   98800    1.0097273   -6.2695975    4140.0332            8 
   98900    1.0016212   -6.2577422    4146.9053            8 
   99000    1.0018209   -6.2960156      4142.61            5 
   99100   0.99364892   -6.2960706    4146.4935            6 
   99200   0.99862568   -6.2994705    4156.2598            4 
   99300   0.98337488   -6.2713864    4157.1204            8 
   99400   0.99753847   -6.3133743    4157.6849            6 
   99500   0.97427496   -6.2907364    4143.8433            5 
   99600   0.98976602   -6.2709074    4162.1792            5 
   99700   0.98696302   -6.2599919    4160.6044            5 
   99800    1.0139149    -6.277333    4163.5571            4 
   99900    0.9961441     -6.26899     4156.663            4 
  100000   0.99132243   -6.2881358    4143.5206            7 
  100100    1.0170633   -6.2852456     4144.443            5 
  100200    1.0250274   -6.2582599    4155.2536            6 
  100300    1.0223735   -6.2868385    4137.8076            5 
  100400   0.99284764   -6.2786126     4140.098            9 
  100500    1.0278694   -6.2648208    4156.3453            4 
  100600   0.99125072    -6.256406    4156.9155            6 
  100700    1.0018361   -6.2408863    4148.5028           10 
  100800    1.0262607   -6.2369707     4147.907            5 
  100900    1.0015985   -6.2461929    4152.9098            6 
  101000   0.99858214   -6.2339288    4147.1373            9 
  101100    1.0133521   -6.2541293    4137.2305            7 
  101200   0.99186682   -6.2392317    4142.5251            7 
  101300    1.0017746   -6.2423633    4145.6419            6 
  101400   0.98984066   -6.2490348    4156.5292           11 
  101500    1.0145956   -6.2525919    4159.3617            7 
  101600   0.99150212   -6.2707541    4151.4834            8 
  101700    1.0090014   -6.2632421    4154.8167           11 
  101800   0.98600288   -6.2852775    4153.8766            9 
  101900     1.004989    -6.292891    4159.3492            8 
  102000    1.0065879   -6.2717572      4161.02            5 
  102100   0.99767036   -6.2907342    4142.2203            8 
  102200    1.0023765   -6.2621244    4135.8612            7 
  102300   0.99866745   -6.2680344    4146.8311            7 
  102400    1.0000427   -6.2394945    4168.5447            9 
  102500    1.0205693   -6.2417613    4169.8303            4 
  102600    1.0123411   -6.2623003     4145.351            5 
  102700    1.0201527    -6.271403    4141.3217            8 
  102800   0.98886927   -6.2840584     4141.325            5 
  102900   0.99542239    -6.275361    4139.7959            6 
  103000   0.99274716   -6.2499616    4156.7947            6 
  103100    1.0153921   -6.2640958    4153.6776            3 
  103200   0.98922222   -6.2737261    4144.5713            5 
  103300   0.98742368   -6.2530568    4146.2679            6 
  103400    1.0271503   -6.2855641    4150.4957            4 
  103500    0.9973408   -6.2888397    4134.6121            6 
  103600    1.0004929   -6.2969132      4132.98            4 
  103700    1.0259548   -6.2983787    4137.1712           13 
  103800    1.0055867   -6.2767641    4148.3197            8 
  103900   0.99598243   -6.3139155    4154.7641            5 
  104000    1.0057683   -6.2872671    4161.4107            6 
Loop time of 183.18 on 32 procs for 100000 steps with 4000 atoms

Performance: 94333.209 tau/day, 545.910 timesteps/s
99.7% CPU use with 32 MPI tasks x no OpenMP threads

MPI task timing breakdown:
Section |  min time  |  avg time  |  max time  |%varavg| %total
---------------------------------------------------------------
Pair    | 15.429     | 15.551     | 15.745     |   1.7 |  8.49
Neigh   | 1.9259     | 1.9385     | 1.9743     |   0.6 |  1.06
Comm    | 8.4717     | 9.3231     | 10.636     |  17.9 |  5.09
Output  | 4.5602     | 4.5607     | 4.5719     |   0.1 |  2.49
Modify  | 146.94     | 149.65     | 151.1      |   9.1 | 81.69
Other   |            | 2.158      |            |       |  1.18

Nlocal:        125.000 ave         136 max         117 min
Histogram: 2 3 5 3 10 5 0 2 0 2
Nghost:        1907.16 ave        1926 max        1885 min
Histogram: 2 1 2 6 2 5 5 3 3 3
Neighs:        13744.9 ave       15015 max       12841 min
Histogram: 4 4 1 6 5 5 4 0 2 1
FullNghs:      27489.1 ave       30100 max       25652 min
Histogram: 3 2 5 3 9 5 1 1 2 1

Total # of neighbors = 879652
Ave neighs/atom = 219.91300
Neighbor list builds = 5971
Dangerous builds = 0

#clear
#
#next RN
#
#jump SELF
Total wall time: 0:03:04
