
units lj                  # Use reduced LJ style units
atom_style atomic         # Uncharged point particles
atom_modify map hash      # Needed for indexing of clusters etc
                          # Used to be able to find where atoms are in relation to each other.

lattice fcc 1.0 spacing 1 1 1
Lattice spacing in x,y,z = 1.5874011 1.5874011 1.5874011
region box block 0 10 0 10 0 10 units lattice
create_box 2 box
Created orthogonal box = (0.0000000 0.0000000 0.0000000) to (15.874011 15.874011 15.874011)
  3 by 4 by 4 MPI processor grid
create_atoms 1 box
Created 4000 atoms
  using lattice units in orthogonal box = (0.0000000 0.0000000 0.0000000) to (15.874011 15.874011 15.874011)
  create_atoms CPU = 0.003 seconds
set type 1 type/fraction 2 0.44 78393
Setting atom values ...
  1760 settings made for type/fraction
mass 1 1.0
mass 2 1.0
pair_style lj/cut  3.5
pair_modify tail  yes
pair_coeff 1  1  1.0  1.0   # Intearaction between 1 and 1 set with epsilon = 1 and sigma = 1
pair_coeff 1  2  1.5  0.8
pair_coeff 2  2  0.5  0.88

write_data data.0
System init for write_data ...
Neighbor list info ...
  update every 1 steps, delay 10 steps, check yes
  max neighbors/atom: 2000, page size: 100000
  master list distance cutoff = 3.8
  ghost atom cutoff = 3.8
  binsize = 1.9, bins = 9 9 9
  1 neighbor lists, perpetual/occasional/extra = 1 0 0
  (1) pair lj/cut, perpetual
      attributes: half, newton on
      pair build: half/bin/atomonly/newton
      stencil: half/bin/3d
      bin: standard
WARNING: Not all mixed pair coeffs generated from mixing. Use write_data with 'pair ij' option to store all pair coeffs. (../write_data.cpp:312)


#############################
#   M E L T   S Y S T E M   #
#############################

velocity all create 2.4 5300450 mom yes dist gaussian # Assign velocities
                                                    # Temperature 2.4, random number seed, zero linear momentum
                                                                                # Gaussian distribution

timestep 0.002   # simulation timestep
thermo 1000       # output thermodynamic data every 1000 steps bf 100

# Define a fix  in this case with index 1 applied to all
# particles in the simulation. This fix is for simulations
# in the anisotropic NPT ensemble. Note that we use the MTK
# correction.
fix 1 all npt temp 2.4 2.4 0.1 iso 5.68 5.68 0.5 mtk yes tchain 5 pchain 5 # Use NPT ensemble
                                                                         # Set temperature and pressure and damping
                                                                         # Numbers of thermostats in chain and in barostat
run 10000          # run for 10000 steps
Per MPI rank memory allocation (min/avg/max) = 3.642 | 3.644 | 3.648 Mbytes
Step Temp E_pair E_mol TotEng Press Volume 
       0          2.4   -5.6445478            0   -2.0454478   -4.2010474         4000 
    1000    2.3959777   -4.9817511            0    -1.388683    5.8277112     3807.184 
    2000    2.4314286   -5.0378957            0   -1.3916646    5.4202853    3819.5704 
    3000      2.41886   -5.0514607            0   -1.4240778    5.0681694    3841.4072 
    4000    2.3913832    -5.006332            0   -1.4201539    5.6012152    3821.8996 
    5000    2.4139918   -4.9873673            0   -1.3672849    5.7602208    3814.7146 
    6000     2.388289    -4.985301            0   -1.4037631    5.5423766    3826.4513 
    7000    2.4077354   -5.0190014            0   -1.4083012    5.7048096     3800.942 
    8000    2.3570516   -4.9700808            0   -1.4353874     5.824025    3813.3754 
    9000    2.3594829   -4.9670491            0   -1.4287095    5.6700736    3825.7734 
   10000    2.4064079   -5.0306736            0   -1.4219642    5.7512666    3787.1056 
Loop time of 2.57402 on 48 procs for 10000 steps with 4000 atoms

Performance: 671324.132 tau/day, 3884.978 timesteps/s
99.6% CPU use with 48 MPI tasks x no OpenMP threads

MPI task timing breakdown:
Section |  min time  |  avg time  |  max time  |%varavg| %total
---------------------------------------------------------------
Pair    | 1.1366     | 1.2059     | 1.3887     |   3.8 | 46.85
Neigh   | 0.20908    | 0.21825    | 0.25189    |   1.3 |  8.48
Comm    | 0.70535    | 0.87193    | 0.99437    |   6.0 | 33.87
Output  | 0.00023546 | 0.00024211 | 0.00029863 |   0.0 |  0.01
Modify  | 0.21172    | 0.2624     | 0.33236    |   6.5 | 10.19
Other   |            | 0.01524    |            |       |  0.59

Nlocal:        83.3333 ave          91 max          72 min
Histogram: 1 1 2 3 8 8 11 7 4 3
Nghost:        1699.83 ave        1734 max        1673 min
Histogram: 4 3 4 10 7 11 5 3 0 1
Neighs:        10069.8 ave       11385 max        8259 min
Histogram: 1 0 3 5 7 8 11 6 6 1

Total # of neighbors = 483352
Ave neighs/atom = 120.83800
Neighbor list builds = 905
Dangerous builds = 194

# Equilibrate just above the melting temperature to avoid step fn in T

fix 1 all npt temp 1.25 1.25 0.1 iso 5.68 5.68 0.5 mtk yes tchain 5 pchain 5
run 2000
Per MPI rank memory allocation (min/avg/max) = 3.643 | 3.645 | 3.649 Mbytes
Step Temp E_pair E_mol TotEng Press Volume 
   10000    2.4064079   -5.0306736            0   -1.4219642    5.7512666    3787.1056 
   11000    1.2631226   -7.0454488            0   -5.1512386    5.8064073    2996.7405 
   12000    1.2555736   -7.1250355            0   -5.2421461    5.1927866    3002.0955 
Loop time of 0.608629 on 48 procs for 2000 steps with 4000 atoms

Performance: 567833.607 tau/day, 3286.074 timesteps/s
99.6% CPU use with 48 MPI tasks x no OpenMP threads

MPI task timing breakdown:
Section |  min time  |  avg time  |  max time  |%varavg| %total
---------------------------------------------------------------
Pair    | 0.26165    | 0.2988     | 0.31848    |   2.3 | 49.09
Neigh   | 0.038611   | 0.04141    | 0.043824   |   0.7 |  6.80
Comm    | 0.20072    | 0.22143    | 0.26519    |   3.1 | 36.38
Output  | 5.3606e-05 | 5.4572e-05 | 6.8893e-05 |   0.0 |  0.01
Modify  | 0.038186   | 0.042237   | 0.04578    |   1.0 |  6.94
Other   |            | 0.004697   |            |       |  0.77

Nlocal:        83.3333 ave          92 max          77 min
Histogram: 5 3 4 5 13 6 8 2 1 1
Nghost:        1988.40 ave        2013 max        1969 min
Histogram: 4 7 8 3 6 5 7 3 2 3
Neighs:        12708.6 ave       14240 max       11232 min
Histogram: 4 1 6 7 8 3 7 7 3 2

Total # of neighbors = 610015
Ave neighs/atom = 152.50375
Neighbor list builds = 141
Dangerous builds = 6

#############################
# L I N E A R  Q U E N C H  #
#############################

# Define solid atoms. This closely follows ten Wolde  Ruiz-Montero and Frenkel  Faraday Discuss  1996  104  93-110
# Compute components of the per-atom q6 vector
compute q6 all orientorder/atom degrees 1 6 components 6 nnn NULL cutoff 1.3 # compute the Q6 parameter.
                                                                             # Use all neighbours within 1.3 unit cell.

# get number of connections
compute coord_number all coord/atom orientorder q6 0.5

# An atom is solid if it has 8 or more connections (of a possible 14)
variable is_solid atom c_coord_number>=8
group solid dynamic all var is_solid    # Must be dynamic to update
dynamic group solid defined

# do clustering
compute cluster solid cluster/atom 1.3 # Create a cluster where all atoms within are solid and max 1.3 units from another member

# define chunks one chunk per cluster
compute clus_chunks solid chunk/atom c_cluster nchunk every compress yes  # Says which atoms are in which chunk

# count the size of each chunk
compute size_chunks solid property/chunk clus_chunks count


# Find the maximum entry in the vector of chunk sizes
variable max_n equal max(c_size_chunks)


# Thermo style which includes this variable
# thermo_style custom step temp pe vol v_max_n

thermo ${N}  # Print the thermo information every 100 steps
thermo 1000  

# Reset the npt fix at a lower temperature (below freezing)
fix 1  all npt temp  ${temp} ${temp}  0.1  iso  5.68  5.68  0.5  mtk yes tchain  5  pchain  5
fix 1  all npt temp  0.45 ${temp}  0.1  iso  5.68  5.68  0.5  mtk yes tchain  5  pchain  5
fix 1  all npt temp  0.45 0.45  0.1  iso  5.68  5.68  0.5  mtk yes tchain  5  pchain  5

dump dmp2 all dcd ${N} traj.dcd
dump dmp2 all dcd 1000 traj.dcd


compute msd all msd com yes
variable twopoint equal c_msd[4]/6/(step*dt+1.0e-6)
fix 9 all vector 10 c_msd[4]
variable fit equal slope(f_9)/6/(10*dt)
thermo_style custom step temp pe c_msd[4] v_twopoint v_fit v_max_n

fix 1 all npt temp 1.25 ${temp} 0.1 iso 5.68 5.68 0.5 mtk yes tchain 5 pchain 5
fix 1 all npt temp 1.25 0.45 0.1 iso 5.68 5.68 0.5 mtk yes tchain 5 pchain 5
run 5000000 # 5000000  # Run for this many steps
Neighbor list info ...
  update every 1 steps, delay 10 steps, check yes
  max neighbors/atom: 2000, page size: 100000
  master list distance cutoff = 3.8
  ghost atom cutoff = 3.8
  binsize = 1.9, bins = 8 8 8
  4 neighbor lists, perpetual/occasional/extra = 1 3 0
  (1) pair lj/cut, perpetual
      attributes: half, newton on
      pair build: half/bin/atomonly/newton
      stencil: half/bin/3d
      bin: standard
  (2) compute orientorder/atom, occasional
      attributes: full, newton on
      pair build: full/bin/atomonly
      stencil: full/bin/3d
      bin: standard
  (3) compute coord/atom, occasional
      attributes: full, newton on
      pair build: full/bin/atomonly
      stencil: full/bin/3d
      bin: standard
  (4) compute cluster/atom, occasional
      attributes: full, newton on
      pair build: full/bin/atomonly
      stencil: full/bin/3d
      bin: standard
Per MPI rank memory allocation (min/avg/max) = 9.828 | 9.834 | 9.838 Mbytes
Step Temp PotEng c_msd[4] v_twopoint v_fit v_max_n 
   12000    1.2555736   -7.1250355 1.0590458e-30 7.3544842e-33 8.3333333e+20            4 
   13000    1.2488777   -7.1642528   0.45392162 0.0029097539  0.036995583            2 
   14000    1.2509736   -7.1287313   0.89368466 0.0053195514  0.035941852            1 
   15000    1.2649722   -7.1425923    1.3017522 0.0072319565  0.035951135            1 
   16000    1.2515243   -7.1400477    1.7490253 0.0091095063  0.035780289            1 
   17000     1.266604   -7.1728969    2.1418967  0.010499493  0.035618669            2 
   18000    1.2338503   -7.1471079    2.5956001  0.012016667  0.035419841            1 
   19000    1.2464095   -7.1540537    2.9921391  0.013123417  0.035292893            2 
   20000    1.2766967   -7.1564046     3.382819  0.014095079  0.035258586            1 
   21000    1.2365113   -7.1319606    3.7316785  0.014808248  0.034828844            1 
   22000     1.235386   -7.1479677     4.110245  0.015569109  0.034403808            1 
   23000    1.2383253   -7.2025989    4.4724284   0.01620445  0.033932676            2 
   24000    1.2604555    -7.151797    4.8958716  0.016999554  0.033704032            1 
   25000    1.2470747   -7.1731675    5.3448111  0.017816037   0.03360207            1 
   26000     1.232323    -7.171128    5.7448752  0.018413061  0.033553284            1 
   27000    1.2573798   -7.1260095    6.1634717  0.019023061  0.033536795            3 
   28000    1.2704269    -7.146771    6.5163738  0.019393969  0.033529395            2 
   29000    1.2544079   -7.1252835    6.9646528   0.02001337  0.033510351            2 
   30000    1.2307043   -7.1626519    7.3389711   0.02038603    0.0335225            1 
   31000    1.2542435   -7.1430522    7.6864441  0.020662484  0.033477532            1 
   32000    1.2711815   -7.1544717    8.1493923  0.021222375  0.033455024            3 
   33000     1.266282   -7.1584925    8.5696512  0.021640533  0.033497295            2 
   34000    1.2523538   -7.1719901     9.090109  0.022279679  0.033595938            2 
   35000     1.243505   -7.1043779    9.5863846  0.022824725  0.033759433            3 
   36000    1.2682688   -7.1834438    10.041376  0.023243925  0.033927725            3 
   37000    1.2275032   -7.2048863    10.416963  0.023461629   0.03407143            4 
   38000    1.2301834   -7.2056272     10.87437  0.023847302  0.034195373            4 
   39000    1.2540194   -7.1511119    11.358742  0.024270815    0.0343346            2 
   40000    1.2408759   -7.1227473    11.659439  0.024290497   0.03439526            1 
   41000    1.2562847   -7.1131848    12.162723  0.024720981  0.034472897            3 
   42000    1.2508366   -7.1870353    12.514496  0.024830349  0.034539508            1 
   43000    1.2699168    -7.189563    12.943519   0.02508434  0.034602802            2 
   44000    1.2476642   -7.1800538    13.390984  0.025361711  0.034645133            1 
   45000     1.234806   -7.1554699    13.781681  0.025521632  0.034690596            1 
   46000     1.232189   -7.1576168    14.309728   0.02592342  0.034740862            1 
   47000    1.2404847    -7.138694    14.753193  0.026158143    0.0347942            2 
   48000    1.2298546   -7.1702939    15.198285  0.026385911  0.034862735            4 
   49000    1.2620497   -7.1313254    15.708826   0.02671569  0.034945925            1 
   50000    1.2479524   -7.1213229    16.186923  0.026978205  0.035031316            4 
   51000    1.2466843   -7.1833638    16.514953  0.026985217  0.035123236            2 
   52000    1.2687395   -7.2039591    17.141653  0.027470598  0.035213187            1 
   53000    1.2310785   -7.1781629    17.397186  0.027354066  0.035290286            3 
   54000    1.2780279   -7.1098596    17.905396  0.027631784  0.035346098            4 
   55000    1.2803426   -7.1349167     18.31815  0.027754773  0.035398724            2 
   56000    1.2535492   -7.1676159    18.519806  0.027559235  0.035410795            2 
   57000    1.2500537   -7.1582984    18.979914  0.027748412  0.035393254            3 
   58000    1.2321471   -7.1782951    19.343781  0.027792788  0.035374821            1 
   59000    1.2257324   -7.1662965    19.777555  0.027934399  0.035371831            1 
   60000    1.2236335   -7.1191114     20.28308  0.028170944  0.035375295            3 
   61000    1.2341937   -7.1644078    20.772256  0.028377398   0.03538689            1 
   62000    1.2488658   -7.1723411    21.149876  0.028427252  0.035389147            2 
   63000    1.2501477    -7.119234    21.575991  0.028539671  0.035383965            2 
   64000    1.2317964   -7.1396519    21.794829  0.028378683  0.035372402            1 
   65000    1.1992268   -7.2332981    21.992973   0.02819612  0.035328816            3 
   66000    1.2313227   -7.1939027    22.364792  0.028238374  0.035270029            2 
   67000    1.2400808   -7.1534308    22.621298  0.028135943  0.035195121            2 
   68000    1.2384152   -7.2256665     23.03383  0.028227733  0.035110523            3 
   69000    1.2592013   -7.1533233    23.437761  0.028306474    0.0350307            4 
   70000    1.2474692   -7.1735533    23.912448    0.0284672  0.034956491            6 
   71000    1.2565142   -7.1637956    24.497719  0.028753191  0.034910377            2 
   72000    1.2300995   -7.1343618    24.932466   0.02885702  0.034877422            1 
   73000    1.2259538   -7.1758414    25.409425  0.029006193  0.034861261            1 
   74000    1.2336028   -7.1798413    25.890794    0.0291563  0.034856397            2 
   75000    1.2283397   -7.1294359    26.344324  0.029271471   0.03486081            1 
   76000    1.2600618   -7.1660072    26.813269  0.029400514  0.034867294            2 
   77000    1.2195961   -7.2167356    27.286304  0.029530632  0.034880429            3 
   78000    1.2324656   -7.1498262    27.779962  0.029679447  0.034897529            1 
   79000    1.2275301   -7.1716451    28.144514  0.029688306  0.034908191            3 
   80000     1.226274   -7.1578758    28.700819  0.029896686   0.03492625            2 
   81000    1.2506921   -7.1121942    29.277054  0.030120426  0.034950221            2 
   82000    1.2408289   -7.1488038    29.727383  0.030210755  0.034992358            3 
   83000     1.239557   -7.1138227    30.432082  0.030554299  0.035044595            4 
   84000    1.2340374   -7.1305115     30.84293  0.030598144   0.03509644            2 
   85000    1.2289623   -7.1779946    31.081256  0.030471819  0.035144397            2 
   86000    1.2425702   -7.0674154     31.52182  0.030544399  0.035177926            2 
   87000    1.2372438   -7.1391172    31.914981  0.030569905   0.03521283            1 
   88000     1.263992      -7.1748    32.344383  0.030629151  0.035244986            1 
   89000    1.2400688   -7.1454976    32.563501  0.030490169  0.035265085            2 
   90000    1.2715045   -7.1116516    32.880396   0.03044481  0.035271389            2 
   91000    1.2475275   -7.1262148    33.390516  0.030577396  0.035269129            1 
   92000    1.2492836   -7.1590421     33.67947  0.030506767  0.035268218            1 
   93000    1.2376771   -7.2174663    33.975076  0.030443617  0.035258844            3 
   94000    1.2475542   -7.2020012    34.323393   0.03042854  0.035249706            2 
   95000    1.2598687   -7.1970664    34.891491  0.030606571  0.035234609            3 
   96000    1.2259693   -7.1294945    35.418849  0.030745528   0.03522804            2 
   97000     1.223058   -7.2055285    35.580071  0.030567071  0.035218491            2 
   98000    1.2329259   -7.1776605     36.17188  0.030758402  0.035215486            3 
   99000    1.2320791   -7.1628296    36.727902  0.030915743  0.035212507            1 
  100000    1.2287239   -7.1421508    37.228953  0.031024127   0.03521326            2 
  101000    1.2140932   -7.1995047     37.44767  0.030897418  0.035211095            2 
  102000    1.2259131   -7.1963421    37.935607  0.030993143  0.035209603            2 
  103000    1.2178911   -7.1901109    38.515717  0.031161583  0.035212923            2 
  104000    1.2345304   -7.1739892    38.982999  0.031236377  0.035222301            1 
  105000    1.2220114    -7.189348    39.309711  0.031198183  0.035230506            1 
  106000    1.2351075   -7.1522622    39.615425  0.031144202  0.035231934            3 
  107000     1.238573   -7.1431566    40.144303  0.031265033  0.035234877            2 
  108000    1.2373959   -7.1755226    40.618036  0.031341077  0.035241923            3 
  109000    1.1872123   -7.1737456    41.030156  0.031368621  0.035250134            2 
  110000    1.2519333   -7.2048942    41.465882  0.031413547  0.035260489            1 
  111000     1.240675   -7.1895652    41.875701  0.031438214  0.035269322            2 
  112000    1.2437465   -7.1147147    42.313385  0.031483173  0.035275226            1 
  113000    1.2333994   -7.1723592    42.426368  0.031287882  0.035271013            2 
  114000    1.2145425   -7.1639239    42.887335  0.031350391  0.035264294            2 
  115000    1.2671616   -7.2019786    43.404651  0.031452646  0.035256051            1 
  116000    1.2078562   -7.1761513    43.599493  0.031321475  0.035245659            3 
  117000    1.2218179   -7.1724614    44.101027  0.031410988  0.035236445            1 
  118000    1.2385558    -7.174669    44.652499   0.03153425  0.035227962            2 
  119000    1.2153862   -7.1590652     45.02946  0.031533235  0.035221016            2 
  120000    1.2585873   -7.1716401    45.461212  0.031570286  0.035216215            4 
  121000    1.2378355   -7.1858769     45.93786  0.031637644   0.03521534            1 
  122000    1.2222318   -7.1547623    46.518358  0.031774834  0.035210692            1 
  123000    1.2464621   -7.1854167    46.721069   0.03165384  0.035208606            2 
  124000    1.2261028   -7.1529073    47.502864  0.031923968  0.035213348            1 
  125000     1.218552   -7.1344376    47.861353  0.031907568  0.035222691            1 
  126000    1.2415727   -7.1795984    48.357345  0.031982371  0.035235423            1 
  127000    1.2455551   -7.1963463    48.738803  0.031980842  0.035242963            3 
  128000    1.2361773   -7.1890491    49.012671  0.031909291  0.035250689            1 
  129000    1.2344565   -7.1511367    49.725652  0.032122514  0.035259017            1 
  130000    1.2277165   -7.1612858    50.312292  0.032251469  0.035272801            1 
  131000    1.2263795   -7.1927523    50.805522  0.032319034  0.035290832            1 
  132000    1.2264331    -7.184377    51.444796  0.032477775  0.035310818            1 
  133000    1.2478547   -7.1461477    51.641886  0.032357071  0.035335412            1 
  134000    1.2183768   -7.2278208    52.122577  0.032414538  0.035352938            1 
  135000    1.1918551   -7.2035263    52.484428  0.032397795  0.035365663            1 
  136000    1.2431605   -7.1349874     53.00203  0.032476734   0.03538108            1 
  137000    1.2574362   -7.1989358    53.293715  0.032417102  0.035394299            1 
  138000    1.2535952   -7.1475278    53.526103  0.032322526  0.035408063            1 
  139000    1.2396978   -7.1973146    53.692062  0.032189485  0.035411029            1 
  140000    1.1990293   -7.2209298    54.184535  0.032252699  0.035408401            4 
  141000    1.2381101    -7.224583    54.658641  0.032304161  0.035408383            2 
  142000    1.2701263   -7.1860511    55.390873  0.032506381  0.035414082            2 
  143000    1.1916364   -7.1746059    55.843813  0.032543015  0.035421626            1 
  144000    1.2081944   -7.2192493    56.146761  0.032492338  0.035429275            2 
  145000    1.2002713   -7.2291236    56.434357  0.032433538  0.035434237            2 
  146000    1.2410277   -7.1808133    57.091048  0.032586215  0.035440275            1 
  147000    1.2168997   -7.1773343    57.445048   0.03256522  0.035446037            3 
  148000    1.2088032   -7.2179761    57.606268  0.032435961   0.03545042            3 
  149000    1.2329275   -7.1831119    58.106461   0.03249802  0.035455327            1 
  150000    1.2173717   -7.1662194    58.660705   0.03258928  0.035459192            2 
  151000    1.2458786    -7.170621    58.912484  0.032512408  0.035460478            2 
  152000    1.2254379   -7.2125601    58.972274   0.03233129  0.035455383            1 
  153000    1.2322946   -7.1417706    59.475233  0.032393918   0.03544799            3 
  154000    1.2121771   -7.2191728    59.994032  0.032464303  0.035444969            1 
  155000    1.2231411   -7.2462561    60.393357  0.032469547  0.035442643            2 
  156000    1.2357936   -7.1830759    60.920455  0.032542978  0.035439187            1 
  157000    1.2296283   -7.1838587    61.387957  0.032583841  0.035436066            2 
  158000    1.2109162   -7.1682596    61.683696  0.032533595  0.035433721            1 
  159000    1.2281632    -7.246285    62.043194  0.032517397   0.03542686            4 
  160000    1.2104964    -7.164452    62.415312  0.032507975   0.03541751            1 
  161000    1.2366312   -7.1825625    62.405456   0.03230096  0.035409165            4 
  162000    1.2257162   -7.2390655    62.871874  0.032341499  0.035397578            1 
  163000    1.2308782   -7.1974622    63.232455  0.032327431  0.035384731            1 
  164000    1.2071147   -7.2069953    63.854736  0.032446512  0.035372659            4 
  165000    1.2253092   -7.1861371    64.098614  0.032373037   0.03535972            1 
  166000    1.2124643   -7.1801216     64.64619  0.032452906   0.03534399            4 
  167000    1.2033324   -7.2223801    64.662471  0.032266702  0.035329974            1 
  168000    1.2181265   -7.1819461    65.125239  0.032304186  0.035314595            2 
  169000     1.271882   -7.2437041    65.416144  0.032256481  0.035295511            1 
  170000    1.1981154   -7.1833108    65.936694  0.032321909  0.035279098            2 
  171000     1.226619   -7.2214395    66.267141  0.032293928  0.035261589            2 
  172000    1.1975143   -7.1427024     66.73977   0.03233516  0.035245123            1 
  173000    1.2347718   -7.2498141    67.014911  0.032280786  0.035227097            1 
  174000    1.2475629   -7.2160576    67.324171  0.032243377  0.035208713            2 
  175000    1.2421273   -7.2025783    67.814362  0.032292553  0.035190658            2 
  176000    1.2168601   -7.1845105    68.358778  0.032366845  0.035175564            1 
  177000     1.208138   -7.2152816    68.689256  0.032339574  0.035160011            2 
  178000    1.1987294    -7.195883    69.174294  0.032384969  0.035144139            2 
  179000    1.2300652   -7.2030364    69.528065  0.032368745  0.035127209            3 
  180000    1.2229441   -7.2572994    69.776078   0.03230374  0.035109675            3 
  181000    1.2224391   -7.2158074    70.320135  0.032375753  0.035092494            2 
  182000    1.2399871   -7.1782297    70.587759  0.032320403  0.035077419            2 
  183000    1.2103519    -7.192814    71.216581  0.032430137  0.035063806            1 
  184000    1.2250354   -7.2240034    71.612758  0.032433314   0.03504871            2 
  185000    1.2361064   -7.2211499     71.77544  0.032331279  0.035032254            3 
  186000    1.2167115   -7.1921274    72.376335  0.032426673  0.035017572            3 
  187000    1.1947459   -7.2257078    72.420437  0.032272922  0.035001707            1 
  188000    1.2139318   -7.2238403    72.761083  0.032252253  0.034984794            2 
  189000    1.2320782   -7.1956916    73.366315  0.032348463  0.034968474            1 
  190000    1.2418256    -7.176869    73.582251  0.032272917  0.034950611            2 
  191000    1.2015353   -7.2310632    73.727488  0.032167316  0.034931561            1 
  192000    1.1929828   -7.1895066    74.021047   0.03212719  0.034910519            1 
  193000    1.2137629   -7.2110539    74.582858  0.032203306  0.034890447            3 
  194000     1.225886   -7.2345749    74.873251   0.03216205  0.034869056            1 
  195000    1.2395294   -7.2080687    75.463075  0.032249177  0.034848056            2 
  196000    1.2203571   -7.2627649    75.660083  0.032168403  0.034831745            1 
  197000    1.2004322   -7.2054306     76.44063  0.032335292  0.034813553            2 
  198000    1.2111185   -7.2558826    76.419698  0.032163172  0.034795724            2 
  199000    1.2038988   -7.2320535    76.703189  0.032120263  0.034778337            3 
  200000    1.2127267    -7.226658    77.325814  0.032219089  0.034758889            1 
  201000    1.2317588   -7.1966926    77.499967  0.032130998  0.034740382            2 
  202000    1.2423723   -7.1939411    78.504417  0.032386311  0.034722595            1 
  203000    1.2287549   -7.2198276    78.485406  0.032218968  0.034706904            2 
  204000    1.2085077   -7.2397328     78.84307  0.032207136  0.034689389            2 
  205000    1.2192259   -7.1983418    79.570678  0.032345804  0.034674125            5 
  206000    1.2391811   -7.2123056    80.094233   0.03240058  0.034660775            1 
  207000    1.2131484   -7.2030149    80.450745  0.032387578   0.03464701            1 
  208000    1.2274871   -7.2409881    80.697395  0.032330687  0.034633642            2 
  209000    1.2313665   -7.1977792    81.695847  0.032574101  0.034622185            1 
  210000    1.2127379   -7.2114331    81.846608  0.032478813  0.034610732            3 
  211000    1.2211508   -7.1965865    81.975571  0.032375818  0.034599236            2 
  212000    1.1988322   -7.1910682    82.483113  0.032422607  0.034586648            2 
  213000    1.1951954   -7.1676993    83.146394  0.032529888   0.03457411            1 
  214000    1.2003149   -7.2071715    83.204333  0.032400441  0.034563649            2 
  215000    1.2281741   -7.2470332    83.501732  0.032365012  0.034550624            1 
  216000    1.2130673   -7.2482747       83.649  0.032271991  0.034535846            2 
  217000    1.2079818    -7.199666    84.301664  0.032373911  0.034522368            1 
  218000    1.2143246   -7.2232535    84.415042  0.032268747  0.034508373            1 
  219000    1.2481623   -7.2519404    85.116351  0.032388261  0.034494425            1 
  220000    1.2160351   -7.2198525    85.524453  0.032395626  0.034481112            2 
  221000    1.2061178   -7.2223083    85.812718  0.032357737  0.034466576            3 
  222000    1.2047016   -7.2072175      86.1862  0.032352177  0.034453343            1 
  223000    1.2396225   -7.2023805    86.549149  0.032342731    0.0344392            2 
  224000    1.2134709   -7.2346441     86.92123  0.032336767  0.034425115            2 
  225000    1.2149297   -7.2366709    86.979572  0.032214656   0.03441091            2 
  226000    1.2098314   -7.2101704    87.421769  0.032235166  0.034395624            1 
  227000    1.2172434   -7.2243231    87.573854  0.032148992  0.034377314            1 
  228000    1.2439007    -7.229515    87.923446  0.032135762  0.034360384            1 
  229000    1.2496916   -7.2463886    88.605551   0.03224365  0.034342973            2 
  230000    1.2131404   -7.2232214    88.901221  0.032210587   0.03432884            1 
  231000    1.2227637   -7.2389433    89.144746  0.032158999  0.034314024            2 
  232000    1.2080819    -7.195305    90.033944  0.032339779  0.034300123            3 
  233000    1.2110982   -7.2288048    90.031823  0.032200223   0.03428606            2 
  234000    1.2259357   -7.2027825    90.473978  0.032220078  0.034271414            2 
  235000    1.1890378   -7.2397516    90.717782  0.032169426  0.034254991            1 
  236000    1.2355539   -7.2211597    91.284223   0.03223313  0.034239631            3 
  237000    1.2190144   -7.2553865    91.828764  0.032288595  0.034226288            1 
  238000    1.1885453   -7.2264532    92.275085  0.032309203  0.034212997            1 
  239000    1.2163933   -7.2043282     92.40529  0.032219418  0.034200552            2 
  240000    1.1888383   -7.2184821    93.052367   0.03230985  0.034189153            4 
  241000    1.2347144    -7.216421    93.582192  0.032358988  0.034178479            2 
  242000     1.223882   -7.2020995    93.547338  0.032213271  0.034165943            2 
  243000     1.227263   -7.2262321    93.656292   0.03211807  0.034152492            2 
  244000    1.2317137   -7.2681652     94.23875  0.032185365  0.034137683            1 
  245000     1.208103    -7.243769    94.541248  0.032156887  0.034122271            1 
  246000    1.1857799   -7.1880455    95.213828  0.032254007  0.034107758            1 
  247000     1.215292   -7.2162004    95.291468  0.032149618  0.034093588            3 
  248000    1.2065452   -7.2485501    95.962047  0.032245311  0.034080133            1 
  249000    1.2136983   -7.2587381    95.801335  0.032062026  0.034065465            4 
  250000     1.209957   -7.2768914     96.14273  0.032047577  0.034049369            3 
  251000    1.2118221   -7.2459046    96.814293   0.03214286  0.034036247            1 
  252000    1.2037561   -7.2344736    97.392548   0.03220653  0.034022964            1 
  253000    1.2149817   -7.2129624    97.649206   0.03216377  0.034009551            1 
  254000    1.1976832   -7.2359668     98.47492  0.032308045  0.033996566            2 
  255000    1.2228949    -7.266073    98.315918  0.032129385  0.033983748            1 
  256000    1.2268489   -7.2530341    98.762885  0.032149377  0.033971293            1 
  257000    1.2148181   -7.2495119     99.16922  0.032156038  0.033958148            1 
  258000    1.1900179   -7.2117361    99.616845  0.032175983  0.033944985            1 
  259000    1.2094828   -7.2361558    100.20573  0.032241226  0.033931853            1 
  260000    1.2104416   -7.2385537    100.27394  0.032139084  0.033920013            3 
  261000      1.21929   -7.2040025     101.3053  0.032345244  0.033910269            3 
  262000    1.2043715   -7.2251469    101.25978  0.032207308  0.033900512            1 
  263000     1.218155   -7.2123699     101.8723  0.032278928  0.033889633            1 
  264000    1.2392113   -7.2287424     101.8957  0.032164046  0.033878003            2 
  265000    1.1907488   -7.2047676    103.00392  0.032391169  0.033866776            1 
  266000    1.2153999   -7.2514467    103.02022  0.032274505  0.033857856            1 
  267000    1.2226829   -7.2100633    103.13915  0.032190746  0.033846317            1 
  268000    1.2414237   -7.2385854    103.42398  0.032159199  0.033835181            2 
  269000    1.2202638   -7.2103411    103.58737  0.032090263  0.033822973            3 
  270000    1.2284469   -7.1911803    104.05996   0.03211727  0.033811627            1 
  271000    1.1923629   -7.2253932    104.52718  0.032142429  0.033800261            2 
  272000      1.24062   -7.2354397    104.93506  0.032149221  0.033788588            2 
  273000    1.2281623   -7.1851892    105.63594  0.032245403  0.033776838            3 
  274000    1.1930339   -7.2679029    105.38821  0.032052376  0.033764392            2 
  275000     1.190204   -7.2703171    105.79429  0.032058876  0.033753035            3 
  276000     1.205706   -7.2146201    106.87035  0.032267616  0.033741857            1 
  277000    1.2245984    -7.205965    107.01269  0.032193951  0.033731681            2 
  278000    1.1977222   -7.2356336    107.12724  0.032112483  0.033720657            1 
  279000    1.1905956    -7.237934    107.38224   0.03207355  0.033709142            1 
  280000    1.1632396   -7.2374643    107.82368  0.032090382  0.033696724            1 
  281000    1.2172538   -7.2407177    108.67041  0.032227285  0.033684989            1 
  282000    1.2298252   -7.2322172    108.95967  0.032198484  0.033674989            1 
  283000     1.216424   -7.2230167    109.00082  0.032096824  0.033665419            2 
  284000    1.1956741   -7.2581296     109.5428   0.03214284  0.033654937            4 
  285000    1.2218381   -7.2294818    109.50962  0.032020358  0.033644723            4 
  286000      1.21058   -7.2911312     109.8896  0.032019115  0.033633096            3 
  287000    1.1890401   -7.2417754    110.61167  0.032117209  0.033621591            1 
  288000    1.1816496   -7.2434429    111.05942   0.03213525  0.033611747            1 
  289000    1.2001978   -7.2491855     111.1012  0.032036101  0.033601429            1 
  290000    1.1917959   -7.2176004    111.47388  0.032032725  0.033589584            2 
  291000    1.2064981   -7.2590885    111.98195   0.03206814  0.033577227            2 
  292000    1.2225441    -7.193717    112.42837  0.032085721   0.03356503            1 
  293000    1.1988901   -7.2431619    112.55671  0.032012715  0.033551752            2 
  294000    1.2003363    -7.231698    112.49145  0.031885333   0.03353667            1 
  295000    1.1976045   -7.2700505    112.56751  0.031798731  0.033520046            1 
  296000    1.1790578   -7.2721379    112.81848  0.031761958  0.033503431            3 
  297000    1.2318616   -7.2213426    113.33689  0.031800473  0.033486746            1 
  298000    1.1898848   -7.2278119    113.62188  0.031773456   0.03346936            1 
  299000    1.1982166   -7.2623304    113.57221  0.031653346  0.033450842            2 
  300000    1.1888481   -7.2432063     114.1459  0.031707195  0.033433779            2 
  301000    1.2246724   -7.2295742    115.27079  0.031913286  0.033418055            1 
  302000    1.2051579   -7.2769103    115.18149  0.031782971  0.033401636            2 
  303000    1.2038941   -7.2364605    115.68171  0.031815653  0.033385548            2 
  304000    1.1859559   -7.1956712    115.95408  0.031785657  0.033369168            1 
  305000    1.2157081   -7.2663076    116.30241  0.031776614  0.033353708            1 
  306000    1.2014195   -7.2662596    117.09807  0.031889453  0.033339015            3 
  307000    1.2098374   -7.2212357    117.38245  0.031862772  0.033325032            3 
  308000    1.2139642   -7.2387596    117.57405   0.03181116  0.033311713            1 
  309000    1.1964427   -7.2693239    117.91767  0.031800882  0.033298701            1 
  310000    1.2120494   -7.2498042    118.35866  0.031816844  0.033285026            1 
  311000    1.1784812   -7.2295104    118.89865  0.031859231  0.033272135            2 
  312000     1.182751   -7.2656627    118.51674  0.031655111   0.03325841            2 
  313000    1.1936481   -7.2206495    119.28979  0.031759796  0.033243487            1 
  314000      1.23625   -7.2708342    119.16641  0.031625904  0.033228744            2 
  315000    1.1974646   -7.2833379    119.45411  0.031601618  0.033213095            1 
  316000    1.2209032   -7.2259127    120.23018  0.031706272  0.033197598            4 
  317000    1.1749296   -7.2126576    120.50814  0.031679321  0.033182301            6 
  318000    1.2077179   -7.2682823    120.82307  0.031662229  0.033166038            2 
  319000    1.2176946   -7.2550206     120.9615  0.031599138  0.033149192            3 
  320000    1.1765588   -7.2962773    120.68926  0.031429494  0.033131456            1 
  321000    1.2257217   -7.2638327    121.33198  0.031498438   0.03311402            4 
  322000    1.2028088   -7.2371061    121.90485  0.031548874  0.033097135            1 
  323000    1.1754561   -7.2528403    122.61711  0.031634961  0.033079597            1 
  324000    1.1735377   -7.2154755    122.85127  0.031597549  0.033063669            2 
  325000    1.1925123   -7.2423914    122.87869  0.031507356  0.033046512            1 
  326000    1.1993086   -7.2803938    122.62146  0.031344954  0.033028112            4 
  327000    1.2021597   -7.2457724    122.81095  0.031297388  0.033009439            1 
  328000     1.187345   -7.2592626    123.41298  0.031354924  0.032989944            1 
  329000    1.1883203   -7.2676297    123.80733  0.031359507  0.032970757            1 
  330000    1.1971917   -7.2684245    124.34585  0.031400466  0.032952805            3 
  331000    1.1854871    -7.249749    124.77413  0.031413427  0.032934798            1 
  332000     1.217769   -7.2457624    125.32688  0.031457551  0.032917945            5 
  333000    1.1991802    -7.285445    125.25903  0.031346104   0.03290114            3 
  334000    1.1785071   -7.2468901    125.81594  0.031391202  0.032883424            2 
  335000    1.1970695   -7.2978926    126.04042  0.031353339  0.032866343            1 
  336000    1.1822144   -7.2751674     126.5301  0.031381473  0.032849533            1 
  337000      1.21216   -7.2457977    126.75412  0.031343749  0.032833338            1 
  338000    1.1973472   -7.2783175    126.98908  0.031308944  0.032817143            2 
  339000    1.2172416   -7.2631743     127.1502  0.031256195  0.032800453            1 
  340000    1.2296391   -7.2168789    128.07976  0.031392098  0.032784111            3 
  341000    1.1991108   -7.2404814    128.67478  0.031445448  0.032768806            2 
  342000    1.1945084   -7.2875767    128.69239  0.031357794  0.032752851            1 
  343000    1.2041598    -7.273623    129.16579  0.031381388  0.032738023            2 
  344000    1.2005513   -7.2534493    129.34227  0.031332914  0.032722838            2 
  345000     1.197484   -7.2734932    130.01501  0.031404591  0.032707548            2 
  346000    1.1858303   -7.2508673     130.4055  0.031407875  0.032692839            3 
  347000     1.203333    -7.250464    130.23346  0.031276047  0.032677686            1 
  348000    1.1949735    -7.274614    130.46273  0.031241076  0.032661352            1 
  349000    1.1931654   -7.2468781    131.09008  0.031301356  0.032645062            1 
  350000    1.2113437   -7.2873669    131.30414   0.03126289  0.032629073            2 
  351000    1.2134054   -7.2268504     132.0784  0.031357644  0.032613453            1 
  352000    1.2052743   -7.2687176    132.36956  0.031337489  0.032599484            3 
  353000    1.1840721   -7.2944632    132.98775  0.031394654  0.032585246            3 
  354000    1.1813157   -7.2481434    133.48829  0.031423798  0.032570773            1 
  355000    1.1726764   -7.2404685    134.23238  0.031509948  0.032557037            1 
  356000    1.2354014   -7.2863132    133.73445  0.031304882  0.032543159            2 
  357000    1.1756759   -7.2872627    134.02943  0.031286049  0.032529643            3 
  358000    1.2207718   -7.2104777    134.86357  0.031392824  0.032516496            2 
  359000    1.2478631   -7.2495759    134.93561    0.0313221  0.032503019            2 
  360000    1.1935286   -7.3063679    134.82355  0.031209155  0.032489498            1 
  361000    1.1976207   -7.2950837    135.56816  0.031294589  0.032475855            2 
  362000    1.1847085   -7.2677078    136.32552  0.031382487  0.032463024            1 
  363000    1.1605285   -7.2661744    135.80412  0.031176335  0.032450688            2 
  364000    1.2036169   -7.3030197     136.7154  0.031299314  0.032438108            2 
  365000    1.2032087   -7.3140589    136.97271  0.031272309  0.032425703            1 
  366000    1.1713468   -7.2156495    137.68638  0.031349358  0.032413408            1 
  367000     1.180643   -7.2344443    137.33028  0.031183079  0.032399712            2 
  368000    1.2177917     -7.24834    138.31936  0.031322318  0.032385708            2 
  369000    1.1707436   -7.3124732    137.71407  0.031100738  0.032371577            2 
  370000    1.1863877   -7.2626944    138.73379  0.031246349  0.032357498            3 
  371000    1.1685974   -7.3054239    138.70052  0.031154653  0.032343405            2 
  372000    1.2018773   -7.2691206    139.21999  0.031187274  0.032329954            1 
  373000    1.1968524   -7.2398017    139.76906  0.031226331  0.032315381            2 
  374000    1.1893389   -7.2558889    140.05894  0.031207428  0.032301597            1 
  375000    1.1674762   -7.2515861     140.4952  0.031221156  0.032289424            4 
  376000    1.1720388   -7.2711736    141.16385  0.031286315  0.032277374            1 
  377000    1.2071824   -7.3221774    140.73692  0.031108956  0.032265509            3 
  378000    1.2171948   -7.2992121    142.00864  0.031307018  0.032254205            3 
  379000    1.1923528    -7.281126    142.19038  0.031264376  0.032242388            3 
  380000    1.2260884   -7.3008398    142.24559  0.031194208  0.032231376            3 
  381000    1.1819292   -7.2671692    142.59753  0.031189311  0.032220024            2 
  382000    1.2004445   -7.2422354    143.34807  0.031271394  0.032209115            1 
  383000    1.2078057   -7.2980914    142.65813  0.031039628  0.032197142            1 
  384000    1.1807808   -7.2617406    143.69991  0.031184876  0.032185592            2 
  385000    1.1976696    -7.272408    144.48852  0.031274571   0.03217387            3 
  386000    1.1662115   -7.2905075    144.22161  0.031135925  0.032161814            3 
  387000    1.1979251   -7.2783365     144.6058  0.031138199  0.032150122            2 
  388000    1.1845715   -7.2632655    144.73757  0.031086248  0.032138185            2 
  389000    1.2128535   -7.2952945    144.97323   0.03105682  0.032125369            2 
  390000    1.1967144   -7.2670717    145.53058  0.031096278   0.03211271            2 
  391000    1.1745984   -7.2657162    146.24371  0.031168735  0.032100333            1 
  392000    1.1913687   -7.3144072     145.5859  0.030949384  0.032087788            2 
  393000    1.1826417   -7.3023315    146.23647  0.031008581  0.032074474            2 
  394000    1.1932998    -7.274804    146.37934  0.030960098  0.032060249            2 
  395000    1.1995604   -7.2412053    146.60323  0.030928952  0.032046384            2 
  396000    1.2055546   -7.3345323    146.94583  0.030922943  0.032032999            1 
  397000    1.1865082   -7.3228433    146.96825  0.030849758  0.032017589            1 
  398000     1.167486   -7.2863987    147.36224  0.030854739  0.032003522            2 
  399000     1.184447   -7.2594425    148.51458  0.031018082  0.031989517            2 
  400000    1.1818945   -7.2979865    147.88907  0.030810222  0.031976211            4 
  401000    1.1673636   -7.2767619    148.50174   0.03086071  0.031962438            2 
  402000    1.1924573   -7.2523371    149.02217  0.030891826  0.031948566            2 
  403000    1.1699847   -7.2869631    149.15103  0.030841818   0.03193515            2 
  404000    1.1705269   -7.3007277    149.28636  0.030793392  0.031921876            2 
  405000    1.1881962   -7.3253044    149.37397  0.030735385  0.031907752            3 
  406000    1.2167278   -7.2552654    150.08593  0.030805814  0.031893448            1 
  407000    1.1710677    -7.290763    150.38049  0.030790436  0.031879391            4 
  408000    1.1753573   -7.2599759    150.97409  0.030836211  0.031865359            3 
  409000    1.1726253   -7.2993798    151.24815  0.030816656  0.031851791            4 
  410000    1.2252219   -7.2982894    151.33775  0.030759705  0.031839051            1 
  411000    1.1841821   -7.2761424    151.29748  0.030676698  0.031825805            3 
  412000    1.2118007   -7.3051829    151.75681  0.030695147  0.031811993            3 
  413000    1.2066272   -7.2830588    152.57216  0.030785342  0.031797974            2 
  414000    1.1608325   -7.3344931    152.40851  0.030678042  0.031783866            1 
  415000     1.170637   -7.2471724     152.7978  0.030682288  0.031769922            1 
  416000    1.2069879   -7.2441552    153.14417  0.030677919  0.031756024            1 
  417000    1.1935771   -7.2550962     154.0919  0.030793744  0.031741988            2 
  418000    1.1928092   -7.3265148    153.29361  0.030560928  0.031727365            2 
  419000    1.1817372   -7.3082108    153.51457  0.030531936  0.031712324            1 
  420000    1.1903275   -7.2581025    154.54918  0.030664519  0.031697106            3 
  421000    1.1833212   -7.2502356    154.97617  0.030676201  0.031682181            1 
  422000    1.1897161   -7.3189823    155.00831  0.030609856  0.031667923            2 
  423000    1.1662671   -7.3122079    155.48442  0.030631288   0.03165404            1 
  424000    1.1904232   -7.3180261    155.64927  0.030591445  0.031640367            3 
  425000    1.1964441   -7.3501419    155.59836  0.030509482  0.031626124            3 
  426000    1.1786076    -7.272653    156.23636  0.030562668  0.031611206            1 
  427000    1.1969686   -7.3154932    156.01535   0.03044796  0.031595366            2 
  428000     1.179238   -7.3074322    156.80821  0.030531194   0.03158075            1 
  429000    1.1835036   -7.2907106     157.1284  0.030522221  0.031566327            1 
  430000    1.1866745   -7.2764992    157.50446  0.030524121  0.031551969            3 
  431000     1.190246   -7.3116824     157.6171  0.030475078  0.031537845            3 
  432000    1.1972179   -7.3263588    157.80451  0.030440684  0.031522784            2 
  433000    1.1854131   -7.3398164    158.01065  0.030410056  0.031507834            3 
  434000    1.1883055   -7.3171302     158.6133  0.030455702  0.031492964            2 
  435000    1.1784617   -7.3120552    159.47341  0.030550462  0.031478543            4 
  436000    1.1656254   -7.3285224    159.50978  0.030487344  0.031464996            2 
  437000     1.185397   -7.2668842    160.18984  0.030547262  0.031450884            1 
  438000    1.1919466   -7.3141525    160.44372  0.030525822  0.031437457            2 
  439000     1.191985   -7.3088253    160.53186  0.030473018  0.031423764            2 
  440000    1.1758389   -7.2964418    160.73911  0.030443013   0.03141032            2 
  441000    1.1808957   -7.2810474    161.25923  0.030472266  0.031396305            1 
  442000    1.1738446   -7.2980699    161.11871  0.030376831  0.031383094            2 
  443000    1.1705851   -7.2918259    161.91027  0.030457161  0.031369173            3 
  444000    1.1706542    -7.315289    162.06562  0.030417722  0.031355979            3 
  445000     1.191094   -7.3488371    162.10557  0.030356848  0.031342175            2 
  446000    1.1821318   -7.3488251    162.86833  0.030431302  0.031328866            1 
  447000    1.1555732   -7.3203178    163.04264   0.03039572  0.031315761            1 
  448000    1.1982121   -7.2961548     163.0878  0.030336272  0.031302911            1 
  449000    1.2063866   -7.3088946    164.05414  0.030448059  0.031290547            3 
  450000     1.178591   -7.3191457    164.49256  0.030461585  0.031278976            1 
  451000    1.1836304   -7.3442937    164.93308   0.03047544  0.031267616            2 
  452000     1.186705   -7.2893087    164.99311  0.030419084  0.031257024            2 
  453000    1.1651802   -7.2739498    166.23463  0.030580321  0.031246098            1 
  454000    1.1899287   -7.3360414    166.04781  0.030478674  0.031235234            3 
  455000    1.1496181    -7.337562    165.87346  0.030379754  0.031223536            3 
  456000     1.187908   -7.2441415    167.19349  0.030554365  0.031211753            1 
  457000    1.1852976   -7.3134828    167.04526  0.030460477  0.031201252            3 
  458000    1.1778706   -7.3320598    167.00726  0.030387057  0.031189608            2 
  459000    1.1634322   -7.3680921    166.88282   0.03029826  0.031177412            4 
  460000    1.1810181   -7.3106955    167.60399  0.030363041   0.03116538            1 
  461000    1.1616862   -7.2888078    167.86514  0.030344386  0.031153558            1 
  462000    1.1852728   -7.3108669    168.08244  0.030317901  0.031142193            3 
  463000    1.1841031   -7.3514737     168.4657  0.030321401  0.031130994            2 
  464000    1.1845347   -7.3147601     169.5072  0.030443103   0.03112005            1 
  465000    1.1607197   -7.3007185    169.69395  0.030411102  0.031109174            1 
  466000    1.1768206   -7.2972127    169.72445  0.030351296  0.031098063            3 
  467000    1.1560259   -7.3298829    170.06732  0.030347487  0.031086879            2 
  468000    1.1756145   -7.3771252    169.64135  0.030206793  0.031075277            1 
  469000    1.1597151    -7.276118    171.02406   0.03038807  0.031064164            3 
  470000    1.1676074   -7.2887143    171.47457  0.030403293  0.031053494            1 
  471000    1.1558836   -7.2796024    171.92685  0.030418763  0.031042651            2 
  472000    1.1960857   -7.3067469    171.89593  0.030348857  0.031032058            2 
  473000    1.1727199   -7.2996352    172.32988  0.030361149  0.031021269            3 
  474000    1.1904254   -7.3223157     172.6302  0.030349894   0.03101089            2 
  475000    1.1727963   -7.3103691    172.80214  0.030316165  0.031000752            4 
  476000    1.1586754   -7.3192536    173.41308  0.030359433  0.030990297            3 
  477000    1.2085038   -7.3564039     173.4045  0.030294287  0.030980284            3 
  478000    1.1913682   -7.3139852    174.60322  0.030439892  0.030971267            3 
  479000    1.1639174   -7.3038612    174.95692  0.030437878  0.030962647            1 
  480000    1.1552906   -7.3593449    174.30315  0.030260963  0.030953938            3 
  481000     1.165354   -7.3007356    175.36659  0.030382292  0.030944905            1 
  482000     1.157776   -7.3149963    175.75501  0.030386412  0.030935837            1 
  483000    1.1729933   -7.3001253    175.99926  0.030365641  0.030926512            1 
  484000    1.1859532   -7.3501953    175.82225  0.030272425  0.030917997            1 
  485000    1.1727992   -7.2966973     177.5224  0.030502131   0.03090987            1 
  486000    1.2021708   -7.3090036     177.4601  0.030428686  0.030901109            1 
  487000    1.1623266   -7.3318023    177.59377  0.030389077  0.030892765            2 
  488000    1.1499162   -7.3393967    177.67724  0.030341059  0.030883895            3 
  489000    1.1890832   -7.3446586    178.22301  0.030372019  0.030875198            3 
  490000    1.1431769    -7.303594    178.95346  0.030434262  0.030867231            1 
  491000    1.1975404   -7.3549515    178.48644  0.030293014  0.030858884            2 
  492000    1.1739451   -7.3757182    178.14533  0.030173666  0.030849915            3 
  493000    1.1599575    -7.321785    179.29965  0.030307581  0.030840037            1 
  494000    1.1769348   -7.3513232    179.13618  0.030218653  0.030830488            2 
  495000    1.1942761   -7.3915482    178.86649  0.030112204  0.030820736            2 
  496000    1.1933563    -7.328739    179.21794  0.030110541  0.030810474            2 
  497000    1.1704319   -7.3583031    180.24142  0.030221567  0.030800516            2 
  498000    1.1649566   -7.3366893    180.35488  0.030179867   0.03079089            1 
  499000    1.1851708    -7.299525    181.34818  0.030285267  0.030781735            2 
  500000    1.1739715   -7.3074739    181.44075  0.030240126  0.030772615            7 
  501000    1.1523371    -7.290507    181.66417  0.030216927  0.030763268            1 
  502000    1.1701833   -7.3066061    182.20599  0.030246678  0.030754615            1 
  503000     1.181729   -7.3125398    182.11601  0.030171638  0.030746203            1 
  504000    1.1608269   -7.2945765    182.75989  0.030218236    0.0307372            1 
  505000    1.1858098   -7.3290195    182.87464  0.030177334   0.03072824            1 
  506000    1.1696319   -7.3558413    182.88767   0.03011984  0.030718929            2 
  507000    1.1716119    -7.333709    183.49161    0.0301597  0.030709451            1 
  508000    1.1949204    -7.352875    183.47196  0.030097106  0.030700116            2 
  509000    1.1540893   -7.3698361    183.49133  0.030041147  0.030690272            2 
  510000    1.1680855   -7.2754244    185.37993  0.030290838  0.030680864            2 
  511000    1.1578568   -7.3221543    184.39028  0.030070169  0.030671304            5 
  512000    1.1594691   -7.3400843    185.07682  0.030123181  0.030661553            2 
  513000      1.14383   -7.3387311    185.15892  0.030077797  0.030652343            1 
  514000    1.1667293   -7.3433416    185.71511  0.030109454  0.030643324            2 
  515000    1.1573455   -7.2773119    187.21768  0.030294123  0.030634582            2 
  516000    1.1644988   -7.3520943     186.3943  0.030102438  0.030625894            2 
  517000    1.1725267   -7.3633063    186.52855  0.030065853  0.030616561            2 
  518000    1.1459888   -7.3080583    186.33245  0.029976263  0.030606866            2 
  519000    1.1945004   -7.3309326    187.32501  0.030077876   0.03059724            2 
  520000    1.1555518   -7.3266851    187.51952  0.030051206  0.030587774            2 
  521000     1.165711    -7.344588    188.30563  0.030119263  0.030578633            2 
  522000    1.1713408   -7.3247312    188.59966  0.030108503  0.030569618            2 
  523000    1.1600673   -7.3393174    189.12164  0.030134105  0.030560587            1 
  524000    1.1778537   -7.3351388    188.89737  0.030040931  0.030551665            3 
  525000     1.173292   -7.3445404    188.74412  0.029959385  0.030542283            2 
  526000    1.1729963   -7.3409983    189.88876  0.030083771  0.030533347            1 
  527000    1.1702042   -7.3509486    189.73997  0.030003158  0.030524349            3 
  528000    1.1692286    -7.360117    189.73326  0.029945275  0.030514658            3 
  529000    1.1592696   -7.3577598    190.03399  0.029936042  0.030505464            1 
  530000    1.1737107   -7.3453751    190.40824  0.029938402  0.030496085            1 
  531000    1.1346009   -7.3905645    190.64946  0.029919877  0.030486862            1 
  532000    1.1726408   -7.3500403    191.72428  0.030031999  0.030477676            1 
  533000    1.1770101   -7.3471307    191.52539  0.029944557  0.030468306            4 
  534000    1.1647334   -7.3591353    191.79671  0.029930822  0.030458825            2 
  535000     1.153146   -7.3913897    191.49487  0.029827862  0.030448951            2 
  536000    1.1695713    -7.350673     192.7659  0.029969823  0.030439171            1 
  537000    1.1666883   -7.3516286    192.73387  0.029909042  0.030429514            2 
  538000    1.1503048   -7.3330837    192.76956  0.029858978  0.030419928            2 
  539000    1.1562912   -7.3192968    193.62571  0.029935947  0.030409935            3 
  540000    1.1517121   -7.3017986    194.36409  0.029994458  0.030399962            4 
  541000    1.1692376   -7.2921344    194.55678  0.029968697  0.030390386            1 
  542000    1.1609579   -7.3106361    194.00346  0.029828331  0.030381127            1 
  543000    1.1623045   -7.3595668    194.37072  0.029829761  0.030371241            3 
  544000    1.1602826    -7.384423    193.97131  0.029713742  0.030361876            2 
  545000    1.1826179   -7.3196099    195.08661  0.029829756  0.030352307            3 
  546000    1.1505334   -7.3508481    195.31932  0.029810641  0.030343212            2 
  547000     1.166778   -7.2785658    196.64146  0.029957566   0.03033437            2 
  548000    1.1455107   -7.3309361    196.29978   0.02985094  0.030325688            3 
  549000    1.1437056   -7.3454334    197.02158   0.02990613   0.03031674            1 
  550000    1.1737258   -7.3708395    196.58611  0.029785774  0.030307395            4 
  551000    1.1695357   -7.3400802    197.46113  0.029864054  0.030297356            2 
  552000     1.169654   -7.3477581     197.5748  0.029827114  0.030287473            2 
  553000    1.1631412   -7.3414798    198.01171  0.029839016  0.030278112            2 
  554000    1.1649113   -7.3215189    198.24473  0.029820207  0.030269017            3 
  555000    1.1406907   -7.3191443    198.66955  0.029830263  0.030259514            1 
  556000    1.1716534   -7.3635307    198.07121  0.029686932  0.030250309            3 
  557000    1.1469186   -7.3799812      198.231   0.02965754  0.030240852            2 
  558000    1.1458679   -7.3130778    199.78948  0.029837139  0.030231705            3 
  559000    1.1531141   -7.3778052    200.10834  0.029831297  0.030222964            1 
  560000    1.1701233   -7.3087444    200.39002  0.029819944  0.030214301            2 
  561000    1.1719273   -7.3529696    200.57949  0.029794933  0.030205668            2 
  562000    1.1771577    -7.319748    201.34341  0.029855192  0.030197289            2 
  563000    1.1631722   -7.3290826    201.72487  0.029858625  0.030189062            1 
  564000    1.1572694   -7.3717289    201.39719  0.029757268  0.030180736            4 
  565000    1.1635199   -7.3438627    201.43857  0.029710704  0.030172385            4 
  566000    1.1739037   -7.3765923    202.36992  0.029795336  0.030163887            1 
  567000    1.1692461   -7.3705681    201.99575  0.029687794  0.030155445            3 
  568000    1.1591092   -7.3470767    202.74388  0.029745287  0.030146265            1 
  569000     1.161901   -7.3375154    202.90145  0.029716088  0.030138057            3 
  570000    1.1742247   -7.3967595    203.09772  0.029692649  0.030129049            2 
  571000    1.1631673   -7.3547362    203.93709  0.029763148  0.030120354            2 
  572000    1.1540471   -7.3805715    203.26938  0.029613838  0.030111335            1 
  573000     1.160558   -7.3892323    204.13082  0.029687437  0.030102346            1 
  574000    1.1766062   -7.3535889    204.64365  0.029710169    0.0300938            4 
  575000    1.1569583   -7.3339299    205.06613  0.029719728  0.030085854            1 
  576000    1.1666904   -7.3494973     204.7558  0.029623234  0.030077431            3 
  577000    1.1430903   -7.3282349    205.63334  0.029698634  0.030069307            2 
  578000    1.1767341   -7.3227802     205.4512  0.029620991  0.030061192            2 
  579000    1.1372813   -7.3556746    206.48326  0.029718374  0.030052867            3 
  580000    1.1669876   -7.3604803     205.8744  0.029579655  0.030044522            2 
  581000    1.1616322   -7.3529059    206.74865  0.029654138  0.030035667            2 
  582000    1.1601499   -7.3288582    207.10849  0.029654709  0.030026801            2 
  583000    1.1526951   -7.3814054    206.87525  0.029570505  0.030018242            1 
  584000    1.1218307   -7.3543703    208.20542  0.029709677  0.030009732            1 
  585000    1.1426138   -7.3593557    208.38978  0.029685154  0.030001498            1 
  586000    1.1648865   -7.3630236    208.63021  0.029668687  0.029993176            4 
  587000    1.1578283   -7.3639233    208.10754  0.029543943  0.029984375            3 
  588000    1.1664893    -7.391378    207.99011  0.029477056  0.029975484            1 
  589000    1.1749958   -7.3244054     208.6905  0.029526103  0.029966329            2 
  590000    1.1616293   -7.3871655    208.68588  0.029475406  0.029956745            3 
  591000    1.1398109   -7.3836799     209.2243  0.029501452  0.029947163            2 
  592000    1.1554837   -7.3367844    209.97315  0.029557032  0.029938021            1 
  593000    1.1508784   -7.3384022    209.97284  0.029507144  0.029928828            2 
  594000    1.1697304   -7.3717025    209.41147  0.029378714  0.029918776            3 
  595000    1.1692817   -7.3790256    209.49964  0.029341686  0.029908715            2 
  596000    1.1813452   -7.3562269    210.00851  0.029363605  0.029898699            2 
  597000    1.1584213   -7.3314877     210.3628  0.029363876  0.029888588            2 
  598000    1.1439903   -7.3384709    210.26597  0.029301277  0.029878346            1 
  599000    1.1602884   -7.3605564    210.53109  0.029289245  0.029867953            2 
  600000    1.1585977   -7.3888384    210.84695  0.029284299  0.029857331            4 
  601000    1.1390461   -7.3806472    210.86012  0.029237398  0.029846544            1 
  602000    1.1394956   -7.3796163    210.77804  0.029177469  0.029835397            1 
  603000    1.1458791   -7.3748657    211.63588  0.029247634  0.029824841            3 
  604000    1.1852134   -7.3615444    211.26041  0.029147407  0.029814317            3 
  605000    1.1568621    -7.355459    212.16767  0.029224197   0.02980361            1 
  606000    1.1545819   -7.3998023    211.65216  0.029105082  0.029792842            4 
  607000    1.1340331   -7.3501969    212.34511  0.029152267  0.029782343            4 
  608000    1.1611638   -7.3191091    213.17453     0.029218  0.029772014            2 
  609000     1.163878   -7.3683745    213.73532   0.02924676  0.029761587            3 
  610000    1.1532806   -7.3556926    213.61798  0.029182784  0.029750917            1 
  611000    1.1209818   -7.3635945    214.58341  0.029266696  0.029740928            2 
  612000    1.1771791    -7.393891    215.22726  0.029306543  0.029731091            3 
  613000    1.1429211   -7.3712463    215.21097  0.029256521  0.029721644            3 
  614000    1.1411841   -7.3337712    216.15757  0.029337347  0.029712536            2 
  615000    1.1496087   -7.3142617    217.80435  0.029512785  0.029704077            1 
  616000    1.1662186   -7.3314287    216.87585  0.029339265  0.029695812            2 
  617000    1.1546216   -7.4101055    216.43269  0.029231859  0.029687359            2 
  618000    1.1792503   -7.3848523    217.23036   0.02929212  0.029678498            2 
  619000    1.1788475   -7.3762015    217.45633  0.029275219  0.029669735            2 
  620000    1.1363846   -7.3676178    217.92042  0.029290378   0.02966087            3 
  621000    1.1468274   -7.3414564    218.46456  0.029316232  0.029652366            1 
  622000    1.1513305   -7.4210756    217.68203  0.029164259  0.029643663            1 
  623000    1.1665574   -7.3649823    218.42351  0.029216628  0.029634705            3 
  624000    1.1497319   -7.3433484    219.98992  0.029378995  0.029626342            2 
  625000    1.1786127   -7.3809671    219.78955  0.029305273  0.029617982            2 
  626000    1.1622197   -7.3696909    220.04704  0.029292736  0.029609854            1 
  627000    1.1279966   -7.3935967    220.00982  0.029241071  0.029601411            2 
  628000     1.124464   -7.3432235    220.53316  0.029263955  0.029593081            2 
  629000    1.1500613   -7.3895916    221.07912  0.029289762  0.029585004            3 
  630000    1.1489942   -7.3534845    220.94245  0.029225192  0.029576606            1 
  631000    1.1523633   -7.4286512     220.3777  0.029104292  0.029567851            1 
  632000    1.1666656   -7.4260345    220.80555  0.029114656  0.029558816       -1e+20 
  633000    1.1532663   -7.3251688     221.9526  0.029219669  0.029550014            2 
  634000    1.1490327   -7.3774596    222.08167  0.029190545   0.02954128            3 
  635000    1.1364145   -7.3919696    221.75348  0.029101506  0.029532459            2 
  636000    1.1846016   -7.3902315    222.00918  0.029089253  0.029523535            3 
  637000    1.1529012   -7.3922931    222.40027   0.02909475  0.029514196       -1e+20 
  638000    1.1501881   -7.3733799    222.71096  0.029089729  0.029505323            1 
  639000    1.1596794   -7.3215105    223.93331  0.029203614  0.029496431            5 
  640000     1.155411   -7.3835122     222.6534  0.028991327  0.029487538            2 
  641000    1.1476649   -7.3569702    223.74604  0.029088148  0.029478433            1 
  642000    1.1379861   -7.3936594    224.03856  0.029080811  0.029469858            2 
  643000     1.150139   -7.4326191    224.03177  0.029034704  0.029460919            1 
  644000    1.1559386   -7.3470236    224.97719  0.029111956  0.029452395            1 
  645000    1.1556653     -7.40639    225.77521  0.029169923  0.029443993            3 
  646000     1.151612   -7.3785367    225.66962  0.029111148   0.02943538            2 
  647000    1.1263815   -7.3925381    226.55427  0.029180097     0.029427            2 
  648000    1.1403128    -7.349141    225.91007  0.029052221  0.029418721            1 
  649000    1.1399052   -7.3924499    226.60511  0.029096701  0.029409816            2 
  650000    1.1341371   -7.3708697    226.43043  0.029029543    0.0294009            1 
  651000    1.1329377   -7.3786268    226.31343  0.028969973   0.02939208            2 
  652000    1.1406512   -7.3572384    227.30406  0.029052155  0.029383124            2 
  653000    1.1602301   -7.4074498     227.0618  0.028976748  0.029373892            1 
  654000    1.1296866   -7.3787438    227.80388  0.029026998  0.029365173            2 
  655000    1.1518685   -7.3590894    227.72545  0.028972704  0.029356173            2 
  656000     1.147869   -7.4187501    227.42235  0.028890035  0.029346754            1 
  657000    1.1709948   -7.4021102     227.8039  0.028894457  0.029336809            2 
  658000    1.1453633   -7.4179662    227.56236  0.028819954  0.029326691            1 
  659000    1.1476559   -7.3782753    227.83226  0.028810352  0.029316659            2 
  660000    1.1668442   -7.4082317    227.86805  0.028771218  0.029306573            2 
  661000    1.1367013   -7.3672644    228.25699  0.028776726   0.02929611            2 
  662000    1.1631812    -7.411549    228.92734   0.02881764  0.029285312            1 
  663000    1.1219851    -7.391967    228.45936  0.028715354  0.029274703            1 
  664000    1.0984046   -7.4147313    228.47492  0.028674061  0.029263761            2 
  665000     1.125021    -7.396844    229.26103  0.028729452  0.029253026            1 
  666000    1.1284177   -7.3484194    229.77653  0.028750817  0.029242622            2 
  667000    1.1587799   -7.3996557    229.90211  0.028723402  0.029232003            2 
  668000    1.1509942   -7.3769303    229.68838   0.02865374  0.029221256            2 
  669000     1.178765   -7.4310293    229.68628  0.028610648  0.029210781            1 
  670000    1.1595307   -7.3742419     231.2464   0.02876199  0.029200396            2 
  671000    1.1385301    -7.351664    230.65261  0.028645381  0.029190271            1 
  672000    1.1277954   -7.3971464    230.88972  0.028632158  0.029179815            3 
  673000    1.1225857   -7.3839192    231.36507  0.028648473  0.029169458            2 
  674000    1.1368269   -7.4123005    231.50378  0.028623118  0.029159285            4 
  675000    1.1301946   -7.3893372    232.17288  0.028663318  0.029148702            4 
  676000    1.1381751   -7.4069325    232.15877  0.028619178  0.029138057            1 
  677000     1.143658   -7.3793335    232.36823  0.028602687  0.029126982            2 
  678000    1.1435069   -7.4084153    232.15915  0.028534802   0.02911608            2 
  679000    1.1383285    -7.401764    233.34822  0.028638712  0.029105409            4 
  680000    1.1623013   -7.4078404    232.89194  0.028540678  0.029095028            1 
  681000     1.174473   -7.3869955    234.01833  0.028636604  0.029084895            2 
  682000    1.1085471   -7.4071164     233.0258  0.028473339   0.02907451            3 
  683000    1.1506546   -7.3908616    234.32147  0.028589735  0.029064253            3 
  684000    1.1236535   -7.4315806    234.33437  0.028549509  0.029053861            2 
  685000    1.1317049   -7.4004104    234.54342  0.028533263  0.029043336            3 
  686000    1.1190967   -7.3816773     235.2368  0.028575899  0.029033397            5 
  687000    1.1447566   -7.4202791    235.71303  0.028592071   0.02902352            2 
  688000    1.1504631   -7.4240214    235.72974  0.028552537    0.0290134            3 
  689000    1.1556418   -7.4394603    235.33685  0.028463577  0.029003102            4 
  690000    1.1323766   -7.3894606    236.78404  0.028597107  0.028992899            1 
  691000    1.1692959   -7.4290165    236.20089  0.028485394   0.02898277            1 
  692000    1.1334122   -7.3654129    237.12788  0.028555862  0.028972303            2 
  693000    1.1384193   -7.4131294    237.36394  0.028543042  0.028961961            4 
  694000    1.1329686   -7.3900195    236.09701  0.028349785  0.028951677            6 
  695000    1.1002659   -7.3981406      237.288  0.028451798  0.028940955            1 
  696000    1.1550751   -7.4891631    236.54147  0.028321536   0.02893028            2 
  697000    1.1190027   -7.4310176    238.45387  0.028509549    0.0289197            3 
  698000    1.1307335    -7.355482    238.73288  0.028502016  0.028909638            1 
  699000    1.1311015   -7.4071489      239.183  0.028514902  0.028900272            1 
  700000    1.1501912   -7.4185243    238.71626  0.028418602  0.028890298            2 
  701000    1.1300093   -7.4494633    238.51886  0.028354595   0.02887995            1 
  702000    1.1446906   -7.3989032    239.27616  0.028404103  0.028869624            3 
  703000    1.1476141   -7.4388177    240.17542  0.028470297   0.02885932            2 
  704000    1.1452149   -7.3964766    239.97162  0.028405731  0.028849152            3 
  705000    1.1237117   -7.4119963    239.94945  0.028362819  0.028839358            2 
  706000      1.11511   -7.4158403    240.39865  0.028375667  0.028829598            1 
  707000    1.1396947   -7.4244258    241.07256  0.028414965  0.028819928            2 
  708000    1.1458425   -7.3832224    241.36443  0.028409184  0.028810306            2 
  709000    1.1657062   -7.4288632    242.07793  0.028452977   0.02880026            5 
  710000    1.1763716   -7.3993393    241.52753  0.028348302  0.028789935            2 
  711000    1.1172351   -7.4153285    242.23554  0.028391413  0.028779858            2 
  712000    1.1318898   -7.4439307    241.57472  0.028274194   0.02876956            1 
  713000    1.1265063   -7.4240998    241.48611  0.028224183  0.028758935            2 
  714000    1.1559352   -7.4608638    242.35307  0.028285839  0.028748618            2 
  715000    1.1218626   -7.3850812    242.80705   0.02829919  0.028738668            2 
  716000    1.1185556   -7.4260164    243.08419  0.028291922  0.028728709            2 
  717000    1.1348882    -7.438892    243.12409    0.0282571  0.028718643            2 
  718000    1.1322002   -7.4020368    244.05737  0.028326064  0.028708624            2 
  719000    1.1526714   -7.4289193    243.82874  0.028260169  0.028698632            3 
  720000     1.138677   -7.4545765    243.93431  0.028233137  0.028688672            1 
  721000    1.1158699   -7.4367009    244.23654  0.028228912  0.028678621            2 
  722000    1.1564885   -7.4305071    245.55118  0.028341549  0.028668527            1 
  723000    1.1569519   -7.4192023    245.69089  0.028318452  0.028659018            2 
  724000    1.1599541   -7.4041611    245.96123  0.028310455  0.028649531            1 
  725000    1.1311503   -7.4145808    246.52345  0.028336028  0.028640414            1 
  726000    1.1266308   -7.4308421    246.08189  0.028246315  0.028631356            2 
  727000    1.1267012   -7.4292671    247.19819  0.028335419  0.028622235            2 
  728000    1.1282153   -7.4091939     247.8546  0.028371635  0.028613473            3 
  729000    1.1529126   -7.4391914    247.96471  0.028345303  0.028604525            2 
  730000    1.1144027   -7.4532594    247.90237  0.028299357  0.028595422            1 
  731000    1.1472528   -7.4310259    248.30714  0.028306788  0.028586489            2 
  732000     1.119685   -7.4080399    249.73944  0.028431174  0.028577826            2 
  733000    1.1177895   -7.4101655    249.07957  0.028317368  0.028569275            2 
  734000    1.1292537   -7.4429773    249.32861  0.028307063  0.028560486            2 
  735000    1.1130382   -7.4281269    248.95182   0.02822583  0.028551563            2 
  736000    1.1213227   -7.4662719     249.4781  0.028247068   0.02854262            1 
  737000    1.1645491    -7.415529    250.37285  0.028309911  0.028533612            2 
  738000      1.13561   -7.4306836     249.6443  0.028189284  0.028524708            2 
  739000    1.1107317   -7.4231397    249.86228   0.02817572  0.028515581            2 
  740000    1.1578114   -7.4229949    250.60089  0.028220821  0.028506106            1 
  741000    1.1295457   -7.3925118    251.76292  0.028313418  0.028497226            3 
  742000    1.1278843   -7.4677012    250.00517  0.028077849  0.028488047            2 
  743000    1.1502343   -7.4496914    251.12125  0.028165237  0.028478571            4 
  744000    1.1431695   -7.4316347    251.39548  0.028158096    0.0284692            2 
  745000    1.1048891   -7.3844784    251.75424   0.02816043  0.028460023            2 
  746000    1.1211199   -7.3896196    252.32974  0.028186969   0.02845094            2 
  747000    1.1595488   -7.4027886    251.87917   0.02809897  0.028441532            2 
  748000    1.1243426   -7.3610823    252.51245  0.028131957  0.028432451            2 
  749000    1.1294511   -7.3806601    252.23783  0.028063845  0.028423189            1 
  750000    1.1402218   -7.4118427    253.31325  0.028145916  0.028414122            7 
  751000    1.1108254   -7.4112851    253.25928   0.02810245  0.028405071            6 
  752000    1.1221017   -7.4631785    252.46035  0.027976546  0.028395722            1 
  753000    1.1768521   -7.3828273    254.08381  0.028119058  0.028386462            4 
  754000    1.1242808   -7.4378807    253.35352  0.028001052   0.02837689            2 
  755000    1.1104349   -7.4155267    253.88087  0.028022171  0.028367213            1 
  756000    1.1216254   -7.4050026    253.95191  0.027992936  0.028357587            2 
  757000    1.1284753   -7.4794015     254.4628  0.028012197  0.028347969            3 
  758000    1.1136149   -7.4260756    254.76864  0.028008866  0.028338553            2 
  759000    1.1479172   -7.4515026    255.25984  0.028025893  0.028329402            2 
  760000    1.1362989   -7.4272096    256.66605  0.028143208  0.028320539            3 
  761000    1.1334652   -7.4306351    256.02628  0.028036168  0.028311433            3 
  762000    1.1480185   -7.4569276    255.62768  0.027955783  0.028302342            2 
  763000    1.1597988   -7.4209317    257.33617  0.028105742  0.028293624            1 
  764000    1.1430727   -7.4132917    256.35521  0.027961956  0.028285072            1 
  765000    1.1047016   -7.4242208    258.27481  0.028134511  0.028276961            1 
  766000    1.1202167   -7.4215577    258.88466  0.028164127  0.028269009            4 
  767000    1.1326395   -7.4656173     258.2042  0.028053476  0.028260861            1 
  768000    1.1262657   -7.3884894    258.70089  0.028070843  0.028252331            2 
  769000    1.0993358   -7.4236459    258.38456  0.028000061  0.028243832            2 
  770000    1.1439893   -7.4299868    258.43534  0.027969193  0.028235488            2 
  771000    1.1182562   -7.4254094    259.00053  0.027994004  0.028227072            2 
  772000      1.14331   -7.4212898    259.88789  0.028053529  0.028218305            1 
  773000    1.1165389   -7.4682464    258.77245  0.027896986  0.028209529            1 
  774000    1.1206835   -7.4476614    259.67954  0.027958607  0.028201125            2 
  775000    1.1221524   -7.4151196    260.17678  0.027975997  0.028192631            1 
  776000    1.1441229   -7.4528509    259.64599  0.027882945  0.028184082            2 
  777000    1.1014474   -7.4335294    260.88384  0.027979819   0.02817524            1 
  778000    1.1353616   -7.4599719    259.98619  0.027847707  0.028166359            1 
  779000    1.1450972   -7.4762158    259.84578  0.027796939  0.028157272            3 
  780000    1.1183681    -7.463387    260.97035  0.027881448  0.028148306            1 
  781000    1.1102409   -7.4304412    261.75496  0.027929467  0.028139524            3 
  782000    1.0975641   -7.4095138    262.29164  0.027950942  0.028130949            1 
  783000    1.1155666   -7.4791338    261.54546  0.027835831  0.028122567            1 
  784000    1.1506253   -7.4500685    261.75849  0.027822969  0.028113879            1 
  785000    1.1164951   -7.4421004     262.5503  0.027871582  0.028105235            3 
  786000    1.1502863    -7.432831    263.43087  0.027929482  0.028096881            1 
  787000    1.1249932   -7.4422954     262.9883   0.02784713  0.028088409            4 
  788000    1.1185653   -7.4697438    262.96398   0.02780922  0.028079493            4 
  789000    1.1219732   -7.4856684    263.54004  0.027834816  0.028070787            2 
  790000      1.14465   -7.4766991    263.70154  0.027816618  0.028062441            2 
  791000     1.107299   -7.4350666    264.97516   0.02791563  0.028053902            3 
  792000    1.1200316   -7.4325873    264.56882  0.027837628  0.028045559            2 
  793000    1.1160795   -7.4490726    265.89614  0.027942007  0.028037128            2 
  794000    1.1141895   -7.4368659    265.70398  0.027886648  0.028029178            2 
  795000     1.127773   -7.4706422    266.51583   0.02793667  0.028020958            2 
  796000    1.1051166   -7.4748708    265.25058  0.027769115  0.028012709            1 
  797000     1.117977   -7.4482133     266.5987   0.02787523  0.028004334            4 
  798000    1.1252219   -7.4907967    266.09451  0.027787647  0.027996405            2 
  799000    1.1317781   -7.4495982    267.10778   0.02785855   0.02798832            1 
  800000    1.1215091    -7.409173    268.15267   0.02793257  0.027980408            4 
  801000    1.1427766   -7.4153267    268.42348  0.027925871  0.027972478            1 
  802000    1.1062156   -7.4712461    268.94198  0.027944927  0.027964776            1 
  803000    1.1278623    -7.390637    269.67309  0.027985999  0.027957298            5 
  804000    1.1260531    -7.486163    267.61084  0.027737442  0.027949627            4 
  805000    1.1331292   -7.4481923    268.91491  0.027837982  0.027941989            1 
  806000    1.0979404   -7.4954186    269.01404  0.027813693  0.027934103            2 
  807000    1.1321949   -7.4381972    269.52052  0.027831529  0.027926624            5 
  808000    1.1505136   -7.4518247    269.90947  0.027837198  0.027919266            2 
[...]
 4800000   0.49379211   -9.0666025    518.18008 0.0089961819 0.0072343943           10 
 4801000   0.48026271   -9.0680442    518.61707 0.0090018933 0.0072318561            7 
 4802000   0.47681916   -9.0688336    517.98291 0.0089890135 0.0072293195           13 
 4803000   0.48721448   -9.0512061    517.54849 0.0089796047 0.0072267835            9 
 4804000   0.49032918   -9.0544369    518.40947 0.0089926704 0.0072242506            9 
 4805000   0.49660317   -9.0602432     517.8569 0.0089812157 0.0072217165            9 
 4806000   0.49013667   -9.0507999    517.85931 0.0089793888 0.0072191857            8 
 4807000   0.48035369   -9.0639158    518.48943 0.0089884445 0.0072166559            8 
 4808000   0.48460635   -9.0614622    517.97772 0.0089777058 0.0072141267            6 
 4809000   0.47820377   -9.0472693    518.18507 0.0089794322  0.007211599            8 
 4810000   0.48011802    -9.065657    518.77059 0.0089877095 0.0072090747            8 
 4811000   0.48369916    -9.050249    517.84258 0.0089697669  0.007206552            9 
 4812000   0.49252607   -9.0601373    518.22277 0.0089744869 0.0072040291           12 
 4813000   0.47637115   -9.0621611    518.43605  0.008976315 0.0072015076           11 
 4814000    0.4771242   -9.0561167    518.22002 0.0089707108 0.0071989871            7 
 4815000   0.47785052   -9.0412432    518.13282 0.0089673386 0.0071964665            5 
 4816000   0.48570179    -9.048669    517.11705 0.0089479003 0.0071939462            7 
 4817000   0.47364495   -9.0520392      517.739 0.0089568022 0.0071914266            5 
 4818000   0.47324063   -9.0621651    518.44372 0.0089671323 0.0071889099            8 
 4819000   0.47388751   -9.0497742    517.90546 0.0089559636 0.0071863927           11 
 4820000   0.47729456   -9.0696194    518.00972 0.0089559081  0.007183877            9 
 4821000   0.47707088   -9.0503727    518.06148  0.008954945 0.0071813625            5 
 4822000   0.47140347   -9.0471493    517.85946 0.0089495966 0.0071788501            5 
 4823000    0.4891331    -9.044227    518.28567 0.0089551052 0.0071763396           13 
 4824000   0.48143806   -9.0579728    518.14927 0.0089508927  0.007173831           10 
 4825000   0.47396183   -9.0653464    517.44261 0.0089368326 0.0071713221            7 
 4826000   0.47695628   -9.0843821     516.8784 0.0089252383 0.0071688133            9 
 4827000   0.47753707   -9.0642656    518.27931 0.0089475745  0.007166307           10 
 4828000   0.47491169   -9.0570305    519.89872  0.008973673 0.0071638028           10 
 4829000   0.48518651   -9.0640096    517.86039 0.0089366396 0.0071612969            7 
 4830000   0.47937386   -9.0536246    518.24819 0.0089414802 0.0071587954            9 
 4831000   0.48337212    -9.057608    518.24511 0.0089395762 0.0071562931            9 
 4832000   0.47837848   -9.0667104     517.5944 0.0089265039 0.0071537899            7 
 4833000   0.47398441   -9.0750069    518.19594  0.008935029 0.0071512906            5 
 4834000   0.47704452   -9.0549189    518.45199 0.0089375946 0.0071487899           13 
 4835000   0.48441354   -9.0652922     517.0241 0.0089111358 0.0071462914            8 
 4836000   0.47443314     -9.05808    517.48556  0.008917245 0.0071437945            8 
 4837000   0.47689296   -9.0664219    517.02042 0.0089073878 0.0071412957            8 
 4838000   0.46939951   -9.0651524    518.11758  0.008924445 0.0071388019           15 
 4839000   0.48226913   -9.0700834    518.71583 0.0089329033 0.0071363074           15 
 4840000   0.47623843   -9.0708668    517.63478 0.0089124446 0.0071338125           13 
 4841000   0.47519169    -9.071438    517.47325  0.008907823   0.00713132            7 
 4842000   0.48078284   -9.0752155    518.05322 0.0089159648 0.0071288297            7 
 4843000   0.48026612   -9.0695438    517.97648 0.0089128034 0.0071263404            8 
 4844000   0.47981892   -9.0654838    517.00504 0.0088942513 0.0071238537            8 
 4845000   0.48672573   -9.0578745     517.4696 0.0089004059 0.0071213684            6 
 4846000   0.47923223   -9.0615055    518.25033  0.008911995 0.0071188828           12 
 4847000   0.47607144   -9.0754017    518.29438 0.0089109137 0.0071163966           10 
 4848000   0.47475695   -9.0658446    518.11273 0.0089059531 0.0071139119            7 
 4849000   0.47808965   -9.0696772     518.1969  0.008905563  0.007111429            9 
 4850000   0.47436857   -9.0878725    517.78344 0.0088966226 0.0071089487            9 
 4851000   0.46631346   -9.0746985    517.95428 0.0088977234 0.0071064709            8 
 4852000   0.48038859   -9.0661671    517.31168  0.008884853 0.0071039901            9 
 4853000   0.48457393   -9.0764437    517.62991 0.0088884867 0.0071015138            5 
 4854000   0.46935528   -9.0681095     516.8976 0.0088740831 0.0070990368            8 
 4855000   0.47292229   -9.0707554    517.09861 0.0088757056 0.0070965605            8 
 4856000   0.47504909   -9.0640885    518.25713 0.0088937591 0.0070940858           11 
 4857000   0.46557732    -9.064814    518.15968 0.0088902559 0.0070916129           12 
 4858000   0.48072766   -9.0674893    517.78095 0.0088819292 0.0070891424           17 
 4859000   0.48147157   -9.0723068    517.69611 0.0088786464 0.0070866704            8 
 4860000   0.46894322    -9.064369    517.16716 0.0088677496 0.0070842006            6 
 4861000   0.47390928   -9.0761499    518.12732 0.0088823856 0.0070817321            6 
 4862000   0.48161563   -9.0784168     517.2541 0.0088655919 0.0070792636           13 
 4863000   0.48281944   -9.0658169    517.15819 0.0088621253 0.0070767962           10 
 4864000   0.48113971   -9.0691861    518.11486 0.0088766937 0.0070743308            8 
 4865000    0.4912107   -9.0648221    517.30907 0.0088610667 0.0070718675           10 
 4866000   0.47625961   -9.0571126    517.82802  0.008868133 0.0070694042           13 
 4867000   0.47442979   -9.0666384    517.79841 0.0088658038 0.0070669415           11 
 4868000   0.47229482   -9.0811453    517.70831 0.0088624403 0.0070644795           16 
 4869000   0.47278174   -9.0792293     517.8515 0.0088630707 0.0070620193           16 
 4870000   0.45979966   -9.0713202    516.34198 0.0088354206 0.0070595594           18 
 4871000   0.47702638   -9.0859154    517.61788 0.0088554348 0.0070571015           11 
 4872000      0.47066   -9.0741873    517.83775 0.0088573781 0.0070546465            9 
 4873000   0.46998852   -9.0829868    517.94069 0.0088573208 0.0070521909           13 
 4874000    0.4669523   -9.0755027    518.20431 0.0088600108 0.0070497356            9 
 4875000   0.48011472   -9.0774054    517.71881 0.0088498942 0.0070472819            5 
 4876000   0.47104379   -9.0739456    517.63791 0.0088466965  0.007044829           13 
 4877000   0.48242636    -9.077671    517.37609 0.0088404089 0.0070423785            7 
 4878000   0.46233719   -9.0953633    517.69892 0.0088441116   0.00703993           20 
 4879000   0.47383167   -9.0762324    517.17101 0.0088332822 0.0070374784           10 
 4880000   0.47161963   -9.0783831    517.32885 0.0088341675 0.0070350317           10 
 4881000   0.48103919   -9.0730254    518.24505     0.008848  0.007032588            8 
 4882000    0.4660415   -9.0688897    517.57009 0.0088346663 0.0070301423           11 
 4883000   0.47180682    -9.074714    516.99043 0.0088229646    0.0070277            6 
 4884000    0.4787102   -9.0826081    517.50325  0.008829908 0.0070252572            8 
 4885000   0.46523932   -9.0678931    517.01118 0.0088197062 0.0070228166           11 
 4886000   0.47145191   -9.0694703    517.46919 0.0088257128 0.0070203778           13 
 4887000   0.46276363   -9.0968911    517.09327 0.0088174966 0.0070179378           11 
 4888000   0.47674655   -9.0728942    517.07416 0.0088153669 0.0070154968            7 
 4889000   0.47093802   -9.0988907    517.62383 0.0088229329 0.0070130598            8 
 4890000   0.46396696   -9.0692473    516.73396 0.0088059638 0.0070106206            5 
 4891000   0.46805565   -9.0799838     517.0821 0.0088100952 0.0070081854            8 
 4892000    0.4663917   -9.0713886    517.34653 0.0088127985 0.0070057503            8 
 4893000   0.46674061   -9.0772874    517.55846 0.0088146069 0.0070033161            7 
 4894000   0.47655831    -9.080966    516.97476 0.0088028668 0.0070008819            8 
 4895000   0.47322225   -9.0681318    517.65157 0.0088125906 0.0069984498           11 
 4896000    0.4728467    -9.082478    516.77734 0.0087959106 0.0069960209           10 
 4897000   0.46511168   -9.0777389    517.61106  0.008808302 0.0069935913            9 
 4898000   0.47382501   -9.0793705    517.60959 0.0088064786 0.0069911617            8 
 4899000   0.46071411   -9.0782108    517.38849 0.0088009201 0.0069887344           10 
 4900000   0.46977414   -9.0736691     517.1617 0.0087952671 0.0069863079           13 
 4901000   0.47226162    -9.071819    516.68672 0.0087853962 0.0069838843           12 
 4902000   0.46358526   -9.0775386     517.2422 0.0087930471 0.0069814587           10 
 4903000   0.45152809   -9.0818766    517.36415 0.0087933263 0.0069790371            7 
 4904000   0.45376204   -9.0918648    518.14032 0.0088047227 0.0069766134            7 
 4905000   0.45881295   -9.0789466    516.87427 0.0087814181 0.0069741922           16 
 4906000   0.46767172   -9.0741508    517.42453 0.0087889749 0.0069717738            8 
 4907000   0.46539509   -9.0925783    517.00407 0.0087800433 0.0069693546           10 
 4908000    0.4659646   -9.0722711     516.7888 0.0087745994  0.006966936           10 
 4909000    0.4727963    -9.071002    517.63276 0.0087871387 0.0069645194            9 
 4910000   0.47081652   -9.0818286    516.60948 0.0087679817 0.0069621043           11 
 4911000   0.47331704   -9.0747749    517.01507 0.0087730787 0.0069596916            7 
 4912000   0.45899587   -9.0853397    517.41026 0.0087779971 0.0069572777            9 
 4913000     0.465146   -9.0832326    516.90477 0.0087676364 0.0069548651            9 
 4914000   0.47104926   -9.0843855    517.53754  0.008776583 0.0069524538           17 
 4915000   0.46312331   -9.0645498    517.05301 0.0087665821 0.0069500423           14 
 4916000   0.46762901   -9.1028261    517.13589 0.0087662037 0.0069476342           12 
 4917000   0.46185156   -9.0785586     517.2337 0.0087660786 0.0069452274           10 
 4918000   0.46917118   -9.0727298    518.99608 0.0087941589  0.006942821            7 
 4919000   0.46366656   -9.0848215    517.29023 0.0087634721 0.0069404173            8 
 4920000   0.45775314   -9.0792673    517.39577 0.0087634786 0.0069380147            9 
 4921000   0.48400277   -9.0877231    517.15587 0.0087576351  0.006935611           11 
 4922000   0.45999459   -9.0847926    516.93444 0.0087521068 0.0069332086           13 
 4923000    0.4652225   -9.0953888    517.65274  0.008762488  0.006930806            8 
 4924000   0.45627733   -9.0895055    517.06611 0.0087507804 0.0069284053            9 
 4925000   0.46681424    -9.065145    518.05025 0.0087656556 0.0069260078           10 
 4926000    0.4625074   -9.0914921    517.19124 0.0087493444 0.0069236105            9 
 4927000   0.46779533   -9.0779657    517.13943 0.0087466922 0.0069212139            5 
 4928000   0.47256913   -9.0867984    517.53225   0.00875156 0.0069188181            9 
 4929000   0.47173105   -9.0984732    516.88888 0.0087389072 0.0069164247            8 
 4930000   0.47343788   -9.0848294    517.62497 0.0087495769 0.0069140328            9 
 4931000   0.46074102   -9.0992893    517.12095 0.0087392846  0.006911639            5 
 4932000   0.47340612   -9.0827105    516.74764 0.0087312051 0.0069092471            9 
 4933000   0.46982781   -9.0875702    517.52861  0.008742628 0.0069068571            7 
 4934000   0.46521108   -9.0812404    517.22227 0.0087356821 0.0069044663            9 
 4935000   0.46280958   -9.0815246    518.21136  0.008750614 0.0069020797           15 
 4936000    0.4603664   -9.0866948    517.19345  0.008731656 0.0068996941           11 
 4937000   0.46675866   -9.0824511    517.04675 0.0087274112 0.0068973061            5 
 4938000   0.46243616    -9.080802    517.25373 0.0087291368 0.0068949239           10 
 4939000   0.47366854   -9.0848079    517.18914 0.0087262796 0.0068925402            7 
 4940000   0.46194072   -9.0877527    517.81428 0.0087350587 0.0068901591            7 
 4941000   0.46802979   -9.0904753     517.5909 0.0087295233 0.0068877776            5 
 4942000   0.46489158   -9.0942404    517.33638 0.0087234652 0.0068853963            7 
 4943000   0.46632092   -9.0693339    517.16781 0.0087188584 0.0068830166            9 
 4944000   0.45752047   -9.0821325    516.93342 0.0087131443 0.0068806378           10 
 4945000   0.46168779   -9.0886028    517.15696 0.0087151493 0.0068782616            8 
 4946000   0.46277951   -9.0966771     516.8154 0.0087076324  0.006875886            6 
 4947000   0.45919287   -9.0839197    517.89081 0.0087239878 0.0068735098            9 
 4948000   0.47164907   -9.0908979    517.39898 0.0087139414 0.0068711377            9 
 4949000   0.46072683   -9.0952799     517.2434 0.0087095609 0.0068687643            9 
 4950000   0.46968417   -9.0967883    516.97309 0.0087032507 0.0068663932           11 
 4951000   0.45930978   -9.1034725    516.43579 0.0086924491 0.0068640212           10 
 4952000   0.46855159   -9.1111113    517.03619 0.0087007975 0.0068616517            7 
 4953000   0.44977083   -9.0976481    517.26776  0.008702937 0.0068592834           14 
 4954000    0.4587665   -9.0865149    516.49981 0.0086882622 0.0068569162           10 
 4955000   0.45906905   -9.0967343    517.09144 0.0086964588 0.0068545477           11 
 4956000   0.45334226   -9.1004556    517.03236 0.0086937106 0.0068521805            8 
 4957000   0.45856847   -9.1012918     516.8227 0.0086884322 0.0068498164            7 
 4958000   0.45411213   -9.0861709    517.72583 0.0087018595 0.0068474528            9 
 4959000    0.4556958   -9.0947127    517.13939 0.0086902498 0.0068450914            9 
 4960000   0.44693275   -9.0902527    517.11926 0.0086881596 0.0068427298            7 
 4961000   0.45723648   -9.0824575    517.03474 0.0086849886 0.0068403698            7 
 4962000    0.4498736   -9.0832267    518.06826 0.0087005955 0.0068380104           10 
 4963000   0.45494864   -9.1038488     517.2273 0.0086847219 0.0068356537            4 
 4964000   0.46499049    -9.091038    516.92138 0.0086778368 0.0068332973            4 
 4965000   0.45456962   -9.1056519    517.48593 0.0086855645 0.0068309429            4 
 4966000   0.44669361   -9.0776206     517.5666 0.0086851691 0.0068285894            6 
 4967000   0.47231442   -9.0946249    516.85843 0.0086715393 0.0068262364            8 
 4968000   0.46489098   -9.0974136    516.97307 0.0086717168 0.0068238843           11 
 4969000   0.45268169   -9.0885264    516.78638 0.0086668407 0.0068215322           11 
 4970000   0.45756405   -9.0804606    517.29584 0.0086736392 0.0068191819            8 
 4971000   0.45895591   -9.0943921    517.18147 0.0086699771 0.0068168326            9 
 4972000   0.46236902   -9.1030125    517.12546 0.0086672946 0.0068144824           13 
 4973000   0.45154849   -9.0975839    517.79535 0.0086767771 0.0068121356            8 
 4974000   0.45736937   -9.0963915     516.3945 0.0086515631 0.0068097894            8 
 4975000    0.4608256    -9.102879     516.8836 0.0086580168 0.0068074446            7 
 4976000   0.46445886   -9.0877541    516.52801 0.0086503216 0.0068051008            8 
 4977000   0.45260402   -9.1260593    516.94528 0.0086555703 0.0068027587            9 
 4978000   0.45515551   -9.0915942    517.41379 0.0086616745 0.0068004152           14 
 4979000   0.45868708   -9.0766139     516.7947 0.0086495733 0.0067980749            6 
 4980000   0.44298155   -9.1085388    517.29081 0.0086561381 0.0067957382           11 
 4981000   0.45908254   -9.0906024    516.80924 0.0086463434 0.0067934007            7 
 4982000   0.45462177   -9.0971486    517.48962 0.0086559886 0.0067910621            5 
 4983000   0.46038449   -9.0926215    516.39677 0.0086359752  0.006788725            7 
 4984000   0.46303529   -9.0991938    517.03839 0.0086449704 0.0067863903            8 
 4985000   0.44893206   -9.0815125    516.97742 0.0086422169  0.006784057            8 
 4986000   0.45225384   -9.1124853    517.34014 0.0086465459 0.0067817222            9 
 4987000   0.47197601   -9.0975744    516.86772  0.008636918 0.0067793914           12 
 4988000    0.4564894   -9.0930281    515.63768 0.0086146365 0.0067770615            5 
 4989000   0.46244989   -9.0946995     516.7417 0.0086313506 0.0067747327           10 
 4990000    0.4527052    -9.105864     516.6844  0.008628664 0.0067724052           12 
 4991000   0.45189017   -9.0998333    517.07683 0.0086334874 0.0067700777            6 
 4992000   0.45852063   -9.0985179    517.60781 0.0086406219 0.0067677518            8 
 4993000   0.45533717   -9.1205372    516.83737 0.0086260327 0.0067654263            9 
 4994000   0.44758004    -9.104408    516.99246 0.0086268933 0.0067631004            8 
 4995000   0.45948768   -9.0973256    517.17492 0.0086282102 0.0067607766            8 
 4996000   0.45315406   -9.0947085    517.40373 0.0086302998 0.0067584561            7 
 4997000   0.44627317   -9.1135558    517.51059 0.0086303547 0.0067561357            7 
 4998000   0.44656835   -9.1135008    517.10922 0.0086219357 0.0067538152            5 
 4999000   0.43983531   -9.0979695    516.58489 0.0086114705 0.0067514945           11 
 5000000   0.44869733   -9.1050669    516.67714 0.0086112857 0.0067491754           16 
 5001000    0.4672035   -9.1096285    516.88805 0.0086130782 0.0067468572           14 
 5002000   0.44159151   -9.1064244    516.92729 0.0086120101 0.0067445426            8 
 5003000   0.45141284    -9.096036    516.37468 0.0086010841 0.0067422281            5 
 5004000    0.4619081   -9.0944381    517.26956 0.0086142679 0.0067399124           15 
 5005000   0.45106138   -9.0961254    515.87805 0.0085893781 0.0067375974            8 
 5006000   0.45178014   -9.1119016    517.05447 0.0086072458 0.0067352844           16 
 5007000    0.4474045   -9.1009603    516.64668 0.0085987398 0.0067329709           10 
 5008000   0.43917349   -9.1123186    516.67328 0.0085974653 0.0067306595           11 
 5009000    0.4504932   -9.1007184    516.57102 0.0085940478 0.0067283493           10 
 5010000   0.45809531   -9.0944326    517.02224 0.0085998376 0.0067260411           11 
 5011000   0.45164419   -9.1133586    516.99666 0.0085976961 0.0067237332            7 
 5012000   0.45421403   -9.1075027    516.79813 0.0085926797 0.0067214281            7 
Loop time of 12500.5 on 48 procs for 5000000 steps with 4000 atoms

Performance: 69117.492 tau/day, 399.985 timesteps/s
99.4% CPU use with 48 MPI tasks x no OpenMP threads

MPI task timing breakdown:
Section |  min time  |  avg time  |  max time  |%varavg| %total
---------------------------------------------------------------
Pair    | 864.82     | 932.23     | 992.96     | 108.3 |  7.46
Neigh   | 82.915     | 86.403     | 89.622     |  17.7 |  0.69
Comm    | 797.02     | 859.61     | 937.33     | 116.0 |  6.88
Output  | 13.576     | 13.598     | 13.658     |   0.4 |  0.11
Modify  | 10476      | 10496      | 10527      |  10.7 | 83.96
Other   |            | 112.8      |            |       |  0.90

Nlocal:        83.3333 ave          89 max          78 min
Histogram: 4 4 6 8 4 3 7 5 3 4
Nghost:        2239.38 ave        2261 max        2211 min
Histogram: 1 1 1 4 12 6 8 9 3 3
Neighs:        15056.2 ave       16518 max       13478 min
Histogram: 2 1 6 1 9 13 8 4 1 3
FullNghs:      30112.8 ave       32243 max       28098 min
Histogram: 2 5 6 7 6 3 9 5 2 3

Total # of neighbors = 1445414
Ave neighs/atom = 361.35350
Neighbor list builds = 266651
Dangerous builds = 0

#clear
#
#next RN
#
#jump SELF
Total wall time: 3:28:23
