
units lj                  # Use reduced LJ style units
atom_style atomic         # Uncharged point particles
atom_modify map hash      # Needed for indexing of clusters etc
                          # Used to be able to find where atoms are in relation to each other.

# Define a lattice with which to populate the simulation cell. With units
# set to 'lj' the second argument to the lattice command is the reduced
# density rho* and the spacings are multiples of that required to acheive
# that density. Also define a simulation cell called 'box' in lattice units
# and fill it with atoms. Here we're creating a box which is ten lattice
# constants in each direction.
lattice fcc 1.0 spacing 1 1 1                 # All equal sizes - gives the right reduced density.
Lattice spacing in x,y,z = 1.5874011 1.5874011 1.5874011

region box block 0 10 0 10 0 10 units lattice # Defines a region, "box", in lattice units
create_box 1 box                              # Creates a simulation box as specified above,
Created orthogonal box = (0.0000000 0.0000000 0.0000000) to (15.874011 15.874011 15.874011)
  3 by 4 by 4 MPI processor grid
                                              # with one type of atom
create_atoms 1 box                            # Creates particles on lattice points
Created 4000 atoms
  using lattice units in orthogonal box = (0.0000000 0.0000000 0.0000000) to (15.874011 15.874011 15.874011)
  create_atoms CPU = 0.003 seconds


# Set the mass of the first (and only) atom type.
mass 1 1.0

# Lennard-Jones interactions between particles, 3.5 sigma cut-off. Apply
# long range tail corrections to energy and pressure and set all coefficients
# to unity since we work in reduced units here. Note that this doesn't shift
# the potential such that it goes to zero at the cutoff. That would require
# pair_modify('shift', 'yes').
pair_style lj/cut  3.5      # non-GPU version
pair_modify tail  yes
pair_coeff 1  1  1.0  1.0   # Intearaction between 1 and 1 set with epsilon = 1 and sigma = 1

write_data data.*
System init for write_data ...
Neighbor list info ...
  update every 1 steps, delay 10 steps, check yes
  max neighbors/atom: 2000, page size: 100000
  master list distance cutoff = 3.8
  ghost atom cutoff = 3.8
  binsize = 1.9, bins = 9 9 9
  1 neighbor lists, perpetual/occasional/extra = 1 0 0
  (1) pair lj/cut, perpetual
      attributes: half, newton on
      pair build: half/bin/atomonly/newton
      stencil: half/bin/3d
      bin: standard

#############################
#   M E L T   S Y S T E M   #
#############################

velocity all create 2.4 9580093 mom yes dist gaussian # Assign velocities
                                                    # Temperature 2.4, random number seed, zero linear momentum
						                                                        # Gaussian distribution

timestep 0.002   # simulation timestep
thermo 1000       # output thermodynamic data every 1000 steps

# Define a fix  in this case with index 1 applied to all
# particles in the simulation. This fix is for simulations
# in the anisotropic NPT ensemble. Note that we use the MTK
# correction.
fix 1 all npt temp 2.4 2.4 0.1 iso 5.68 5.68 0.5 mtk yes tchain 5 pchain 5 # Use NPT ensemble
                                                                         # Set temperature and pressure and damping
                                                                         # Numbers of thermostats in chain and in barostat
run 1000         # run for 10000 steps
Per MPI rank memory allocation (min/avg/max) = 3.642 | 3.644 | 3.648 Mbytes
Step Temp E_pair E_mol TotEng Press Volume 
       0          2.4   -8.3859253            0   -4.7868253   -2.2405722         4000 
    1000    2.3310961   -4.4126417            0  -0.91687173     5.740376    5176.6007 
Loop time of 0.21863 on 48 procs for 1000 steps with 4000 atoms

Performance: 790375.387 tau/day, 4573.932 timesteps/s
99.3% CPU use with 48 MPI tasks x no OpenMP threads

MPI task timing breakdown:
Section |  min time  |  avg time  |  max time  |%varavg| %total
---------------------------------------------------------------
Pair    | 0.094943   | 0.1005     | 0.10885    |   1.1 | 45.97
Neigh   | 0.018141   | 0.018907   | 0.02008    |   0.4 |  8.65
Comm    | 0.064082   | 0.074765   | 0.08242    |   1.4 | 34.20
Output  | 2.5108e-05 | 2.5896e-05 | 3.2968e-05 |   0.0 |  0.01
Modify  | 0.019681   | 0.022887   | 0.024857   |   1.0 | 10.47
Other   |            | 0.001542   |            |       |  0.71

Nlocal:        83.3333 ave          94 max          75 min
Histogram: 3 1 4 14 9 10 3 2 0 2
Nghost:        1387.96 ave        1410 max        1370 min
Histogram: 7 5 5 3 9 4 1 6 5 3
Neighs:        7369.90 ave        8711 max        6410 min
Histogram: 1 4 8 11 10 6 5 2 0 1

Total # of neighbors = 353755
Ave neighs/atom = 88.438750
Neighbor list builds = 87
Dangerous builds = 20

# Equilibrate just above the melting temperature to avoid step fn in T

fix 1 all npt temp 1.25 1.25 0.1 iso 5.68 5.68 0.5 mtk yes tchain 5 pchain 5
run 1000
Per MPI rank memory allocation (min/avg/max) = 3.642 | 3.644 | 3.648 Mbytes
Step Temp E_pair E_mol TotEng Press Volume 
    1000    2.3310961   -4.4126417            0  -0.91687173     5.740376    5176.6007 
    2000    1.2492981   -5.8103729            0   -3.9368942    5.8537892    4340.8265 
Loop time of 0.214901 on 48 procs for 1000 steps with 4000 atoms

Performance: 804089.781 tau/day, 4653.297 timesteps/s
99.6% CPU use with 48 MPI tasks x no OpenMP threads

MPI task timing breakdown:
Section |  min time  |  avg time  |  max time  |%varavg| %total
---------------------------------------------------------------
Pair    | 0.095536   | 0.10015    | 0.11287    |   1.0 | 46.60
Neigh   | 0.015382   | 0.016167   | 0.01841    |   0.4 |  7.52
Comm    | 0.063762   | 0.073794   | 0.080879   |   1.4 | 34.34
Output  | 2.3316e-05 | 2.4315e-05 | 3.0588e-05 |   0.0 |  0.01
Modify  | 0.01787    | 0.022793   | 0.027698   |   1.7 | 10.61
Other   |            | 0.00197    |            |       |  0.92

Nlocal:        83.3333 ave          91 max          76 min
Histogram: 2 0 5 3 17 6 10 1 2 2
Nghost:        1556.00 ave        1579 max        1538 min
Histogram: 4 6 4 6 8 9 5 3 2 1
Neighs:        8770.42 ave        9624 max        7882 min
Histogram: 2 2 3 6 9 11 6 6 2 1

Total # of neighbors = 420980
Ave neighs/atom = 105.24500
Neighbor list builds = 74
Dangerous builds = 7


# Small amount of linear quench

fix 1 all npt temp 1.25 ${temp} 0.1 iso 5.68 5.68 0.5 mtk yes tchain 5 pchain 5
fix 1 all npt temp 1.25 0.86 0.1 iso 5.68 5.68 0.5 mtk yes tchain 5 pchain 5
run 2000
Per MPI rank memory allocation (min/avg/max) = 3.643 | 3.645 | 3.648 Mbytes
Step Temp E_pair E_mol TotEng Press Volume 
    2000    1.2492981   -5.8103729            0   -3.9368942    5.8537892    4340.8265 
    3000    1.0782612   -6.1082753            0   -4.4912879     5.635032    4225.0621 
    4000   0.87066982   -6.4329509            0   -5.1272727    5.5956588    4089.6577 
Loop time of 0.459402 on 48 procs for 2000 steps with 4000 atoms

Performance: 752282.382 tau/day, 4353.486 timesteps/s
99.6% CPU use with 48 MPI tasks x no OpenMP threads

MPI task timing breakdown:
Section |  min time  |  avg time  |  max time  |%varavg| %total
---------------------------------------------------------------
Pair    | 0.20359    | 0.21721    | 0.24848    |   1.8 | 47.28
Neigh   | 0.026892   | 0.028358   | 0.03263    |   0.7 |  6.17
Comm    | 0.13062    | 0.15903    | 0.17736    |   2.9 | 34.62
Output  | 4.8559e-05 | 4.9751e-05 | 6.4204e-05 |   0.0 |  0.01
Modify  | 0.042111   | 0.049935   | 0.069047   |   4.1 | 10.87
Other   |            | 0.004813   |            |       |  1.05

Nlocal:        83.3333 ave          90 max          77 min
Histogram: 4 2 3 10 4 8 11 1 4 1
Nghost:        1620.62 ave        1639 max        1601 min
Histogram: 1 5 6 7 3 3 10 5 5 3
Neighs:        9325.38 ave       10113 max        8474 min
Histogram: 4 1 2 7 7 10 6 7 3 1

Total # of neighbors = 447618
Ave neighs/atom = 111.90450
Neighbor list builds = 124
Dangerous builds = 0

#############################
# F R E E Z E  S Y S T E M  #
#############################

# Define solid atoms. This closely follows ten Wolde  Ruiz-Montero and Frenkel  Faraday Discuss  1996  104  93-110
# Compute components of the per-atom q6 vector
compute q6 all orientorder/atom degrees 1 6 components 6 nnn NULL cutoff 1.3 # compute the Q6 parameter.
                                                                             # Use all neighbours within 1.3 unit cell.

# get number of connections
compute coord_number all coord/atom orientorder q6 0.5

# An atom is solid if it has 8 or more connections (of a possible 14)
variable is_solid atom c_coord_number>=8
group solid dynamic all var is_solid    # Must be dynamic to update
dynamic group solid defined

# do clustering
compute cluster solid cluster/atom 1.3 # Create a cluster where all atoms within are solid and max 1.3 units from another member

# define chunks one chunk per cluster
compute clus_chunks solid chunk/atom c_cluster nchunk every compress yes  # Says which atoms are in which chunk

# count the size of each chunk
compute size_chunks solid property/chunk clus_chunks count


# Find the maximum entry in the vector of chunk sizes
variable max_n equal max(c_size_chunks)


# Thermo style which includes this variable
thermo_style custom step temp pe vol v_max_n

thermo ${N}  # Print the thermo information every 100 steps
thermo 1000  

# Reset the npt fix at a lower temperature (below freezing)
fix 1  all npt temp  ${temp} ${temp}  0.1  iso  5.68  5.68  0.5  mtk yes tchain  5  pchain  5
fix 1  all npt temp  0.86 ${temp}  0.1  iso  5.68  5.68  0.5  mtk yes tchain  5  pchain  5
fix 1  all npt temp  0.86 0.86  0.1  iso  5.68  5.68  0.5  mtk yes tchain  5  pchain  5

dump dmp2 all dcd ${N} traj_${rand}.dcd
dump dmp2 all dcd 1000 traj_${rand}.dcd
dump dmp2 all dcd 1000 traj_462431.dcd


# fix rnuntil all halt ${N} v_max_n >= 3980 error soft message no   # Stop when solidified


run 1000000 # 5000000  # Run for this many steps
Neighbor list info ...
  update every 1 steps, delay 10 steps, check yes
  max neighbors/atom: 2000, page size: 100000
  master list distance cutoff = 3.8
  ghost atom cutoff = 3.8
  binsize = 1.9, bins = 9 9 9
  4 neighbor lists, perpetual/occasional/extra = 1 3 0
  (1) pair lj/cut, perpetual
      attributes: half, newton on
      pair build: half/bin/atomonly/newton
      stencil: half/bin/3d
      bin: standard
  (2) compute orientorder/atom, occasional
      attributes: full, newton on
      pair build: full/bin/atomonly
      stencil: full/bin/3d
      bin: standard
  (3) compute coord/atom, occasional
      attributes: full, newton on
      pair build: full/bin/atomonly
      stencil: full/bin/3d
      bin: standard
  (4) compute cluster/atom, occasional
      attributes: full, newton on
      pair build: full/bin/atomonly
      stencil: full/bin/3d
      bin: standard
Per MPI rank memory allocation (min/avg/max) = 9.370 | 9.375 | 9.380 Mbytes
Step Temp PotEng Volume v_max_n 
    4000   0.87066982   -6.4329509    4089.6577            7 
    5000   0.86397903   -6.4876807    4059.0197            4 
    6000   0.86920095   -6.5226418    4052.2689           13 
    7000   0.86670651   -6.4954885     4044.045            8 
    8000   0.85381587   -6.5698997    4052.2816           11 
    9000   0.87000206   -6.5370468    4037.1964           13 
   10000   0.84723795   -6.5329521    4031.5224           19 
   11000   0.86059445   -6.5382757    4042.3991           24 
   12000   0.85267893   -6.5879208    4035.3163           18 
   13000   0.86511573   -6.5138971    4040.4451           13 
   14000   0.85713529   -6.5465393    4038.0711           10 
   15000   0.84000915   -6.5576972    4028.3962           14 
   16000   0.85663492   -6.5540501    4045.6496            6 
   17000   0.85933213   -6.5397372     4042.313           16 
   18000   0.86846542   -6.5483068    4037.0669           22 
   19000    0.8485332   -6.5342108    4037.1033            7 
   20000   0.86038861   -6.5202468    4054.4379           17 
   21000   0.85611886   -6.5466773    4055.1842            9 
   22000   0.86818015   -6.5520907    4041.1421           11 
   23000   0.87156544   -6.5281454    4049.9554           13 
   24000   0.85698522   -6.5391948    4033.0901           22 
   25000   0.86986489   -6.5391126     4035.252           17 
   26000   0.85928792   -6.5061239     4036.487           10 
   27000   0.88657704   -6.5529736    4043.4694           15 
   28000   0.86084817   -6.5361601    4050.7452           15 
   29000   0.85661749   -6.5385329    4048.8071           18 
   30000   0.86107732   -6.5561239    4047.6717           14 
   31000   0.86732977   -6.5098452    4043.5397            5 
   32000   0.84121701   -6.5176605    4035.6751           13 
   33000   0.86453392   -6.5560767    4044.2368           15 
   34000   0.86294773   -6.5269393    4045.3473           12 
   35000   0.86878155   -6.5265695    4055.6209           15 
   36000   0.85784331   -6.5478185    4034.6818           11 
   37000   0.86719434   -6.5084836    4055.8159            7 
   38000     0.867385   -6.5048923    4066.8554            7 
   39000   0.86161233   -6.5156883    4046.2281           24 
   40000   0.84797035    -6.569558    4040.4046           13 
   41000   0.84382858   -6.5363911    4029.5212            7 
   42000   0.84014917   -6.5346472    4044.6972            7 
   43000   0.86815765    -6.530271    4042.2599           18 
   44000   0.85202321   -6.5684472      4036.71            8 
   45000   0.87197944   -6.5328202    4056.9541           21 
   46000   0.86696076    -6.536533      4047.86           18 
   47000   0.86250749   -6.5519599    4025.9679           15 
   48000    0.8671498   -6.5462007    4036.1289            7 
   49000   0.88926272   -6.5271489    4035.6106           18 
   50000   0.85488685   -6.5174141    4051.9857            5 
   51000   0.86026322   -6.5171341    4055.6061            6 
   52000   0.85700829   -6.5295308    4037.5265            6 
   53000   0.85853928   -6.5183568    4044.4467           16 
   54000   0.86397407   -6.5420535    4039.7865           29 
   55000   0.87189176    -6.541546     4054.363           20 
   56000   0.85864761   -6.4886015    4060.8788           24 
   57000   0.85638609   -6.5209203    4046.9415           15 
   58000   0.85152224   -6.5023037    4051.9949           20 
   59000   0.86556111    -6.560382    4039.6983           10 
   60000   0.87504409   -6.5378044    4051.4933           13 
   61000   0.82709759   -6.5215384    4034.1889            7 
   62000   0.86616435   -6.5183208    4052.9808           11 
   63000     0.868946   -6.5355773    4035.5334           26 
   64000   0.84228348   -6.5246516    4045.2035           17 
   65000   0.87124493    -6.545824    4044.3978           12 
   66000   0.86154292   -6.5476263    4036.2685           14 
   67000   0.85809471   -6.5480226    4053.9521            9 
   68000   0.83861443   -6.5741838    4035.9779           28 
   69000   0.86290514   -6.5294307    4049.8707           27 
   70000   0.84363824   -6.5439308    4048.8826           17 
   71000   0.86536237   -6.5341669    4043.5666           21 
   72000   0.85411649   -6.5233602    4057.0773           11 
   73000    0.8595406   -6.5090708    4045.3122           11 
   74000    0.8503482   -6.5259112    4061.4459            9 
   75000   0.85308073   -6.5232691    4056.8731           11 
   76000   0.85848418   -6.5202896       4056.1            9 
   77000   0.84819569   -6.5307186    4040.9509           16 
   78000    0.8509638   -6.5664193    4037.6122            9 
   79000   0.87851653   -6.5367317    4051.8315           12 
   80000   0.85900145   -6.5378193    4056.1272            8 
   81000   0.86732437   -6.5309441     4054.828           27 
   82000   0.84912045   -6.5418045    4049.3902           10 
   83000     0.869099   -6.5412498    4043.4753           12 
   84000   0.86131989   -6.5302874    4036.0232           10 
   85000   0.84307376   -6.5351096    4060.4887           12 
   86000   0.85100351   -6.5386075    4052.8213           19 
   87000    0.8715033   -6.5378355    4038.9857           17 
   88000   0.86342354   -6.5444478    4050.7968            9 
   89000   0.85793859   -6.5151241    4040.8174            5 
   90000   0.88027524   -6.5456456    4032.9945           12 
   91000   0.84580828   -6.5099021    4040.6638           12 
   92000    0.8597749   -6.5312037    4038.7476           16 
   93000   0.88037003   -6.5588683    4028.5021           10 
   94000    0.8408729   -6.5353375    4047.8054            9 
   95000   0.83240221   -6.5486748    4064.8084            6 
   96000   0.86743349   -6.5079109     4035.596            6 
   97000   0.84743736    -6.509564    4071.7268            9 
   98000   0.87147485   -6.5189439    4056.6129           13 
   99000   0.87584891    -6.531853    4045.9736           11 
  100000   0.84869954   -6.5484412    4049.4712           26 
  101000   0.85694268   -6.5394387    4055.0215           17 
  102000   0.85192637   -6.5142507    4050.2025           13 
  103000   0.88026777   -6.5297892    4054.6009           28 
  104000   0.86669201   -6.5021385    4066.1946            9 
  105000    0.8746813   -6.5438815    4055.0126            7 
  106000   0.84503589   -6.5192366    4060.9706            7 
  107000   0.88239327   -6.5148224    4051.9017            7 
  108000   0.85395169   -6.5322131    4048.2394           12 
  109000   0.84950197   -6.5024414    4061.0341            9 
  110000   0.85056164   -6.5550774    4045.7221            5 
  111000   0.85363461   -6.4996508    4048.5466           10 
  112000   0.84769394   -6.5622155    4047.3839           15 
  113000   0.86746411   -6.5327761    4059.6555           14 
  114000   0.85046096   -6.5317557    4057.0008           27 
  115000   0.86328812   -6.5175968     4052.237           13 
  116000   0.84049549    -6.539897     4045.656           11 
  117000   0.84475031   -6.5279297     4066.115           12 
  118000   0.87508862   -6.5250699    4058.6884           15 
  119000   0.87761915   -6.5554336    4045.5865            8 
  120000   0.88430879   -6.5096336     4039.643           13 
  121000   0.85304744    -6.553829    4057.0334           13 
  122000   0.85993958   -6.5264276    4043.6899            9 
  123000   0.85944433   -6.5488873    4045.9262            5 
  124000   0.86970879   -6.5212379    4041.5842           14 
  125000   0.87012811    -6.512594     4044.929           15 
  126000   0.83816004   -6.5191453    4040.8519           16 
  127000   0.85769943   -6.5311115    4045.0975           32 
  128000   0.85975979    -6.538561    4041.0411           17 
  129000   0.85681199   -6.5499501    4046.4686           13 
  130000   0.86048416   -6.5368348    4036.2223           12 
  131000   0.85358844   -6.5014418    4060.7772            6 
  132000   0.84153792   -6.5235535    4046.5392           24 
  133000    0.8593825    -6.517722    4058.4812           19 
  134000    0.8549237   -6.5466384    4046.5081           13 
  135000   0.85150795   -6.5035877    4043.2338           15 
  136000    0.8561165   -6.5043475    4047.3156           10 
  137000   0.86194776   -6.5202897    4054.5279           11 
  138000    0.8703559   -6.5088865    4037.6696            7 
  139000   0.85902143   -6.5354676    4040.8877           14 
  140000   0.84531117   -6.5374809    4046.5767           19 
  141000   0.87962666   -6.5450136    4043.4467           15 
  142000   0.86145608    -6.520149    4042.3601           18 
  143000   0.85024104   -6.5203084    4031.7071           23 
  144000   0.88224419   -6.5381165    4038.9644           17 
  145000   0.86661298   -6.5207026    4058.5271           20 
  146000   0.84638683   -6.5287671    4056.2107            9 
  147000   0.86281282   -6.5279081    4040.6657           18 
  148000   0.85882054   -6.5205245    4045.6713           27 
  149000   0.86475137   -6.5273707    4049.6098           17 
  150000   0.87082673   -6.5155262    4041.3108           21 
  151000   0.87622954   -6.5323427    4035.2258           20 
  152000   0.85304173   -6.5345336    4052.3362           10 
  153000   0.86257524   -6.5666685    4053.9046           18 
  154000   0.84466409   -6.5235308    4031.9928           12 
  155000   0.85604542   -6.5375059     4041.176           14 
  156000   0.84946516   -6.5342277    4047.4833           13 
  157000   0.88018542   -6.5355004    4025.1689           12 
  158000   0.84059223    -6.543206    4041.2012           28 
  159000     0.852339   -6.5224774    4045.5832           17 
  160000   0.84049777   -6.5061013    4063.4499           13 
  161000   0.85661654   -6.5552144    4037.1784           23 
  162000   0.85398041   -6.5117921    4056.7009           13 
  163000    0.8646134   -6.5414635    4050.5153           20 
  164000    0.8598795   -6.5399528    4052.3646           22 
  165000   0.87676454   -6.5397905    4049.6023           10 
  166000   0.86357578   -6.5246589     4048.403           15 
  167000   0.86138844   -6.5512598    4051.5325           15 
  168000   0.87001084   -6.5513921    4040.4985            7 
  169000   0.85334985   -6.5841298     4041.656           11 
  170000   0.86986053   -6.5261351    4049.1975           12 
  171000   0.87305187   -6.5432479    4045.4492           18 
  172000   0.84182159   -6.5469272    4055.0894           17 
  173000    0.8721034   -6.5137267    4046.1253           41 
  174000   0.85572818   -6.5045704    4058.1082           17 
  175000   0.85444378    -6.510095    4055.7741            8 
  176000   0.84993305   -6.5253875    4043.6672           12 
  177000   0.85061341   -6.5194795    4056.2856           11 
  178000   0.85235956   -6.5167278     4039.578           18 
  179000   0.86146502    -6.547435    4037.7175           23 
  180000    0.8595987   -6.5489627    4054.9725           37 
  181000     0.864325   -6.5361041    4048.8986           13 
  182000   0.85255008   -6.5312048    4052.1393           18 
  183000   0.85247939   -6.4844907    4057.6773            8 
  184000   0.87045195   -6.5327523    4048.5046           13 
  185000   0.86194708   -6.5261685    4050.5453            7 
  186000   0.85950043   -6.5210186    4054.3598           11 
  187000   0.86696149   -6.5536176    4047.4699           10 
  188000   0.85414004   -6.5382363    4049.6621           18 
  189000    0.8656949   -6.5172428    4053.8223           20 
  190000   0.86463175    -6.536106    4034.5264           19 
  191000   0.84774048   -6.5199165    4043.8832           23 
  192000   0.87288893   -6.5462882    4038.8929           30 
  193000    0.8374839    -6.560537    4053.3268           14 
  194000   0.86179938   -6.5630975    4052.2627           13 
  195000   0.85679729   -6.5362949    4047.3549            9 
  196000    0.8586124   -6.5280007    4056.8224           13 
  197000   0.85930945   -6.5323803    4053.5217           19 
  198000   0.83913551   -6.5317886    4049.6939            8 
  199000   0.86815188    -6.502122    4045.6245           12 
  200000   0.85498483   -6.5200853    4060.2758            9 
  201000   0.83119818    -6.548062    4045.7136           18 
  202000   0.85991907   -6.5027172    4047.2077            9 
  203000   0.83878208   -6.5684503    4030.1989           17 
  204000   0.87649436   -6.5350113    4049.0613           11 
  205000   0.86345195   -6.5289486    4036.0528           10 
  206000   0.86234587   -6.5451871    4052.9958           26 
  207000   0.86614567   -6.5440891    4069.9814           14 
  208000   0.83348863   -6.5310183    4060.9678           31 
  209000   0.85425518   -6.5672684    4037.6774           10 
  210000   0.84887829   -6.5414169    4043.7505           25 
  211000   0.86383164   -6.4967314    4051.8054           16 
  212000   0.85158401   -6.5197802    4056.6173           28 
  213000   0.84727469   -6.5449259    4041.9556            7 
  214000   0.87516188   -6.5519277    4056.3205           14 
  215000   0.84553319   -6.5424361    4060.1854           17 
  216000   0.84838149   -6.5323481     4042.974           11 
  217000   0.86151746    -6.553316    4049.1172            6 
  218000    0.8622516   -6.5565618    4039.4759            9 
  219000   0.85748626   -6.5564902    4050.1954           18 
  220000   0.85721848   -6.5507877    4058.3576           20 
  221000   0.87432004   -6.4992289    4053.3528           12 
  222000    0.8495992   -6.5518244    4047.3749            8 
  223000   0.86741028   -6.5427989    4045.9446           32 
  224000   0.85404755   -6.5274747    4055.7823           23 
  225000   0.87246721   -6.5350121    4055.1989           16 
  226000   0.85732731   -6.5173679    4043.3933            7 
  227000   0.86608979    -6.562441    4046.3344           22 
  228000   0.86331244   -6.5152663    4046.0356           15 
  229000   0.85111052   -6.5214656    4048.1969           16 
  230000   0.85235165   -6.5163361    4047.2541           10 
  231000   0.85568903   -6.5550947    4037.9627           11 
  232000   0.84247976   -6.5171973    4035.6779           14 
  233000   0.85908834   -6.5639728    4049.6002           20 
  234000   0.86545917   -6.5388444    4058.2353           40 
  235000   0.87100718   -6.5615184    4040.8482           18 
  236000   0.85088797   -6.5253317    4049.2907           16 
  237000   0.86348291   -6.5172952    4053.3398           14 
  238000   0.86643754   -6.5479671    4046.2098           13 
  239000    0.8540307   -6.5330012    4049.8783           10 
  240000   0.86635896   -6.5522999    4045.4488           13 
  241000     0.871498   -6.5698768    4047.7274            9 
  242000   0.88343594   -6.5431295    4045.4515           18 
  243000   0.85372431   -6.5450109    4040.3682           14 
  244000   0.86182177   -6.5441747    4034.7921           13 
  245000    0.8635658   -6.5672256    4039.5998           23 
  246000   0.85731043   -6.5452306    4038.8645           19 
  247000   0.85888344   -6.5483734    4045.3275           17 
  248000   0.87324684   -6.5644497    4043.6083           23 
  249000   0.86645579   -6.5228682    4052.1412           20 
  250000   0.85963351   -6.5189766    4043.5698            6 
  251000   0.86105777   -6.5255489    4055.9341           14 
  252000   0.84199507   -6.5259534    4053.0098           15 
  253000   0.87423447   -6.5155411    4036.3325           16 
  254000   0.86199553   -6.5562408     4033.978           14 
  255000   0.86750648   -6.5563036    4049.5645           14 
  256000   0.86649225   -6.5477024    4044.3262            7 
  257000   0.85781762   -6.5016704    4047.2032           16 
  258000   0.86085439   -6.5262724    4045.3255           23 
  259000   0.86083269   -6.5589632    4046.2085            7 
  260000   0.84641819   -6.5258877    4041.2536           16 
  261000   0.88145363   -6.5315153    4048.1029           16 
  262000   0.86531156   -6.5554251    4022.3026           31 
  263000   0.86197803   -6.5375961    4042.5181           40 
  264000   0.84228206   -6.5323826    4044.7413            7 
  265000   0.88138794   -6.4992628    4043.6728            6 
  266000   0.85566969   -6.5345865    4042.6814           19 
  267000    0.8729622   -6.4832981    4051.1045            6 
  268000   0.86226465   -6.5294457     4049.336           14 
  269000   0.86413948    -6.548159    4049.4399            9 
  270000   0.85417635   -6.5501771    4033.1877           16 
  271000   0.84896207   -6.5286025     4049.032           10 
  272000     0.864938   -6.5345768    4034.3006           13 
  273000   0.86914877   -6.5510772    4034.2221            8 
  274000   0.87075459   -6.5375629     4049.062            7 
  275000   0.84903516   -6.5349017    4055.1753            8 
  276000   0.84782333    -6.514414    4051.5437           11 
  277000   0.86047949   -6.5010987    4051.1575           31 
  278000   0.84986909   -6.5366193    4043.3615           14 
  279000   0.86981471   -6.5190793    4054.1193           41 
  280000     0.853335   -6.5311896    4059.6661           18 
  281000   0.86917622   -6.5324977    4058.9429           13 
  282000   0.87432814   -6.5410855    4055.9093            7 
  283000   0.84839576   -6.5635045    4047.8228            6 
  284000   0.85068577   -6.5088065    4053.3475           22 
  285000   0.84619753   -6.5427109    4053.5042           11 
  286000   0.85971149   -6.5091067     4036.119            7 
  287000   0.85727345   -6.4974893      4057.73            8 
  288000   0.84694425   -6.5318074    4050.3239           14 
  289000    0.8393141   -6.5430323    4021.1094            8 
  290000   0.86493942   -6.5535123     4046.115           28 
  291000   0.83441323   -6.5480603    4051.8676           24 
  292000    0.8507018   -6.5456258     4026.786           18 
  293000   0.84918584   -6.5166887    4046.1823           13 
  294000   0.85719338   -6.5077604    4049.3006           13 
  295000   0.86104954   -6.5256705    4053.4073           18 
  296000   0.86486841   -6.5131449    4036.9993           29 
  297000   0.86339335   -6.5382791    4057.1134            5 
  298000   0.86858409   -6.5397358    4049.8072           11 
  299000   0.86390307   -6.5053403    4044.7219           12 
  300000    0.8908012   -6.5186193     4055.772            9 
  301000   0.85743779   -6.5392847    4037.2277           10 
  302000   0.84653423   -6.5065814    4062.9768            7 
  303000   0.87473457    -6.557326    4041.1385           14 
  304000   0.84453269   -6.5378485    4040.0162            9 
  305000   0.85676236   -6.5162511    4038.6997           11 
  306000   0.84169513   -6.5394644    4058.4919           17 
  307000   0.87140942   -6.4982916    4052.9845           12 
  308000   0.87457775   -6.5260924    4058.6741            9 
  309000   0.85081325   -6.5512342    4029.7686            6 
  310000   0.84662459   -6.5161248    4060.4652            6 
  311000    0.8714813   -6.5239018    4049.4816            7 
  312000   0.88117335   -6.5256701    4041.8832           21 
  313000   0.85862564   -6.5012041    4046.3389           25 
  314000   0.86215408   -6.5193929    4044.8893           20 
  315000   0.85323947   -6.5366812    4051.0884           19 
  316000   0.86233791   -6.5479316    4054.4986            8 
  317000   0.84625197   -6.4985157    4042.8255           22 
  318000   0.85938865   -6.5004521    4059.1778           19 
  319000    0.8620828     -6.53572    4048.7123            8 
  320000   0.88133851   -6.5342263    4043.1155           13 
  321000   0.86307192   -6.5282287     4038.696            9 
  322000   0.85213873   -6.5465809    4064.8321            8 
  323000   0.84856762   -6.5298244    4045.2495           13 
  324000   0.87011681   -6.5350897    4045.4076           10 
  325000   0.84985634    -6.519792    4045.1437           13 
  326000   0.85655784   -6.5279243    4045.2348            5 
  327000   0.86061068   -6.5153108    4054.9535           15 
  328000   0.85853369   -6.5303062    4050.1985           15 
  329000   0.86779197   -6.5334072    4061.0728            9 
  330000   0.83445237   -6.5261882    4053.6588            9 
  331000    0.8677902   -6.5419969    4039.6375           11 
  332000   0.87041146   -6.5498947    4073.1156           12 
  333000   0.86195311   -6.5419879    4040.1694           10 
  334000   0.84539571   -6.5342715    4042.5367            4 
  335000   0.86422661   -6.5648585    4039.9942            9 
  336000   0.85754459   -6.5359446    4046.1051           22 
  337000   0.86071815   -6.5732392    4030.7488           26 
  338000   0.84352204   -6.5380769    4036.6692           21 
  339000   0.84694232   -6.5310875    4045.6449           15 
  340000   0.85785569   -6.5395481    4047.5149           13 
  341000   0.86723558   -6.5264944    4052.0936            8 
  342000   0.88115593   -6.5408225    4043.4991           17 
  343000   0.86221536   -6.5498598    4035.4352           11 
  344000    0.8564562   -6.5230853    4056.7913           10 
  345000   0.85061038    -6.523774    4047.5713           24 
  346000   0.85797612     -6.52897    4048.1387           24 
  347000   0.86693622   -6.5371035    4051.8862           15 
  348000   0.85324582   -6.5390918    4037.4955           16 
  349000   0.83784631   -6.5467803    4035.9426           14 
  350000   0.85980131   -6.5347407    4050.3849           10 
  351000   0.84491416   -6.5339218    4047.9645            7 
  352000   0.86140281   -6.5388541    4044.1384           22 
  353000   0.87362678   -6.5515971    4036.2352           12 
  354000   0.87252095   -6.5506738    4042.7623           25 
  355000   0.85884263   -6.4968705    4056.8921           15 
  356000   0.86138601   -6.5380734    4038.1463           11 
  357000   0.86358232   -6.5040288    4039.8321            8 
  358000   0.84296133   -6.5233132    4047.6817           13 
  359000   0.86504882   -6.5098613    4060.1068           20 
  360000   0.85588665   -6.5165694    4040.4968           23 
  361000   0.85117658   -6.5425028    4053.7204           15 
  362000   0.85324341   -6.5265649    4048.5859           51 
  363000   0.84937882   -6.5286395    4042.2971           15 
  364000   0.86398358   -6.5369742     4036.736           18 
  365000   0.85570071   -6.5124836    4047.1694           13 
  366000   0.86351132   -6.5310659    4049.3054            7 
  367000   0.86846585   -6.5254062     4055.461           13 
  368000   0.85972283   -6.5219867    4042.1462           13 
  369000   0.87185465   -6.5231261    4051.2246           13 
  370000   0.84307044   -6.5365193    4039.2549            9 
  371000   0.84373591    -6.567561    4044.2229           12 
  372000   0.84415894    -6.545756    4032.9222           12 
  373000   0.86315675   -6.4912996    4055.2619            5 
  374000   0.85117486   -6.5397326    4054.3263           23 
  375000    0.8594856   -6.5042746    4048.9726           25 
  376000   0.86909958   -6.5427092    4042.5586           22 
  377000   0.86767342   -6.5373078    4059.8704           24 
  378000   0.87443367   -6.5015368    4062.1488           10 
  379000    0.8491208   -6.5235817    4056.0801           22 
  380000   0.86913946   -6.5176155    4035.6034            8 
  381000   0.83811624   -6.5286745    4050.6344           13 
  382000   0.85983434   -6.5180404    4059.3706           14 
  383000   0.86853094   -6.5305192    4058.2585           29 
  384000   0.85895288   -6.5291824    4041.3064           11 
  385000   0.86873434   -6.5577806    4055.0715           17 
  386000   0.86355933   -6.5202379    4056.4323           12 
  387000   0.86015174   -6.5512945    4035.0568           24 
  388000   0.85193009   -6.5337785    4044.6832            6 
  389000   0.85509997   -6.5355265    4047.0953            9 
  390000   0.85393781    -6.552155    4040.6094           19 
  391000   0.86736923   -6.5403403    4036.0675           10 
  392000   0.84565258     -6.55654    4049.2125           18 
  393000   0.86275627   -6.5431252    4054.2085            9 
  394000   0.87668385   -6.5474859    4049.5805           13 
  395000   0.86835425   -6.5511847    4036.3657           10 
  396000   0.85354162   -6.5192546    4052.0905           27 
  397000   0.87204417   -6.5387283    4043.7841           15 
  398000   0.85503489   -6.5435466    4039.5289            8 
  399000   0.85574543   -6.5422614    4020.5703           10 
  400000   0.85557187   -6.5374962    4043.2014           27 
  401000   0.84211895    -6.510812    4037.6137           13 
  402000   0.86432671   -6.5132892    4055.2818           18 
  403000     0.873044   -6.5219141    4034.1498           30 
  404000   0.85130983   -6.5199741    4045.4947           10 
  405000   0.85645704   -6.5549967    4039.5723            9 
  406000   0.86467638    -6.508723    4053.9967           10 
  407000   0.83724787   -6.5373898     4047.918           25 
  408000   0.87127449   -6.5348257    4041.0514           21 
  409000   0.83537405   -6.5187766    4041.3184           11 
  410000   0.87374985    -6.525005    4047.4208           10 
  411000   0.85954851   -6.5359623    4050.6378           38 
  412000   0.85400547   -6.5090631    4063.5715           16 
  413000   0.85782092   -6.5366649    4031.5337           10 
  414000   0.86847242   -6.5417087     4045.515           18 
  415000   0.83939678   -6.5542426    4052.2908           13 
  416000   0.83610287   -6.5303938    4040.7376           18 
  417000   0.85677038   -6.5545562    4033.7795           20 
  418000   0.85123132   -6.5261706    4062.7524           12 
  419000   0.87249845   -6.5160923    4036.1907           13 
  420000    0.8708027   -6.5103493    4055.8086           11 
  421000   0.84620892   -6.5372857    4047.9023           10 
  422000   0.87444021   -6.5411564    4038.6261           10 
  423000   0.85467227   -6.5049494    4057.0664           10 
  424000   0.84943255   -6.5284405     4049.854           13 
  425000   0.84162613   -6.5278834     4056.006           10 
  426000   0.85152595   -6.5340502    4054.9568           13 
  427000   0.86535282   -6.5158109     4049.896           10 
  428000   0.86400523   -6.5344816    4053.5359            7 
  429000   0.86094234   -6.5284567    4040.1155           13 
  430000   0.83882282   -6.5425539    4041.1928           21 
  431000   0.85689007   -6.5329272    4042.2376           11 
  432000   0.86507258   -6.5350714    4040.6984            9 
  433000   0.86032203    -6.542402    4046.2473           13 
  434000   0.86137861   -6.5257008    4047.7853           10 
  435000   0.84105473   -6.5476942    4042.5151           14 
  436000    0.8485692   -6.5351946    4035.2055           14 
  437000   0.85015453   -6.5477844    4037.5583            9 
  438000   0.86910224   -6.4798031    4045.9843           14 
  439000   0.84800591   -6.5239688    4044.4019            8 
  440000   0.86453968   -6.5164753    4050.0475           16 
  441000   0.84480439   -6.5045391    4067.6217            9 
  442000   0.83336424   -6.5118452    4045.8152            5 
  443000    0.8677736   -6.5303296    4037.3457           30 
  444000   0.86166554   -6.5468407    4055.7211           10 
  445000   0.87682496   -6.5420428     4054.154           15 
  446000   0.84039601    -6.560785    4052.5104            9 
  447000   0.86256028   -6.5498728      4043.19           13 
  448000     0.870018   -6.5256062    4055.8152           30 
  449000   0.86547108   -6.5343594    4052.5744           13 
  450000   0.83752849   -6.5392152    4039.2897            9 
  451000   0.86456688   -6.5306098    4036.1647           14 
  452000    0.8691793   -6.5129589     4054.976           17 
  453000   0.85794626   -6.5181444    4049.1845            9 
  454000   0.87826489   -6.5270909    4041.3459           14 
  455000   0.84340824   -6.5528391    4047.2968           24 
  456000   0.84820756   -6.5227821     4038.171           19 
  457000   0.85098309    -6.545991    4051.1131           10 
  458000   0.86407451    -6.530552    4053.3457            9 
  459000   0.85564629   -6.5097812    4045.4092            9 
  460000    0.8466531   -6.5360385    4064.2539           20 
  461000   0.86070078   -6.5650412    4039.8537           39 
  462000   0.85195826   -6.5200048    4053.7902           14 
  463000   0.85920381   -6.5359829    4052.1733           25 
  464000   0.84579684   -6.5162648    4050.7744            9 
  465000   0.85907069   -6.5617472    4042.5658           38 
  466000   0.85916008   -6.5244443    4051.4538           15 
  467000   0.85572195   -6.4949474    4057.9967           12 
  468000   0.86128777   -6.4980449    4050.4228           27 
  469000   0.85273735    -6.553343    4058.1495            9 
  470000   0.85597436   -6.5474041     4044.348            8 
  471000   0.86251903   -6.5496977    4059.2293           11 
  472000   0.84607444   -6.5094519    4034.0355           22 
  473000   0.84972819   -6.5299571    4049.5202           16 
  474000   0.87146515   -6.5454986    4044.9612           21 
  475000   0.87183788   -6.5322169    4049.4001           11 
  476000   0.84663732   -6.5260387    4053.1576            7 
  477000   0.86376038   -6.5303248    4048.3626           19 
  478000   0.84613022   -6.5201699    4032.6553           11 
  479000   0.85100484   -6.5283617    4050.1111           10 
  480000   0.85863242    -6.537259    4063.9233           16 
  481000   0.87014902   -6.5534326    4042.5302           11 
  482000   0.84822773   -6.5104864    4040.9405           21 
  483000   0.84058333   -6.4990918    4036.0064           32 
  484000   0.88417711   -6.5052562    4057.0034           16 
  485000    0.8397632   -6.5405662    4056.4146            9 
  486000   0.85789804   -6.5024998    4051.1161            7 
  487000    0.8509129   -6.5491319    4047.5962           12 
  488000   0.85502322   -6.5636521     4043.522            8 
  489000   0.83771036   -6.5190907    4047.6191           16 
  490000    0.8415877   -6.5459481    4052.7826            6 
  491000   0.86008577   -6.5634153    4037.1051           12 
  492000   0.85750877   -6.5164605    4056.4058           11 
  493000   0.85432199   -6.5311283     4050.163           10 
  494000   0.86640345   -6.5263927    4045.0413           13 
  495000   0.86546661   -6.5285166    4054.1008           13 
  496000   0.86314721   -6.5552201    4045.2257            9 
  497000   0.87238656   -6.5389927    4048.3446           11 
  498000   0.85483725   -6.5574798    4043.2675           11 
  499000   0.86333273   -6.4947988    4044.2883           19 
  500000   0.84863066    -6.533678     4046.812           20 
  501000    0.8440737    -6.522167      4049.78           15 
  502000    0.8647262   -6.5269021    4052.2158           19 
  503000   0.87932142   -6.5279118    4056.3307            8 
  504000   0.85247124   -6.5163834    4066.7825           18 
  505000   0.87186414   -6.5291668    4057.9288            9 
  506000   0.85592234   -6.5453813    4048.2072           12 
  507000   0.83982055   -6.5446848    4042.8878           26 
  508000   0.85169207   -6.5528493    4031.3107            5 
  509000   0.87682924   -6.5375401    4047.2667           12 
  510000   0.84744087   -6.5342561    4043.7014            9 
  511000   0.86926914   -6.5374397    4060.5162            9 
  512000   0.86749011   -6.5552633     4039.999           34 
  513000   0.85405028   -6.5296968    4029.2909           11 
  514000   0.83760443    -6.521128    4056.6315           12 
  515000   0.89037237   -6.5203963    4040.7433            8 
  516000   0.85684415   -6.5362889    4045.0924           15 
  517000   0.86964319   -6.5241601    4057.0414           26 
  518000   0.87596209   -6.5435729    4035.8798            8 
  519000   0.84061797   -6.5353617    4028.1138           13 
  520000    0.8593006    -6.521067    4044.5976            6 
  521000   0.83691795   -6.5246619    4042.1159            5 
  522000   0.85642138    -6.529461    4044.9244           12 
  523000    0.8447913   -6.5321125    4035.4542           15 
  524000   0.86026987   -6.5304272    4046.8404           15 
  525000   0.86757498   -6.5184004    4041.4365           16 
  526000   0.86794883   -6.5446275     4042.907           12 
  527000   0.84949632   -6.5289186    4036.9089           13 
  528000   0.89305232   -6.5617443    4052.4054            9 
  529000    0.8568392   -6.5479652    4031.2504            9 
  530000   0.87116064   -6.5504153    4051.2399           20 
  531000   0.86784512   -6.5470818    4033.5664           15 
  532000   0.87020778   -6.5544429    4039.6885           11 
  533000   0.85113965   -6.5228268    4048.4931            9 
  534000    0.8514419   -6.5406483    4044.8974            8 
  535000   0.85598486   -6.5211585    4046.8898           11 
  536000   0.89085408   -6.5571435    4033.8895            9 
  537000   0.86363669   -6.5186014    4049.7966           38 
  538000   0.86204049   -6.5429472    4025.3488           29 
  539000   0.85386778   -6.5301412     4031.135           24 
  540000   0.83737648   -6.5275619    4029.8565           13 
  541000   0.83915863   -6.5138172    4058.9776           13 
  542000   0.89134667   -6.5192425    4058.3641            5 
  543000   0.87103825   -6.5382512    4042.8901           19 
  544000   0.85718931   -6.5323492    4054.5623           15 
  545000   0.86485562   -6.5501812      4032.99           10 
  546000    0.8345294    -6.546212     4045.543           14 
  547000   0.84700417   -6.5274724    4047.8506           14 
  548000   0.86518429   -6.5251263    4050.8796           15 
  549000   0.84904692     -6.52509    4053.7932            6 
  550000   0.85860606    -6.525999    4043.7758            7 
  551000   0.84679782   -6.5188035    4058.1139            7 
  552000   0.86798157   -6.4966067    4048.8052            5 
  553000     0.856802   -6.5108273    4060.1498           24 
  554000   0.85567935   -6.5196258    4057.6356            8 
  555000   0.89025578   -6.5372382    4055.1986           15 
  556000   0.87184566   -6.5128673    4051.0635            6 
  557000   0.84858681   -6.5264534    4042.1061           16 
  558000   0.84330682   -6.5419467    4044.7917           20 
  559000    0.8593675   -6.5357101    4047.7139           16 
  560000   0.84288983   -6.5139312    4047.7009           20 
  561000   0.85808506   -6.5310482    4049.3238           14 
  562000   0.84423562   -6.5438551    4043.0637            8 
  563000   0.87266794   -6.5222179    4040.2153           16 
  564000   0.84847105   -6.5368118    4040.9881           11 
  565000   0.85105415   -6.5640306    4050.1076            9 
  566000   0.85187584   -6.5375918    4056.4239            8 
  567000   0.86740809   -6.5031527    4033.4733           10 
  568000   0.86579233   -6.5244994    4059.4316           15 
  569000   0.85013034   -6.5376313    4036.5576           54 
  570000    0.8518168   -6.5146458    4054.5322           13 
  571000   0.86057482   -6.5251748    4055.3877            6 
  572000   0.86518579   -6.5154678    4053.6975            7 
  573000   0.85652293   -6.5257893    4052.0559           25 
  574000   0.86022762   -6.5555707    4058.9303            5 
  575000   0.85966231   -6.5156252    4047.5001           18 
  576000   0.85193068   -6.5170642    4048.9811           12 
  577000    0.8541636   -6.5361722    4052.3076           12 
  578000   0.87207094   -6.5536305    4056.9006           13 
  579000   0.85658962   -6.5251978    4036.5977            9 
  580000   0.86879717    -6.536302    4051.9301           10 
  581000   0.84057229   -6.5778134    4024.8643           20 
  582000   0.85325992   -6.5114435    4056.7841           14 
  583000   0.85154856   -6.5230089    4044.2504           19 
  584000   0.86393222   -6.5335375    4064.1037           20 
  585000   0.85379279   -6.5238077    4043.4854           22 
  586000   0.87153791    -6.538342     4033.354           15 
  587000   0.84536114   -6.5299453    4045.1069            7 
  588000   0.84245007   -6.5475448    4040.9382           12 
  589000   0.84473863   -6.4997617    4060.4404            9 
  590000   0.86709563   -6.5315332     4042.523           12 
  591000   0.88081953   -6.5239787    4043.0422           12 
  592000   0.86471614   -6.5248513    4047.0048            8 
  593000   0.85773283   -6.5054115    4049.6876            9 
  594000   0.86147733   -6.5322899    4057.6222            9 
  595000   0.86283467   -6.5340097    4049.3747           24 
  596000   0.85916681   -6.5480812    4049.2645           14 
  597000   0.86309446    -6.550387    4057.1442           21 
  598000   0.85490555   -6.4990461    4051.1747           13 
  599000   0.85717989   -6.5335553    4040.8914            9 
  600000   0.85001928   -6.5321099    4051.3264           15 
  601000   0.85112672   -6.4946364    4049.1218           13 
  602000    0.8278398   -6.4979552    4060.2409           12 
  603000    0.8735042   -6.5475327    4041.0452           16 
  604000   0.83962281   -6.5285975    4030.9234           48 
  605000   0.85858574   -6.5467123    4054.8344           44 
  606000     0.858872   -6.5280345    4059.8963           25 
  607000   0.84503389   -6.5187145     4054.066           14 
  608000   0.84717871   -6.5216678    4067.2031           12 
  609000   0.86887376    -6.557253    4051.6156           11 
  610000   0.87169057   -6.5322608    4038.7783           14 
  611000   0.86324973    -6.551405    4039.5181           11 
  612000   0.84750741   -6.5485508    4041.1188           21 
  613000   0.87719689   -6.5263851    4059.8391            9 
  614000   0.86127812   -6.5416111    4035.6071           21 
  615000   0.84297946   -6.5301593    4048.3155           13 
  616000   0.85585117   -6.5457736    4054.9305            6 
  617000   0.86367075   -6.5444059    4044.8959           16 
  618000   0.86726272   -6.5450773     4034.163            9 
  619000   0.84042935   -6.5452164    4044.5125            7 
  620000   0.84849407   -6.5206402     4054.323            8 
  621000   0.86339328   -6.5348723    4051.6079           27 
  622000   0.86591483   -6.5155874    4038.5461            5 
  623000   0.86477381   -6.5349209     4034.534           10 
  624000   0.84363424   -6.5599882    4039.2732           23 
  625000   0.84349829   -6.5413758    4046.0978            8 
  626000   0.84529103   -6.5340092    4047.6797           18 
  627000   0.85332692   -6.5240945    4033.4836            5 
  628000   0.84197691    -6.543965    4046.4356           14 
  629000   0.88096961    -6.522273    4042.9951            7 
  630000   0.84102247   -6.5331279    4034.5195            7 
  631000   0.88114843   -6.5614538     4036.786            8 
  632000   0.86576982   -6.5146844    4060.8263           12 
  633000   0.86279394   -6.5395361    4042.5177           14 
  634000   0.87459459   -6.5350205    4038.6482            9 
  635000   0.86738315    -6.543969    4055.1932           12 
  636000     0.853986   -6.5594455    4025.0063           32 
  637000    0.8686429   -6.5281167    4055.0418            8 
  638000   0.87594726   -6.5298021    4039.6665           15 
  639000    0.8519395   -6.5493479    4040.2286           18 
  640000   0.84597612   -6.5334639    4055.4256           12 
  641000   0.85407299      -6.5103    4053.9757            9 
  642000   0.84862073     -6.55036    4042.0308            8 
  643000   0.86261168   -6.5011762    4063.5369            4 
  644000   0.85552288   -6.5322955    4058.7518           16 
  645000   0.85892743   -6.5605754    4046.3813           28 
  646000   0.86223697    -6.562181    4043.9857           18 
  647000   0.85877746   -6.5424064    4052.5757           23 
  648000   0.86756859   -6.5204467    4044.0796           11 
  649000   0.85158258   -6.5376512    4043.5927            8 
  650000   0.87233958   -6.5500935    4046.5685            9 
  651000   0.86768658   -6.4949371    4063.4243           10 
  652000   0.85299803   -6.5491544    4048.6054           19 
  653000   0.85534752   -6.5397888     4044.514           12 
  654000   0.86776796    -6.548715    4037.6115           22 
  655000   0.86645625   -6.5557385    4053.9913           12 
  656000   0.85596954   -6.5326412    4049.6067           10 
  657000   0.86272352    -6.526024    4036.1962           21 
  658000   0.85435042   -6.5219194    4051.1553            7 
  659000   0.86639537   -6.5271886    4046.0987            7 
  660000   0.85297855   -6.5248143    4049.3958           61 
  661000   0.86218768   -6.5284073    4048.8245           23 
  662000   0.87126269   -6.5500649    4051.2114           11 
  663000    0.8633551   -6.5285403    4047.0788           14 
  664000   0.85289304   -6.5215025    4036.8169            9 
  665000   0.86774286   -6.5356271    4045.5309           17 
  666000   0.86307873   -6.5285071    4048.8299           20 
  667000   0.85761536   -6.5635043    4047.0048           11 
  668000   0.84721645   -6.5459258    4038.4067            9 
  669000   0.85858862   -6.5438259    4050.9972           12 
  670000   0.85197265   -6.5385552    4043.7875           24 
  671000   0.87324908   -6.5129918    4044.8773            9 
  672000   0.86887816   -6.5538477    4041.4624           22 
  673000   0.85385696   -6.5167385    4051.7554            6 
  674000   0.86242617   -6.5520576    4046.3875           12 
  675000   0.86069787   -6.5069098    4058.9377           15 
  676000   0.88051842   -6.5184871    4057.8225           15 
  677000   0.86800075   -6.5166757    4048.6302            6 
  678000   0.86328152   -6.5344885    4042.4951           19 
  679000   0.88311096   -6.5632753    4050.1581           31 
  680000   0.87662594   -6.5541989    4043.4671           35 
  681000   0.87913298   -6.5395394    4055.1079           13 
  682000   0.86321244   -6.5265839    4058.2152           18 
  683000   0.83644171   -6.5278629    4037.7416           13 
  684000    0.8552993   -6.5144479    4044.7644           15 
  685000   0.85317794   -6.5260049    4058.7657           15 
  686000   0.85342456   -6.5212596    4048.6496            9 
  687000   0.86575444   -6.5133854     4055.441           12 
  688000   0.86389257   -6.5358384    4035.9154           19 
  689000   0.87629707   -6.5164991    4044.0142            6 
  690000   0.86561919   -6.5257966    4039.0118           10 
  691000   0.84602829   -6.5443625    4056.3956           11 
  692000   0.86182298   -6.5352171    4062.2729           12 
  693000   0.84920159   -6.5148194    4051.5787           10 
  694000   0.84697562   -6.5313742    4045.2694           14 
  695000   0.85376506   -6.5104527    4040.9974            5 
  696000    0.8590695   -6.5413729    4048.3705           16 
  697000   0.84535724   -6.5234659    4052.5185           13 
  698000   0.84665266   -6.5169232    4055.4003           19 
  699000   0.86211753   -6.5200721     4043.132           17 
  700000   0.85261995    -6.531582    4046.9429           12 
  701000   0.85157383   -6.5064933    4036.4052           17 
  702000   0.86116868   -6.5686537    4035.7973           14 
  703000   0.85703864    -6.541707     4033.962            8 
  704000   0.85236415   -6.5483367    4052.3802           20 
  705000   0.84341133   -6.5351528    4031.6479            9 
  706000   0.86338056   -6.5287317    4046.8671            6 
  707000   0.84594444   -6.5226596    4039.8214           27 
  708000   0.85857391     -6.52497     4056.064           25 
  709000   0.86718497   -6.5416662     4057.023           10 
  710000   0.84916987   -6.5208093    4050.0642           50 
  711000   0.85440751   -6.5303463    4045.6361           21 
  712000   0.86535998   -6.5519118     4045.914           18 
  713000   0.85607491   -6.5350705    4054.1821           13 
  714000   0.84778991    -6.553907    4055.0633           27 
  715000    0.8554912    -6.518875     4053.879           18 
  716000   0.85495295   -6.5568733    4047.3486           12 
  717000    0.8436662   -6.5266476    4056.6934           14 
  718000   0.84996065   -6.5439031    4031.6826            9 
  719000   0.84931937   -6.5259884    4052.0652            8 
  720000   0.85633794   -6.5555675    4047.2663           20 
  721000   0.86524703   -6.5190126    4045.7867           10 
  722000   0.85269562    -6.534107    4049.9135           10 
  723000   0.86402408   -6.5462743    4052.4826            8 
  724000   0.86320513   -6.5412022    4041.0774           10 
  725000   0.86220219   -6.5219171    4058.3602           17 
  726000   0.85970203   -6.5156498    4053.3766            7 
  727000   0.88755206   -6.5347484     4045.881           10 
  728000   0.88111924   -6.5327865    4052.1295           11 
  729000   0.87495211   -6.5447989     4032.489           20 
  730000   0.85449828    -6.513835    4054.4088           13 
  731000   0.85252084   -6.5322822    4046.6383           10 
  732000   0.86576946   -6.5629606    4044.8255           11 
  733000   0.85694967    -6.506736    4048.3158           34 
  734000   0.87120199   -6.5372325    4054.4968           10 
  735000   0.85755654   -6.5302661    4060.7722           12 
  736000     0.861166   -6.5347071    4057.6229           14 
  737000   0.85194722   -6.5467777    4046.2001            7 
  738000   0.86484029   -6.5183737      4046.31           18 
  739000   0.85717502    -6.510505    4060.0265           13 
  740000   0.84994048   -6.5377236    4038.8903           18 
  741000   0.86803132   -6.5426297     4046.629           12 
  742000   0.86708612   -6.5370575    4031.9734           12 
  743000   0.86247349   -6.5605135    4037.0252           11 
  744000   0.84179948    -6.522321    4052.2231           13 
  745000   0.84718288   -6.5468037    4049.2922            9 
  746000   0.85696087   -6.5050818    4032.2299            7 
  747000   0.90072521   -6.5231247    4045.8514           13 
  748000   0.86733503   -6.5268609    4051.7556           18 
  749000   0.87369425   -6.5323286    4041.2809           10 
  750000   0.86213311   -6.5079345    4038.1691            6 
  751000   0.86201116   -6.5423149    4035.4292           19 
  752000   0.85985885    -6.542137    4040.5491           19 
  753000   0.85072295   -6.5284026    4037.0057            7 
  754000    0.8440649   -6.5340145    4033.0213           11 
  755000   0.88117135   -6.5605218    4052.4647           24 
  756000   0.86238097   -6.5053132     4061.156            9 
  757000   0.87860807   -6.5310981    4046.6183            6 
  758000    0.8752645    -6.540195    4044.1202            7 
  759000   0.85595235   -6.5277777    4041.6384            8 
  760000   0.85734155   -6.5335332    4058.4316           23 
  761000   0.85823417   -6.5371131    4044.3055           16 
  762000   0.87203325   -6.5206519    4061.1617           19 
  763000   0.83299393   -6.5206738    4037.8473           12 
  764000   0.86272677   -6.5124511    4049.0472           11 
  765000   0.85474881   -6.5097254     4037.516            4 
  766000   0.86426745   -6.5510965    4042.7612           19 
  767000   0.88297756   -6.5281503    4045.0876           38 
  768000   0.84851808   -6.5512359    4034.7559           12 
  769000   0.86368409    -6.560236    4044.9449           12 
  770000   0.84099371   -6.5037348     4034.517           15 
  771000   0.85742587   -6.5369703    4058.4284           13 
  772000   0.87093673   -6.5065217    4041.5212            8 
  773000   0.85608233   -6.5182292    4048.5093           17 
  774000   0.85978022   -6.5287189    4043.5738           20 
  775000   0.86738598   -6.4935988    4045.2421           13 
  776000   0.87315239   -6.5169799    4044.6614            7 
  777000   0.85439935   -6.5651006    4027.0447           13 
  778000    0.8457801   -6.5165275    4049.2615           12 
  779000   0.86804273   -6.5115935    4054.9215           10 
  780000   0.86012723   -6.5394738    4037.6083           10 
  781000   0.86725336    -6.519322    4064.7424           11 
  782000   0.86362699   -6.5476916     4063.535           11 
  783000    0.8509638   -6.5022857    4059.9513           18 
  784000   0.86813673   -6.5453451    4051.0929           22 
  785000   0.85415744   -6.5475632    4043.6079           20 
  786000    0.8711188    -6.550624    4048.8678           19 
  787000   0.86240633   -6.5244934    4050.8466           12 
  788000   0.83023322   -6.5336441    4048.8202            9 
  789000   0.86388512   -6.5382427    4038.9897           12 
  790000   0.86889363   -6.5104397    4041.2079           10 
  791000   0.86185532   -6.4990307    4053.0499           12 
  792000   0.85100523   -6.5369285    4047.7066           12 
  793000   0.85223285   -6.5634617    4048.0215            9 
  794000   0.85592286   -6.5461645    4045.3554           30 
  795000   0.88017853    -6.564561    4068.3148           24 
  796000   0.86666034   -6.5222862    4054.3849           11 
  797000    0.8577697   -6.5226107    4042.0456           23 
  798000    0.8520782    -6.532291    4048.0655           13 
  799000   0.85327681   -6.5100605    4056.3648            8 
  800000   0.86875674   -6.5023713     4056.297            5 
  801000   0.83512779   -6.5490784    4055.1344            4 
  802000   0.86369717   -6.5340616    4040.1459           16 
  803000   0.85294063   -6.5514503    4059.5426           11 
  804000   0.87067569   -6.5133815    4059.2451            9 
  805000   0.84193813   -6.5447841    4061.1908           30 
  806000   0.85734524   -6.5454556    4044.8733            8 
  807000   0.85091596   -6.5244653    4060.1444            9 
  808000   0.83633962   -6.5528324    4055.1674           13 
  809000    0.8686456     -6.54302    4036.2492           22 
  810000   0.86567321   -6.5401916    4042.5856            8 
  811000   0.88381578   -6.5325835    4049.6266           12 
  812000    0.8649894   -6.5339984    4046.6029            5 
  813000    0.8924146   -6.5903548    4028.4478            8 
  814000   0.86955444   -6.5033643    4053.2365           10 
  815000   0.86068821   -6.5123918    4048.2803            8 
  816000   0.84267819   -6.5310146    4047.1327           19 
  817000   0.87369906   -6.5128958    4050.7889            8 
  818000   0.85788449   -6.5596397    4044.4466           12 
  819000   0.85934197   -6.5422118    4038.9895           23 
  820000   0.84269604   -6.5374514    4034.4725           18 
  821000   0.86456029   -6.5292452    4041.1554           26 
  822000   0.86199644   -6.5347427    4058.3294           14 
  823000   0.86508249   -6.5304463    4050.9653           21 
  824000   0.86878462   -6.5298475     4032.217           17 
  825000   0.85581944   -6.5592275    4044.0704            9 
  826000   0.86579538   -6.5547713    4050.9149           13 
  827000   0.87422382   -6.5326285    4048.1657            7 
  828000   0.87595013    -6.529871    4045.6301           10 
  829000   0.86765248    -6.547122    4052.8016           15 
  830000   0.86221675   -6.5358226    4039.9297            5 
  831000   0.84369332   -6.5194218     4064.525           14 
  832000   0.86646065   -6.5373429    4059.6697           15 
  833000   0.87097828   -6.5386678    4042.2694           13 
  834000   0.84569652   -6.5123549    4044.2832            9 
  835000   0.84428481   -6.5336082    4046.9461           11 
  836000    0.8608498   -6.5598144    4047.6782           12 
  837000   0.85813175   -6.5151872    4050.8463           18 
  838000   0.84279239   -6.5268111    4043.3638            5 
  839000   0.85368808    -6.524462    4054.3321           18 
  840000    0.8559591   -6.5072151    4044.7801           17 
  841000   0.83933047   -6.5103445    4042.3026            7 
  842000   0.87293502   -6.5084243    4045.4331           15 
  843000   0.85498987   -6.5141614    4045.4754           21 
  844000   0.85414686   -6.5238099     4064.474           12 
  845000   0.84349705   -6.5327494    4042.1307            8 
  846000   0.84239486   -6.5129259    4046.3922            8 
  847000   0.87272272   -6.5273184    4040.7458           29 
  848000   0.85067492   -6.5425853    4050.4265           35 
  849000   0.85478806   -6.5386619    4042.3684           20 
  850000   0.87006329   -6.5114104    4049.9309            8 
  851000   0.86527604   -6.5572517    4047.8981           26 
  852000    0.8431785   -6.4948757    4044.3378           11 
  853000   0.87630176   -6.5004466    4061.1434           17 
  854000   0.86244073   -6.5415722    4038.6409           13 
  855000   0.86647119   -6.5809285    4034.2664           24 
  856000   0.86476923   -6.5079277    4046.7532           25 
  857000   0.85667874   -6.5681839    4057.5214           21 
  858000   0.87482884   -6.5232085    4062.2335           13 
  859000   0.85836283   -6.5567179    4037.3947           12 
  860000    0.8451156   -6.5336079    4031.9436            6 
  861000   0.83959957     -6.52445    4042.3885            6 
  862000   0.87159137   -6.5151732     4046.935           16 
  863000   0.88327241    -6.505255    4043.4231           23 
  864000   0.87994879   -6.5362857    4051.4397           53 
  865000   0.84890302   -6.5434459    4046.6398           18 
  866000   0.85912893   -6.5279282    4048.7744           20 
  867000   0.86879104   -6.5165724    4045.2723            7 
  868000   0.85304293   -6.5257875    4051.4582            5 
  869000   0.86415308   -6.5086417    4040.6631           17 
  870000   0.84672058   -6.5182766    4047.9647           11 
  871000   0.86168972    -6.532226    4059.8191           10 
  872000   0.85246401   -6.5273533    4046.8253           25 
  873000   0.86574628   -6.5226562    4049.2103           10 
  874000   0.85969958   -6.5426091    4043.6676           15 
  875000   0.86288122   -6.5318384      4040.72           13 
  876000   0.86035063   -6.5517188    4060.7893           12 
  877000   0.83166995    -6.541083    4052.3621           11 
  878000   0.84878029    -6.539447    4042.2374            8 
  879000   0.87314286   -6.5140651    4052.1903           17 
  880000   0.87624548   -6.5420716     4059.172            6 
  881000   0.84721836   -6.5476475    4032.5712           17 
  882000   0.87109472   -6.5324751    4059.3531           13 
  883000   0.83945832   -6.5298167     4049.164           21 
  884000   0.85513202   -6.5145494    4050.0202           13 
  885000    0.8559694   -6.5389436    4056.8957           10 
  886000   0.86632024   -6.5479765     4044.552           15 
  887000    0.8640929   -6.5172018    4051.8688           10 
  888000   0.87430096    -6.575032    4032.7758           28 
  889000   0.86245916   -6.5263998    4037.7341           19 
  890000   0.87558625   -6.5362812    4044.3209           25 
  891000   0.87424019   -6.5481067    4047.5434           26 
  892000   0.86170027   -6.5515829    4040.0159           12 
  893000   0.84897959    -6.528413    4049.8652           15 
  894000   0.88941329   -6.5302532    4043.7175           13 
  895000   0.87317739   -6.5397615    4045.8518            5 
  896000   0.86030784   -6.5571271    4043.9158           11 
  897000   0.84385836   -6.5521125    4043.7092            8 
  898000   0.87783232   -6.5608937    4047.8897           25 
  899000   0.85812597   -6.5512354     4040.201            9 
  900000   0.85806008   -6.5156397    4051.1393           11 
  901000   0.86877826   -6.5150133    4052.6324           14 
  902000   0.86414577   -6.5104067    4056.7469           14 
  903000    0.8654591   -6.5184242    4047.1368           14 
  904000   0.84844894   -6.5561016    4052.6503           23 
  905000   0.86310934   -6.5478997    4044.9918           11 
  906000   0.85465283   -6.5452268    4038.0425           34 
  907000   0.85678565   -6.5607388    4052.3519           11 
  908000   0.85930512   -6.5354544    4057.9908           24 
  909000   0.84935374   -6.5204154    4055.0911           14 
  910000   0.87272688   -6.5303771    4053.3377           20 
  911000   0.87133597   -6.5416541    4054.6215           12 
  912000   0.84693472   -6.5178693     4042.662           16 
  913000   0.85347172   -6.5262332    4043.8245            5 
  914000   0.87503243   -6.5135827    4057.2424           16 
  915000   0.84017464   -6.5435808    4061.4937           14 
  916000   0.85575576   -6.5040382    4057.7135           13 
  917000   0.83021915   -6.5348651    4049.3838           13 
  918000   0.86764038   -6.5541915    4046.3135            8 
  919000   0.86135903   -6.5377186    4045.7413           17 
  920000   0.87135626   -6.5247764    4048.8748            9 
  921000   0.84845362    -6.538754    4050.7904           10 
  922000   0.85546455   -6.5533141    4046.6924           19 
  923000   0.86073405   -6.5397371    4043.6473           16 
  924000   0.87831791   -6.5604118    4039.5974           16 
  925000   0.84729579    -6.563884    4048.0606           41 
  926000   0.87085664     -6.54003    4040.8975           12 
  927000   0.85073526   -6.5521879    4043.3876           16 
  928000   0.84345439   -6.5255132    4058.5775           10 
  929000   0.85992508   -6.5565482    4034.7034           23 
  930000    0.8514935   -6.5519698    4046.6728           10 
  931000   0.86231788   -6.5179283    4048.1613            9 
  932000   0.86141763   -6.5401354    4054.7451            8 
  933000   0.86588521   -6.5297969    4042.7362           10 
  934000   0.85133292   -6.5267605    4049.4534           11 
  935000   0.87638539   -6.5218553    4059.3943           10 
  936000    0.8495972   -6.5016054    4046.3434           11 
  937000   0.84291592   -6.5328443    4042.0189            8 
  938000   0.84468899   -6.5671832    4040.4786           29 
  939000   0.84674062   -6.5067893    4054.8817           26 
  940000   0.85576198   -6.5066262    4053.4443            8 
  941000   0.85227901    -6.519049    4053.0946           22 
  942000   0.86007353   -6.5541356    4049.1082           13 
  943000   0.85875678   -6.5534486    4042.1965            8 
  944000   0.84724659   -6.5363039    4050.2658           11 
  945000   0.88857522   -6.5037708    4047.9685           11 
  946000   0.86036139   -6.5230309    4049.6988            9 
  947000   0.88208184   -6.5322875    4044.9621            9 
  948000   0.85862884   -6.5281643    4039.5406           21 
  949000   0.84127601   -6.5183903    4052.9615           23 
  950000   0.85278283   -6.5204385    4043.1474           20 
  951000   0.88099053   -6.5405011    4044.3558            9 
  952000   0.88461714   -6.5140066    4053.4057           20 
  953000   0.88387217   -6.5681652    4043.9376           14 
  954000   0.86595708   -6.5090068    4044.5634           33 
  955000   0.85440215   -6.5505911    4054.8115           15 
  956000   0.84466004   -6.5132664    4048.0847           35 
  957000   0.85620295   -6.5236744    4054.4732           11 
  958000   0.85935455   -6.5124786    4039.0071           12 
  959000   0.83775918   -6.5339588    4052.1819           12 
  960000   0.86198669   -6.5183076    4045.7733           12 
  961000   0.87602901   -6.5468176    4052.9981           19 
  962000   0.85942183   -6.4931938    4058.4071           11 
  963000   0.86477654   -6.5598881    4039.8889            8 
  964000   0.85829626   -6.5418945    4049.7303           11 
  965000   0.84218363   -6.5184823    4054.1875            9 
  966000   0.85424764   -6.5097025    4061.8482            7 
  967000   0.85469142   -6.5534324    4057.8678            8 
  968000   0.84515407   -6.5288733    4057.9236            6 
  969000   0.85225446   -6.5344414    4048.7938           16 
  970000   0.87465204    -6.532914    4047.5072           19 
  971000   0.85215074     -6.54058    4065.6789           32 
  972000   0.87001879   -6.5405406    4042.7292           16 
  973000    0.8832728   -6.5385521     4051.842           18 
  974000   0.86892213   -6.5669545    4044.0491           23 
  975000    0.8520333   -6.5245662    4049.2834           12 
  976000   0.86394471   -6.5425583    4022.6582           13 
  977000   0.85677222   -6.4964599    4054.2376           26 
  978000   0.87182318   -6.5423648    4038.8546           14 
  979000   0.86443606   -6.5212582    4050.8799           10 
  980000   0.85419064   -6.5112783    4040.2707           12 
  981000   0.86949096   -6.5433991    4052.8066           10 
  982000   0.86455203   -6.5198389    4055.8042           14 
  983000    0.8652043   -6.5222098     4037.933           14 
  984000   0.87956574   -6.4892183     4047.477           11 
  985000   0.83285523    -6.515644    4049.3705           21 
  986000   0.86194182   -6.5322276    4038.2903           18 
  987000    0.8683997   -6.5369756    4043.3845           10 
  988000   0.85642179   -6.5111354    4055.4174           16 
  989000    0.8485852   -6.5184673    4049.4464           11 
  990000   0.86201318   -6.5590596    4040.8467           30 
  991000   0.85991682   -6.5223323    4053.5376           14 
  992000    0.8715193    -6.541307     4035.845            7 
  993000   0.86726389   -6.5224608     4036.946           21 
  994000   0.85006076   -6.5440869    4044.6124            4 
  995000    0.8650679   -6.5586422    4048.9497            7 
  996000   0.86109339   -6.5427362    4052.5412           11 
  997000    0.8393268   -6.5287557    4052.4467           32 
  998000   0.86991725   -6.5553681    4053.9572           20 
  999000   0.87322505   -6.5535486     4045.562           22 
 1000000   0.87624311   -6.5603202    4060.5009           16 
 1001000   0.88606087   -6.5324893    4042.8956           31 
 1002000   0.85555164   -6.5300781    4058.7447           13 
 1003000   0.84055289   -6.5360888    4046.2424           38 
 1004000   0.86094966   -6.5156859    4040.6333           22 
Loop time of 2088.91 on 48 procs for 1000000 steps with 4000 atoms

Performance: 82722.537 tau/day, 478.718 timesteps/s
99.4% CPU use with 48 MPI tasks x no OpenMP threads

MPI task timing breakdown:
Section |  min time  |  avg time  |  max time  |%varavg| %total
---------------------------------------------------------------
Pair    | 130.31     | 137.42     | 148.92     |  49.9 |  6.58
Neigh   | 13.705     | 13.855     | 14.059     |   1.9 |  0.66
Comm    | 111.8      | 123.25     | 131.59     |  48.5 |  5.90
Output  | 1.2589     | 1.2602     | 1.2775     |   0.2 |  0.06
Modify  | 1782.9     | 1791.5     | 1802.7     |  12.1 | 85.76
Other   |            | 21.58      |            |       |  1.03

Nlocal:        83.3333 ave          91 max          76 min
Histogram: 1 1 4 7 13 5 12 1 1 3
Nghost:        1632.44 ave        1651 max        1623 min
Histogram: 6 12 8 4 2 7 5 2 1 1
Neighs:        9448.15 ave       10335 max        8638 min
Histogram: 2 2 7 6 10 8 5 5 2 1
FullNghs:      18895.8 ave       20785 max       17236 min
Histogram: 1 1 8 8 10 12 3 1 3 1

Total # of neighbors = 906999
Ave neighs/atom = 226.74975
Neighbor list builds = 55430
Dangerous builds = 0

#clear
#
#next RN
#
#jump SELF
Total wall time: 0:34:50
