
units lj                  # Use reduced LJ style units
atom_style atomic         # Uncharged point particles
atom_modify map hash      # Needed for indexing of clusters etc
                          # Used to be able to find where atoms are in relation to each other.

# Define a lattice with which to populate the simulation cell. With units
# set to 'lj' the second argument to the lattice command is the reduced
# density rho* and the spacings are multiples of that required to acheive
# that density. Also define a simulation cell called 'box' in lattice units
# and fill it with atoms. Here we're creating a box which is ten lattice
# constants in each direction.
lattice fcc 1.0 spacing 1 1 1                 # All equal sizes - gives the right reduced density.
Lattice spacing in x,y,z = 1.5874011 1.5874011 1.5874011

region box block 0 10 0 10 0 10 units lattice # Defines a region, "box", in lattice units
create_box 1 box                              # Creates a simulation box as specified above,
Created orthogonal box = (0.0000000 0.0000000 0.0000000) to (15.874011 15.874011 15.874011)
  2 by 3 by 3 MPI processor grid
                                              # with one type of atom
create_atoms 1 box                            # Creates particles on lattice points
Created 4000 atoms
  using lattice units in orthogonal box = (0.0000000 0.0000000 0.0000000) to (15.874011 15.874011 15.874011)
  create_atoms CPU = 0.002 seconds


# Set the mass of the first (and only) atom type.
mass 1 1.0

# Lennard-Jones interactions between particles, 3.5 sigma cut-off. Apply
# long range tail corrections to energy and pressure and set all coefficients
# to unity since we work in reduced units here. Note that this doesn't shift
# the potential such that it goes to zero at the cutoff. That would require
# pair_modify('shift', 'yes').
pair_style lj/cut  3.5      # non-GPU version
pair_modify tail  yes
pair_coeff 1  1  1.0  1.0   # Intearaction between 1 and 1 set with epsilon = 1 and sigma = 1

write_data data.*
System init for write_data ...
Neighbor list info ...
  update every 1 steps, delay 10 steps, check yes
  max neighbors/atom: 2000, page size: 100000
  master list distance cutoff = 3.8
  ghost atom cutoff = 3.8
  binsize = 1.9, bins = 9 9 9
  1 neighbor lists, perpetual/occasional/extra = 1 0 0
  (1) pair lj/cut, perpetual
      attributes: half, newton on
      pair build: half/bin/atomonly/newton
      stencil: half/bin/3d
      bin: standard

#############################
#   M E L T   S Y S T E M   #
#############################

velocity all create 2.4 9580093 mom yes dist gaussian # Assign velocities
                                                    # Temperature 2.4, random number seed, zero linear momentum
						                                                        # Gaussian distribution

timestep 0.002   # simulation timestep
thermo 100       # output thermodynamic data every 100 steps

# Define a fix  in this case with index 1 applied to all
# particles in the simulation. This fix is for simulations
# in the anisotropic NPT ensemble. Note that we use the MTK
# correction.
fix 1 all npt temp 2.4 2.4 0.1 iso 5.68 5.68 0.5 mtk yes tchain 5 pchain 5 # Use NPT ensemble
                                                                         # Set temperature and pressure and damping
                                                                         # Numbers of thermostats in chain and in barostat
run 1000         # run for 10000 steps
Per MPI rank memory allocation (min/avg/max) = 3.680 | 3.683 | 3.691 Mbytes
Step Temp E_pair E_mol TotEng Press Volume 
       0          2.4   -8.3859253            0   -4.7868253   -2.2405722         4000 
     100     1.259173   -6.5129234            0   -4.6246361    5.4934905    4087.7331 
     200    1.4428249   -6.2687115            0   -4.1050152    6.0785122    4146.9382 
     300    1.5891892   -6.0266188            0   -3.6434309    5.7981853    4270.6634 
     400    1.6864341   -5.7131876            0   -3.1841689    5.8606885    4403.8234 
     500    1.7726955   -5.3925361            0   -2.7341577    6.0308441    4545.5702 
     600    1.8621927   -5.1101682            0   -2.3175776     5.891941    4707.0977 
     700    2.0370972   -4.9322753            0   -1.8773933    5.7586815    4836.4856 
     800     2.148017   -4.7251145            0   -1.5038945     5.695937    4973.8339 
     900    2.2849312   -4.5953229            0    -1.168783    5.5901698    5080.7682 
    1000    2.3668384   -4.4671643            0  -0.91779423    5.6325458    5159.4021 
Loop time of 0.563409 on 18 procs for 1000 steps with 4000 atoms

Performance: 306704.287 tau/day, 1774.909 timesteps/s
99.5% CPU use with 18 MPI tasks x no OpenMP threads

MPI task timing breakdown:
Section |  min time  |  avg time  |  max time  |%varavg| %total
---------------------------------------------------------------
Pair    | 0.31721    | 0.34413    | 0.37297    |   2.2 | 61.08
Neigh   | 0.062114   | 0.064878   | 0.068296   |   0.6 | 11.52
Comm    | 0.097615   | 0.12671    | 0.15286    |   3.6 | 22.49
Output  | 0.00021879 | 0.00022705 | 0.00029325 |   0.0 |  0.04
Modify  | 0.021442   | 0.024568   | 0.028025   |   1.2 |  4.36
Other   |            | 0.002901   |            |       |  0.51

Nlocal:        222.222 ave         234 max         215 min
Histogram: 2 2 2 5 2 2 0 2 0 1
Nghost:        2027.72 ave        2047 max        2008 min
Histogram: 2 2 2 2 0 1 3 3 1 2
Neighs:        19701.2 ave       20972 max       19058 min
Histogram: 4 2 5 1 2 0 1 0 2 1

Total # of neighbors = 354621
Ave neighs/atom = 88.655250
Neighbor list builds = 86
Dangerous builds = 13

# Equilibrate just above the melting temperature to avoid step fn in T

fix 1 all npt temp 1.25 1.25 0.1 iso 5.68 5.68 0.5 mtk yes tchain 5 pchain 5
run 1000
Per MPI rank memory allocation (min/avg/max) = 3.680 | 3.684 | 3.691 Mbytes
Step Temp E_pair E_mol TotEng Press Volume 
    1000    2.3668384   -4.4671643            0  -0.91779423    5.6325458    5159.4021 
    1100    1.9574321   -4.6876242            0   -1.7522101     5.742239    4978.1866 
    1200    1.7073045   -4.9488657            0   -2.3885491    5.6650364    4816.0505 
    1300    1.5538685   -5.2008727            0   -2.8706526    5.5388719    4686.2818 
    1400    1.4591125   -5.3988943            0   -3.2107727    5.7038561    4562.2733 
    1500    1.3734001   -5.5325252            0     -3.47294    5.7668218    4485.3709 
    1600    1.3312993   -5.6768418            0    -3.680392    5.7740875    4414.4243 
    1700    1.2798366    -5.761926            0    -3.842651    5.6016442    4388.0724 
    1800    1.2633462   -5.8402242            0   -3.9456787    5.5372513    4356.6355 
    1900    1.2453639    -5.852051            0   -3.9844721    5.6853926     4338.989 
    2000     1.269018    -5.839491            0   -3.9364398    5.7926253    4334.2464 
Loop time of 0.540505 on 18 procs for 1000 steps with 4000 atoms

Performance: 319700.728 tau/day, 1850.120 timesteps/s
99.8% CPU use with 18 MPI tasks x no OpenMP threads

MPI task timing breakdown:
Section |  min time  |  avg time  |  max time  |%varavg| %total
---------------------------------------------------------------
Pair    | 0.32475    | 0.34355    | 0.36102    |   1.6 | 63.56
Neigh   | 0.054702   | 0.056899   | 0.059335   |   0.5 | 10.53
Comm    | 0.094803   | 0.11136    | 0.12879    |   2.8 | 20.60
Output  | 0.0002235  | 0.00023222 | 0.00029726 |   0.0 |  0.04
Modify  | 0.022498   | 0.025152   | 0.029475   |   1.3 |  4.65
Other   |            | 0.003314   |            |       |  0.61

Nlocal:        222.222 ave         232 max         213 min
Histogram: 1 1 3 3 0 4 2 2 1 1
Nghost:        2247.39 ave        2263 max        2230 min
Histogram: 2 1 1 3 2 0 1 4 3 1
Neighs:        23426.6 ave       25065 max       21406 min
Histogram: 1 1 1 3 1 4 2 2 1 2

Total # of neighbors = 421679
Ave neighs/atom = 105.41975
Neighbor list builds = 75
Dangerous builds = 6


# Small amount of linear quench

fix 1 all npt temp 1.25 ${temp} 0.1 iso 5.68 5.68 0.5 mtk yes tchain 5 pchain 5
fix 1 all npt temp 1.25 2 0.1 iso 5.68 5.68 0.5 mtk yes tchain 5 pchain 5
run 2000
Per MPI rank memory allocation (min/avg/max) = 3.680 | 3.684 | 3.691 Mbytes
Step Temp E_pair E_mol TotEng Press Volume 
    2000     1.269018    -5.839491            0   -3.9364398    5.7926253    4334.2464 
    2100     1.273317   -5.8381519            0   -3.9286539     5.678978    4346.9919 
    2200    1.2855207   -5.7711943            0   -3.8433953      5.79309    4362.3042 
    2300     1.317837    -5.735426            0   -3.7591647    5.6861638    4391.0751 
    2400    1.3394606   -5.6872903            0   -3.6786017    5.5747888    4427.1162 
    2500    1.4043773   -5.6642929            0   -3.5582537    5.5415434    4442.8736 
    2600    1.4424659   -5.5659084            0   -3.4027505    6.2282871    4428.9451 
    2700    1.4750448   -5.5294664            0   -3.3174523    5.9219131    4476.9189 
    2800    1.5089454   -5.4942428            0   -3.2313906    5.6231624    4522.1157 
    2900    1.5266326   -5.4381535            0    -3.148777    5.4621607     4564.265 
    3000    1.5801992   -5.3822798            0   -3.0125735    5.5872149     4582.935 
    3100    1.6459806   -5.3443756            0   -2.8760219    5.6962867    4596.7476 
    3200    1.6625478   -5.2953479            0   -2.8021496    5.5461618    4638.5462 
    3300    1.6813887   -5.2116587            0   -2.6902062    5.5444266    4685.8703 
    3400    1.7552547   -5.1885952            0   -2.5563714    5.6900724     4687.989 
    3500    1.7488726   -5.0604875            0   -2.4378345    5.9774196    4720.3024 
    3600    1.8366179   -5.0693512            0    -2.315113    5.7118812     4753.034 
    3700    1.8387968   -4.9966063            0   -2.2391007    5.5797074    4807.4451 
    3800    1.9101945   -4.9787798            0   -2.1142044    5.5742644    4826.1486 
    3900    1.9446288   -4.9087805            0   -1.9925665    5.7195012    4847.2433 
    4000    1.9287649   -4.8034482            0   -1.9110241    5.8357415    4888.7228 
Loop time of 1.08404 on 18 procs for 2000 steps with 4000 atoms

Performance: 318805.967 tau/day, 1844.942 timesteps/s
99.7% CPU use with 18 MPI tasks x no OpenMP threads

MPI task timing breakdown:
Section |  min time  |  avg time  |  max time  |%varavg| %total
---------------------------------------------------------------
Pair    | 0.6481     | 0.68553    | 0.73239    |   2.4 | 63.24
Neigh   | 0.11419    | 0.11691    | 0.12135    |   0.5 | 10.79
Comm    | 0.17822    | 0.22466    | 0.25436    |   3.8 | 20.72
Output  | 0.00042746 | 0.00044679 | 0.0005803  |   0.0 |  0.04
Modify  | 0.044901   | 0.050063   | 0.06022    |   2.2 |  4.62
Other   |            | 0.006437   |            |       |  0.59

Nlocal:        222.222 ave         234 max         216 min
Histogram: 2 3 2 5 2 2 1 0 0 1
Nghost:        2087.11 ave        2105 max        2072 min
Histogram: 2 2 1 2 4 2 2 0 1 2
Neighs:        20772.8 ave       23232 max       19537 min
Histogram: 3 5 1 2 4 1 0 1 0 1

Total # of neighbors = 373911
Ave neighs/atom = 93.477750
Neighbor list builds = 152
Dangerous builds = 0

#############################
# F R E E Z E  S Y S T E M  #
#############################

# Define solid atoms. This closely follows ten Wolde  Ruiz-Montero and Frenkel  Faraday Discuss  1996  104  93-110
# Compute components of the per-atom q6 vector
compute q6 all orientorder/atom degrees 1 6 components 6 nnn NULL cutoff 1.3 # compute the Q6 parameter.
                                                                             # Use all neighbours within 1.3 unit cell.

# get number of connections
compute coord_number all coord/atom orientorder q6 0.5

# An atom is solid if it has 8 or more connections (of a possible 14)
variable is_solid atom c_coord_number>=8
group solid dynamic all var is_solid    # Must be dynamic to update
dynamic group solid defined

# do clustering
compute cluster solid cluster/atom 1.3 # Create a cluster where all atoms within are solid and max 1.3 units from another member

# define chunks one chunk per cluster
compute clus_chunks solid chunk/atom c_cluster nchunk every compress yes  # Says which atoms are in which chunk

# count the size of each chunk
compute size_chunks solid property/chunk clus_chunks count


# Find the maximum entry in the vector of chunk sizes
variable max_n equal max(c_size_chunks)


# Thermo style which includes this variable
thermo_style custom step temp pe vol v_max_n

thermo ${N}  # Print the thermo information every 100 steps
thermo 100  

# Reset the npt fix at a lower temperature (below freezing)
fix 1  all npt temp  ${temp} ${temp}  0.1  iso  5.68  5.68  0.5  mtk yes tchain  5  pchain  5
fix 1  all npt temp  2 ${temp}  0.1  iso  5.68  5.68  0.5  mtk yes tchain  5  pchain  5
fix 1  all npt temp  2 2  0.1  iso  5.68  5.68  0.5  mtk yes tchain  5  pchain  5

dump dmp2 all dcd ${N} traj_${rand}.dcd
dump dmp2 all dcd 100 traj_${rand}.dcd
dump dmp2 all dcd 100 traj_462431.dcd


# fix rnuntil all halt ${N} v_max_n >= 3980 error soft message no   # Stop when solidified


run 100000 # 5000000  # Run for this many steps
Neighbor list info ...
  update every 1 steps, delay 10 steps, check yes
  max neighbors/atom: 2000, page size: 100000
  master list distance cutoff = 3.8
  ghost atom cutoff = 3.8
  binsize = 1.9, bins = 9 9 9
  4 neighbor lists, perpetual/occasional/extra = 1 3 0
  (1) pair lj/cut, perpetual
      attributes: half, newton on
      pair build: half/bin/atomonly/newton
      stencil: half/bin/3d
      bin: standard
  (2) compute orientorder/atom, occasional
      attributes: full, newton on
      pair build: full/bin/atomonly
      stencil: full/bin/3d
      bin: standard
  (3) compute coord/atom, occasional
      attributes: full, newton on
      pair build: full/bin/atomonly
      stencil: full/bin/3d
      bin: standard
  (4) compute cluster/atom, occasional
      attributes: full, newton on
      pair build: full/bin/atomonly
      stencil: full/bin/3d
      bin: standard
Per MPI rank memory allocation (min/avg/max) = 9.449 | 9.452 | 9.455 Mbytes
Step Temp PotEng Volume v_max_n 
    4000    1.9287649   -4.8034482    4888.7228            1 
    4100    1.9995676   -4.8232369     4919.373            1 
    4200     1.993055   -4.7902878    4927.0945            1 
    4300     2.026009   -4.7342735    4941.4321            1 
    4400    1.9833517    -4.783135    4934.4041            1 
    4500       1.9596   -4.8176578    4943.6425            1 
    4600    2.0515667   -4.7833321    4908.8441            1 
    4700    1.9834875   -4.8198432    4932.5791            1 
    4800    1.9616268   -4.7957295    4894.3637       -1e+20 
    4900     2.020404   -4.7899045     4896.198            1 
    5000    1.9941815   -4.8136043    4925.8319            1 
    5100    1.9655512   -4.7701026    4910.9034            1 
    5200    2.0012752   -4.7598785    4949.7612            1 
    5300    2.0206628   -4.7935943     4926.145            1 
    5400    2.0056161   -4.7981042    4894.4902            1 
    5500    1.9586511   -4.8113014    4928.2288       -1e+20 
    5600    2.0067587   -4.7809327    4918.6649       -1e+20 
    5700    1.9867049    -4.767503    4932.9893            1 
    5800    2.0392776   -4.8024919    4949.5898            1 
    5900    2.0149453   -4.8042716    4893.8397            2 
    6000    1.9816269   -4.8177876    4909.2184            2 
    6100     1.985193   -4.7977857    4973.9616            1 
    6200    2.0292629   -4.7477668     4902.448            1 
    6300     2.005719    -4.824651    4923.1581            1 
    6400    1.9815553   -4.8697584    4900.4495            2 
    6500    1.9819486   -4.8020428    4900.5937            1 
    6600    1.9932029   -4.7690175    4920.9003            1 
    6700    2.0183452   -4.7948309    4928.5918            1 
    6800    1.9830812   -4.8243462    4902.3867            1 
    6900    2.0178416   -4.7655812    4917.3189            1 
    7000    2.0045323   -4.7501951    4957.3605       -1e+20 
    7100    1.9685489   -4.8073458    4930.3351            1 
    7200    2.0100311   -4.7879154    4920.9655            1 
    7300    2.0629829   -4.8121406    4930.3989       -1e+20 
    7400    1.9924866   -4.8226764    4924.8294            1 
    7500    1.9963329   -4.8225403       4903.2            1 
    7600    2.0460717   -4.8117993    4905.2746            1 
    7700    1.9340804   -4.7545642    4919.0184            1 
    7800    1.9958406   -4.7839889    4920.0865            1 
    7900    1.9882209   -4.8201292    4907.6282       -1e+20 
    8000    2.0331471    -4.800395    4925.0642            1 
    8100    1.9739572   -4.7680879    4901.4154            1 
    8200    1.9616315   -4.7964645    4913.6852            2 
    8300    2.0085832   -4.7852797    4952.3812            1 
    8400    2.0068087   -4.7889311    4936.5315            2 
    8500    2.0223752    -4.857362    4873.3101            1 
    8600    1.9416528   -4.8182773    4941.1342            1 
    8700     2.039034   -4.8140825    4906.1521            1 
    8800     1.981834   -4.8205777    4904.1087            2 
    8900    1.9930075   -4.8320284    4913.7158            1 
    9000    2.0195417   -4.7712941    4931.7465            1 
    9100    1.9691675   -4.7890835    4937.5579            2 
    9200    2.0015547   -4.8500275    4881.6763            1 
    9300    2.0243029   -4.7803423    4899.1058            1 
    9400    1.9906301   -4.7903865    4946.8912            1 
    9500    2.0211706   -4.7842451    4949.9582            1 
    9600    2.0040807   -4.7852258     4909.955            1 
    9700    1.9690402    -4.818806    4929.3168            1 
    9800    2.0454947   -4.8127656    4908.2555            1 
    9900    1.9784373   -4.8040251    4909.7845            2 
   10000    1.9808902   -4.8661793    4913.6187            1 
   10100    2.0080321   -4.7806008    4900.1165            1 
   10200    2.0231938   -4.7898837    4932.4258            1 
   10300    1.9583509   -4.7948458    4930.3162            1 
   10400    2.0267455    -4.817387    4883.2354            1 
   10500    1.9699529   -4.8266067    4888.8945            2 
   10600    1.9589699    -4.813438    4935.9127            1 
   10700    2.0393064   -4.7962147    4925.6123            1 
   10800    1.9985687   -4.7639236     4951.563            1 
   10900    2.0339305   -4.8264952    4943.0205            1 
   11000    2.0030055   -4.8161657    4902.1373       -1e+20 
   11100    2.0068134    -4.771279    4928.1082            1 
   11200    1.9841016   -4.7553467    4950.4611            1 
   11300    1.9834093   -4.7975118    4917.2013       -1e+20 
   11400    2.0063021   -4.8319393    4874.5629            1 
   11500    1.9569608   -4.8519369    4912.3592            1 
   11600    2.0099462   -4.8345918     4889.899            1 
   11700    1.9964025   -4.8018498    4900.7191            2 
   11800    1.9997447   -4.8024227    4923.9106            1 
   11900    1.9824868   -4.7910953    4917.2636       -1e+20 
   12000    2.0190563   -4.7629363    4943.6295       -1e+20 
   12100    2.0098455   -4.7863681    4936.0827            1 
   12200    1.9917231   -4.8294497    4909.8784            1 
   12300    1.9940523   -4.8411251     4893.522            2 
   12400    1.9812058   -4.8037903    4941.0136            1 
   12500    2.0475456   -4.8246848    4931.0995            1 
   12600       1.9812     -4.78873    4917.4692       -1e+20 
   12700    1.9871252   -4.8357273    4915.8033       -1e+20 
   12800    1.9977445   -4.7887607    4889.6081            1 
   12900    1.9986025   -4.7760131    4944.2182            1 
   13000     2.029678   -4.7896583    4942.8478            2 
   13100    1.9955473   -4.7883473    4895.9183            1 
   13200    1.9669008   -4.8131183    4908.9105            2 
   13300    2.0078561   -4.8084087    4908.4907            1 
   13400    1.9754683    -4.751318    4927.6935            1 
   13500     2.031965   -4.7848116    4925.0503            1 
   13600    1.9794369   -4.8053088    4924.9976            1 
   13700    1.9741002   -4.7932229    4896.0559            1 
   13800    2.0098783   -4.8077601    4917.0599            1 
   13900    1.9833325   -4.8073085    4914.5769            1 
   14000    2.0392404   -4.8128466    4914.3579            1 
   14100    1.9990175    -4.767758    4942.5767            1 
   14200    1.9913781    -4.827299    4898.5833            1 
   14300    1.9696804   -4.7973899    4938.9438            2 
   14400    2.0142034   -4.7837378     4892.096            3 
   14500    1.9921036   -4.8083969    4915.1932            1 
   14600    1.9893695   -4.7986408    4930.9065       -1e+20 
   14700    2.0195132   -4.8180412    4907.6825            1 
   14800     1.973384   -4.7817651    4927.0863            1 
   14900     2.012801   -4.7677269    4937.0804       -1e+20 
   15000    1.9948051   -4.7891515     4922.979            2 
   15100    1.9512249   -4.8055276     4914.544            1 
   15200    2.0269152   -4.7956329    4909.6835            1 
   15300    1.9872455   -4.8198338    4892.7012            2 
   15400    1.9823093   -4.8476517    4908.1372            1 
   15500    2.0098238   -4.7894257    4937.0276            2 
   15600    2.0144648    -4.768221    4937.4734            1 
   15700    1.9731482   -4.8116116    4928.7717            1 
   15800    2.0339774   -4.8186584    4919.9807            1 
   15900    1.9995818   -4.7779153    4930.4683            1 
   16000    1.9570104   -4.8126543    4930.2597            1 
   16100    2.0144534    -4.772361    4894.7829            2 
   16200    1.9963125   -4.8094371    4928.4811            1 
   16300    2.0028427   -4.8804836    4911.3306            1 
   16400    1.9959039   -4.8434905    4869.3841            2 
   16500     2.011113   -4.7967771    4922.7428       -1e+20 
   16600    1.9938206   -4.8142428    4906.5674            2 
   16700    2.0122876   -4.7913474    4914.5045            1 
   16800     1.978169    -4.832952    4932.9872            1 
   16900     2.010771    -4.803842    4900.7847            1 
   17000    1.9669468   -4.8204509    4903.2303            1 
   17100    2.0158978   -4.7876575    4929.6925            1 
   17200    2.0277672   -4.7678301    4928.9803            2 
   17300    1.9831185   -4.8331967    4913.0332            1 
   17400     2.003063   -4.8126737     4919.778            2 
   17500    1.9726016   -4.8133706    4893.0668       -1e+20 
   17600     1.998311   -4.7997288    4905.6372            1 
   17700    1.9790635   -4.7890832    4943.4245            1 
   17800    2.0300443   -4.7834058    4935.9536            1 
   17900    2.0002152   -4.8102517     4901.842            1 
   18000    1.9641496   -4.8228415     4928.171            1 
   18100    2.0214235   -4.8128193    4933.9878            1 
   18200    2.0012873   -4.7955822    4897.8051            1 
   18300    1.9983543   -4.8379913    4909.9185            2 
   18400    1.9488747    -4.782875     4901.131            1 
   18500     2.005183   -4.7768602    4904.1141            1 
   18600    1.9578896   -4.7717665    4928.4096            1 
   18700      2.02473   -4.7653545    4939.5149            1 
   18800    2.0109038   -4.7754861    4933.3126            1 
   18900    1.9708133   -4.8072774     4929.973            1 
   19000    2.0572016   -4.7793771    4906.9078            1 
   19100    2.0202079    -4.845929    4908.4812            1 
   19200    1.9549301    -4.813471    4918.6247            1 
   19300    2.0296546   -4.7980247    4915.5098            1 
   19400    1.9440544   -4.7664185    4925.2417            1 
   19500     2.028403   -4.8081585    4949.3615            2 
   19600    1.9867088   -4.8283347    4929.1073            1 
   19700    1.9966612   -4.7718504    4900.0946            1 
   19800    1.9858246   -4.7490923    4932.1704            1 
   19900    1.9710443   -4.7623831    4934.0758       -1e+20 
   20000    1.9991153   -4.7946413    4904.6355            1 
   20100    1.9875226   -4.7889625    4927.6733            1 
   20200    1.9973088   -4.7919142    4922.6875            1 
   20300    1.9893402   -4.8209322    4893.5882            1 
   20400    1.9995393   -4.8529137    4911.8083            2 
   20500    1.9834004   -4.7939722    4930.6286            1 
   20600    2.0481461   -4.7850831    4920.2725            1 
   20700    1.9747935   -4.7988673    4923.2505            1 
   20800    1.9889622   -4.8504891     4928.833            1 
   20900     2.054451   -4.7787302    4884.2675            1 
   21000    1.9830228   -4.7825312    4925.9458            1 
   21100    1.9843814   -4.8264211    4913.4217            1 
   21200    2.0235893   -4.8375028    4895.9014            2 
   21300     1.985271   -4.8111471    4922.0691       -1e+20 
   21400    1.9938162   -4.7441905     4938.848            1 
   21500    2.0568292   -4.7772445    4934.0552            1 
   21600    2.0226027   -4.8449702    4923.8245            1 
   21700    1.9836229   -4.7879162    4920.6628            2 
   21800    2.0086369   -4.7434795    4925.8773            1 
   21900    1.9890717   -4.7857132     4930.917            1 
   22000    2.0224617   -4.7965139    4935.2271            1 
   22100    1.9781471   -4.7935816    4918.0928            1 
   22200    2.0089623   -4.7933074    4900.5207            1 
   22300    1.9623851   -4.7783612     4915.536            1 
   22400    2.0035884    -4.814453    4950.2559            1 
   22500    1.9726277   -4.7863557    4905.2467       -1e+20 
   22600    1.9979718   -4.8056947    4913.0018            1 
   22700    2.0025879   -4.8025649     4935.792            1 
   22800    1.9420729    -4.818306    4919.7196            1 
   22900    2.0273627    -4.790608     4885.101            3 
   23000       2.0006   -4.7909238    4935.1191       -1e+20 
   23100    1.9882435   -4.8161381    4924.5508            1 
   23200    2.0147869   -4.8315051    4893.3843            1 
   23300    2.0186859   -4.8137576    4902.8051            1 
   23400    1.9893169   -4.7826298     4935.281            2 
   23500    1.9737821   -4.7993063    4886.7952            1 
   23600    1.9630494   -4.8527335    4894.9126            4 
   23700    1.9892771   -4.8176286    4915.8325            1 
   23800    1.9939154   -4.7461081    4924.4608            1 
   23900    1.9632954    -4.758751    4942.7819       -1e+20 
   24000    2.0197453   -4.7384592    4940.1916            2 
   24100    1.9980413   -4.7743149    4943.4219            2 
   24200    1.9857789   -4.8146731    4906.8005            1 
   24300    2.0005461   -4.8497666    4888.0273            2 
   24400    2.0173382   -4.7919023    4920.0075            1 
   24500    2.0015155   -4.7653617    4945.3569            1 
   24600    1.9864918   -4.7924455    4898.7412            1 
   24700    1.9999394   -4.8433232    4913.7096            1 
   24800     2.019795   -4.8160802    4925.4271            2 
   24900    2.0325651   -4.8088043    4906.9637            1 
   25000    2.0065317   -4.8572932    4906.9647            1 
   25100    1.9493436   -4.8510939    4907.5171            1 
   25200    2.0427157   -4.8682192    4868.8131            1 
   25300    1.9698083   -4.8063293      4945.49            2 
   25400    1.9917495   -4.7638695    4924.1102            1 
   25500    2.0210116   -4.7726696    4889.4392            1 
   25600     1.980942   -4.8632747    4920.3365            1 
   25700    2.0210669   -4.8617606    4908.5704            1 
   25800    1.9927548   -4.7090115    4920.4792            1 
   25900    1.9611448   -4.7583747    4945.6244            1 
   26000    2.0006574   -4.7888608    4928.5353            1 
   26100    2.0349879   -4.8276498    4903.1577            1 
   26200    1.9697937   -4.8554699     4922.231            1 
   26300    2.0302154   -4.8034218    4902.0491            2 
   26400     2.041054   -4.7671968    4936.8989            1 
   26500    1.9509364    -4.754626    4952.0938            2 
   26600    2.0395107   -4.7912136    4925.1177       -1e+20 
   26700     2.002307   -4.8520929    4914.8724            1 
   26800    2.0093301   -4.8020569    4943.9384            1 
   26900    2.0260432   -4.7867645    4916.3044            1 
   27000    1.9866891   -4.8097915    4920.5786            2 
   27100    2.0339058   -4.7906702    4905.0344            2 
   27200    1.9593454   -4.7847039    4933.8482            1 
   27300    2.0347858    -4.780011    4929.0062            1 
   27400    2.0188162   -4.7711038    4940.0178       -1e+20 
   27500    1.9857251   -4.7761103    4957.4425            2 
   27600    2.0389831   -4.7584634    4940.4766            1 
   27700    2.0329263   -4.7895012    4904.7501            1 
   27800    1.9656102   -4.8156294    4952.3693            1 
   27900    1.9990619   -4.7410247    4933.7507       -1e+20 
   28000    1.9902254   -4.7516963    4920.5961            1 
   28100    1.9730082   -4.8210895     4906.403            1 
   28200    2.0286303   -4.8218308    4915.0885            1 
   28300    1.9952547   -4.8153232    4925.7312            1 
   28400    2.0342035   -4.8135974    4922.2349       -1e+20 
   28500    1.9799894   -4.8317047    4891.0877            1 
   28600    2.0029987   -4.8063896    4896.8969            4 
   28700     1.997233   -4.8382602     4929.657            2 
   28800    2.0027422   -4.8291219    4900.5519            1 
   28900    2.0250178   -4.8192068    4892.2877            2 
   29000    1.9982593   -4.7972239    4960.6452            1 
   29100    2.0360362   -4.7705861    4940.0186            1 
   29200     2.012838   -4.8206558    4909.4334            1 
   29300      1.99973   -4.8247386     4914.979            1 
   29400    2.0190531   -4.7836174    4973.0034            1 
   29500    2.0127647   -4.7949323    4904.0304            1 
   29600    1.9830964   -4.7781206     4929.214       -1e+20 
   29700    2.0205687   -4.7827027    4941.0992       -1e+20 
   29800    1.9926369   -4.8134189    4907.8524            1 
   29900    2.0106324   -4.8429991    4911.1649            1 
   30000    2.0535635   -4.8157083    4941.1885       -1e+20 
   30100    1.9932095   -4.7862884    4922.0334       -1e+20 
   30200    2.0127397   -4.7532364    4929.1375            1 
   30300    1.9692987   -4.8276362    4939.9568            1 
   30400    2.0065616    -4.814505    4925.3778            1 
   30500    2.0442991   -4.7692604    4934.9702            1 
   30600    2.0116294   -4.7483306    4994.6905            2 
   30700    1.9985704   -4.7456533    4940.2284            1 
   30800    2.0015176   -4.7700947    4935.4381            1 
   30900     2.009976   -4.8127079    4938.4216       -1e+20 
   31000    1.9898159    -4.822725    4872.7191            1 
   31100     2.005266    -4.798871    4913.4779            1 
   31200    1.9837116   -4.7616174    4948.7818            1 
   31300    1.9922664    -4.783707    4916.2207       -1e+20 
   31400    2.0025154    -4.826881    4901.3562            1 
   31500    2.0198315    -4.787394    4940.1284            1 
   31600    2.0016027   -4.8354548    4915.2835            1 
   31700    2.0005349   -4.8293373    4908.5265       -1e+20 
   31800    2.0243642     -4.79113    4931.5681            1 
   31900    1.9869613   -4.7862289    4921.8756       -1e+20 
   32000    2.0256966   -4.8351332     4914.611            1 
   32100     1.926907   -4.7909931    4905.8543            1 
   32200    2.0086609   -4.7979053    4920.4066       -1e+20 
   32300    2.0184511   -4.8593831    4926.4984       -1e+20 
   32400    1.9863025   -4.8400466    4882.1017            1 
   32500    1.9981099   -4.8214953    4923.0622            1 
   32600    1.9971199   -4.8092683    4915.9327            1 
   32700    1.9497248   -4.8017116    4882.2864            2 
   32800    1.9743355   -4.8224854    4928.8169            1 
   32900    2.0590156   -4.8244007    4912.5566            1 
   33000     1.987406   -4.8194528    4901.0043            2 
   33100    1.9495044   -4.7746117    4912.7099            1 
   33200    2.0281487     -4.79584    4919.1007            1 
   33300    2.0052041   -4.8236937    4910.7343       -1e+20 
   33400     1.955735   -4.8452427    4896.0757       -1e+20 
   33500    1.9755654   -4.7925854    4920.4332            1 
   33600    2.0403952   -4.8036203    4916.0859            1 
   33700    1.9472477   -4.8462121    4925.5461            1 
   33800    1.9984257   -4.8210722    4904.9253            1 
   33900    2.0407411   -4.8112748    4927.7767            3 
   34000    1.9974785   -4.8054499    4924.5517            1 
   34100     2.025809   -4.8428961    4922.3849            1 
   34200    1.9849805   -4.7923741    4927.5276            2 
   34300    2.0429393   -4.8029442    4939.1824            2 
   34400    1.9904351   -4.8172476    4925.4975            1 
   34500    2.0298964   -4.7985838    4946.6584            1 
   34600    2.0006601   -4.7427386    4930.1564       -1e+20 
   34700    1.9858226   -4.8042217    4894.3645            1 
   34800    2.0446033    -4.870192    4927.4899            1 
   34900    1.9981305   -4.8086397    4923.1676            1 
   35000     1.990559    -4.789663    4879.0615            1 
   35100    1.9840818   -4.7665978    4941.2377            1 
   35200    2.0020661   -4.7862092    4933.9931            1 
   35300    1.9913096   -4.7829105    4915.7454       -1e+20 
   35400    2.0277828   -4.7904418    4909.0429            1 
   35500    1.9586961   -4.7984679    4931.2626       -1e+20 
   35600    2.0047228    -4.779303    4922.3454            1 
   35700    2.0175797   -4.7429183    4946.2218            1 
   35800     1.987448   -4.7631812    4963.9578            1 
   35900    2.0361378   -4.7897624    4927.9069            1 
   36000    2.0049891   -4.7831515    4903.3672            1 
   36100    1.9440018    -4.827596     4930.945       -1e+20 
   36200    1.9896787   -4.8033325    4882.9905            1 
   36300    2.0441788   -4.7957108    4923.4271            1 
   36400    1.9916737   -4.8299693    4920.7712            1 
   36500    1.9977217    -4.841498     4910.017            2 
   36600     2.030244   -4.7647373    4894.4946            1 
   36700    2.0105791   -4.7837821    4934.9686       -1e+20 
   36800    1.9779412   -4.8360642     4933.621            1 
   36900    2.0066442   -4.8021161     4894.237            2 
   37000    2.0094478   -4.7860913    4925.2455            1 
   37100    1.9837966   -4.7490588    4965.8294            1 
   37200    2.0172532   -4.8159415    4876.6501            3 
   37300    1.9795424    -4.824882    4905.3369            1 
   37400    2.0190969   -4.8210916    4908.0731       -1e+20 
   37500    2.0096304    -4.808651     4920.233            1 
   37600    1.9501424   -4.8284176    4926.5366            1 
   37700    2.0372469   -4.8217212    4872.6372            1 
   37800    1.9547532   -4.7522235     4928.821            1 
   37900    2.0020888   -4.7856705     4955.025            2 
   38000     2.001154   -4.8192744    4911.3235            1 
   38100    1.9790337   -4.8184218    4889.4443            1 
   38200    1.9860254   -4.7692058    4925.2588            1 
   38300    2.0017004   -4.7855922     4929.894       -1e+20 
   38400    2.0039229   -4.7625761     4906.281            1 
   38500    1.9402147   -4.8326212    4909.0376            1 
   38600    2.0083476   -4.8526488     4924.322            1 
   38700    2.0318721   -4.7849076    4931.6968            1 
   38800    2.0124467   -4.8149394     4944.287            2 
   38900    1.9970717   -4.8157718    4890.2146            1 
   39000    2.0250785   -4.7745849    4933.1954            1 
   39100     1.980521   -4.7686443    4928.1039            1 
   39200    1.9840124   -4.7774496    4911.9581            1 
   39300    2.0325648    -4.790582    4945.9141            1 
   39400    2.0001725   -4.8110249    4905.8839       -1e+20 
   39500    1.9726128   -4.7930202    4898.3247            1 
   39600    2.0339167   -4.8116258    4934.5633       -1e+20 
   39700     2.026324   -4.8216648    4938.1284            1 
   39800    2.0168612   -4.8294368    4904.3486            1 
   39900    1.9815687   -4.7926936    4916.1279       -1e+20 
   40000    2.0270823   -4.8008033    4951.6254            3 
   40100    1.9979251   -4.8096429    4920.0917            1 
   40200     2.004394   -4.8236172    4901.6974            1 
   40300    1.9883182    -4.831164    4919.4312       -1e+20 
   40400    2.0208046    -4.789991    4905.5189            1 
   40500    1.9735686   -4.8262983    4898.6205            1 
   40600    2.0411976   -4.8262163    4931.9827            1 
   40700    1.9913709    -4.756001    4923.3336            1 
   40800    2.0047954   -4.7952297     4930.107            1 
   40900    2.0015599   -4.7794356    4914.3394       -1e+20 
   41000    1.9537423   -4.8147515    4919.5601            3 
   41100    2.0097509   -4.8101672    4921.7378            1 
   41200    2.0249353   -4.8044994    4892.5618            1 
   41300    1.9509952   -4.8156482    4926.1578       -1e+20 
   41400    2.0057804   -4.7942234    4922.8952       -1e+20 
   41500      2.01066   -4.7976584    4907.0276       -1e+20 
   41600    1.9889455   -4.8678144     4907.864            1 
   41700    1.9816521   -4.7709774    4948.7433            1 
   41800    2.0060624   -4.7474488    4906.9558            1 
   41900    2.0060691   -4.8188972    4927.7763            1 
   42000     1.994587    -4.854004    4944.2073            1 
   42100    2.0362913   -4.7878843    4887.2926            1 
   42200    1.9792097   -4.7897937    4936.4488            1 
   42300    1.9770673   -4.7776128    4936.8271            1 
   42400    2.0396342   -4.7930967    4887.9335            1 
   42500    1.9629934   -4.8241291    4910.8858            1 
   42600    2.0031164   -4.8011347    4920.1828       -1e+20 
   42700    2.0119888   -4.7990057     4921.072            1 
   42800    1.9728554   -4.8284238    4903.9694            1 
   42900    2.0166033   -4.8001214    4929.9621            1 
   43000     2.001613   -4.7960573    4925.9794            1 
   43100    1.9891572   -4.8364421    4891.1181            1 
   43200    1.9910216   -4.7972998    4913.4047            1 
   43300    2.0111846   -4.7728974    4930.5754            2 
   43400    1.9551636   -4.7920975     4922.092       -1e+20 
   43500    1.9854206   -4.8089812    4891.9233            1 
   43600    2.0381619   -4.7979815    4912.8829            1 
   43700    1.9709833   -4.7834677    4926.1448            1 
   43800    2.0050014   -4.7567225    4946.9476            1 
   43900      1.99717   -4.7723174    4942.9804       -1e+20 
   44000    1.9834358    -4.785815    4886.6532            1 
   44100    1.9926884   -4.8391723    4905.5948       -1e+20 
   44200     1.997821    -4.824548     4942.658            1 
   44300    2.0230262   -4.8040563    4888.5679            1 
   44400    1.9895479   -4.7980204    4897.9119            1 
   44500    1.9846004   -4.8293956    4953.3364            1 
   44600    2.0124481   -4.7721426    4905.5458            1 
   44700    2.0006145   -4.8217553    4911.6423            1 
   44800    1.9328051   -4.8410864    4908.4378            3 
   44900    2.0061838   -4.8091098    4899.1606            2 
   45000     2.018013   -4.8025962    4909.9261            1 
   45100    2.0136981   -4.8164066    4946.4251            1 
   45200    1.9812687   -4.7932506    4933.5063            1 
   45300    2.0101577   -4.8008601    4889.0667            1 
   45400    1.9632346   -4.8316757    4895.2972       -1e+20 
   45500    1.9996543   -4.8145479    4918.1328            3 
   45600    2.0143768   -4.7999773    4928.1268            1 
   45700    2.0620693   -4.8023091    4946.5303            1 
   45800    2.0022736   -4.8176329     4924.156            1 
   45900    1.9988009   -4.7820835    4928.0752            1 
   46000    2.0212158   -4.7646235    4944.6911            1 
   46100     2.010591   -4.8296946    4912.0725            2 
   46200    1.9731141    -4.823403    4912.5032            1 
   46300    1.9694865   -4.7302834    4933.2566            1 
   46400       2.0404   -4.7785228      4927.66            1 
   46500    1.9570465   -4.7720119    4905.1956            1 
   46600    2.0406186   -4.8504238    4941.9618            1 
   46700     1.988713   -4.7726919    4933.4272            1 
   46800    2.0291111   -4.7876516    4934.9545            1 
   46900     2.002626   -4.8449358       4918.2       -1e+20 
   47000    1.9967078   -4.8001575    4898.2778            1 
   47100    2.0171401   -4.7636419    4930.9748       -1e+20 
   47200     2.001747   -4.8203595     4928.416            1 
   47300    2.0038055   -4.8408187    4898.1435            1 
   47400    1.9956178   -4.7549551    4891.1641            1 
   47500    1.9815826   -4.7603732    4961.4336            2 
   47600    1.9891584   -4.7817599    4911.7922            1 
   47700      2.01561   -4.8207104    4878.1815            1 
   47800    1.9725077   -4.8473396    4907.2499            2 
   47900    2.0335696   -4.8609291    4916.2512            1 
   48000    2.0034892   -4.8231724    4910.4756       -1e+20 
   48100    2.0011412    -4.818016    4922.2383            1 
   48200    2.0288053   -4.7618689    4928.7328            1 
   48300    1.9700917    -4.794606    4947.8796            1 
   48400    1.9649319   -4.7785418    4909.2548            1 
   48500    2.0018862   -4.7632381    4923.4039            1 
   48600    1.9851123   -4.7936878    4931.7111       -1e+20 
   48700    1.9987213   -4.8346513    4906.7599            1 
   48800    1.9836982   -4.8353865    4892.9332            1 
   48900    1.9835341   -4.7611213    4935.0847            1 
   49000    2.0162849   -4.7855101    4918.6595            1 
   49100     1.983541   -4.8406583    4913.7981            1 
   49200    1.9900879   -4.7939866     4894.209            1 
   49300    1.9878326   -4.7675533    4913.7644            1 
   49400     2.003174   -4.8100376    4937.3568            2 
   49500    1.9855375   -4.7730435    4922.1443            1 
   49600    1.9699721   -4.7827354    4907.6543            1 
   49700    2.0067352   -4.8289354    4914.4905            1 
   49800    1.9840853   -4.8038505    4928.6732            1 
   49900    2.0498758    -4.806136     4936.969            1 
   50000    1.9894289   -4.8256084    4948.3153            1 
   50100    2.0162013   -4.8355891    4879.5713            1 
   50200    2.0094919   -4.8404807    4882.8612            1 
   50300    1.9803122   -4.8239564    4936.3164            2 
   50400    2.0260548   -4.7829254    4925.7208            1 
   50500    2.0008944   -4.8037444    4928.5919       -1e+20 
   50600    1.9743852   -4.8516145    4906.2574       -1e+20 
   50700     1.994094   -4.8159042    4902.0674            1 
   50800    1.9638093   -4.8111561    4884.4987            1 
   50900    2.0016665   -4.7749005     4901.835            1 
   51000    1.9873148   -4.8346377    4945.0094            1 
   51100    2.0102163   -4.7475423     4918.636            1 
   51200    2.0117625   -4.7730405    4925.0473            1 
   51300    1.9508171   -4.7714588    4948.0767            1 
   51400    2.0002566   -4.8140614     4891.468            1 
   51500    2.0185932   -4.8325794     4897.028       -1e+20 
   51600    1.9805844   -4.7828626    4951.1109            1 
   51700    2.0238079   -4.7673805     4936.311            1 
   51800    1.9958297   -4.7369184    4945.3206            1 
   51900    2.0107419   -4.7722013     4960.128       -1e+20 
   52000    2.0124617   -4.8032496    4896.4178            2 
   52100    2.0066372   -4.7998536    4945.7212            1 
   52200    2.0001179    -4.785439    4926.0132            1 
   52300    1.9910234   -4.8011099    4917.4364       -1e+20 
   52400    2.0006594    -4.732195    4962.7175       -1e+20 
   52500    2.0434297   -4.7412214    4965.9213            1 
   52600     2.027515    -4.795056    4935.2255            1 
   52700    2.0099797   -4.8457748    4907.9885            1 
   52800    2.0146211   -4.8418289    4910.0379            1 
   52900    2.0138536   -4.8181198    4931.4659            1 
   53000    2.0667503   -4.7986671    4920.0617            1 
   53100     1.963839   -4.7825033    4944.4417            2 
   53200    2.0025341   -4.7643337    4917.3947            1 
   53300    1.9888483   -4.7819021    4918.5711            1 
   53400    1.9986699   -4.7721013    4931.6772       -1e+20 
   53500    2.0024728   -4.8264759    4901.4783            1 
   53600    1.9399513   -4.8314758    4916.4196            1 
   53700    2.0009119   -4.7865705    4928.9206            1 
   53800     2.004458   -4.7600957    4895.5797            1 
   53900     1.964939   -4.8254041    4925.5616            1 
   54000    2.0255342   -4.8492308    4929.1581            1 
   54100    2.0379012   -4.8509787    4874.1208            1 
   54200    1.9552168   -4.8383299     4908.589            1 
   54300    1.9667093   -4.7335723    4919.7966            1 
   54400    2.0280316   -4.7708007    4925.6305            1 
   54500    1.9807359   -4.8156417    4943.5072            1 
   54600    2.0488396    -4.824389    4921.8113            1 
   54700    1.9989141    -4.784923    4925.1738            1 
   54800    1.9636988   -4.7986524    4926.2963            1 
   54900    2.0543352   -4.8178172    4903.9343            1 
   55000     1.998739   -4.8305543    4892.7352            1 
   55100      1.96585   -4.8603768      4916.06            1 
   55200    2.0541446    -4.827997    4866.7329            1 
   55300    1.9908098   -4.8105871    4949.6015            1 
   55400    1.9858599   -4.7843885     4912.065            1 
   55500    2.0048793   -4.7924993    4912.9691            1 
   55600    1.9465314   -4.8214394    4930.2496            1 
   55700     2.026181   -4.8334563    4865.3386            1 
   55800    1.9503467   -4.8303717    4889.0363            1 
   55900    2.0119579   -4.8870538    4910.9098            1 
   56000    2.0161917    -4.786903    4905.4266            1 
   56100    2.0113221   -4.7689272    4945.3484            1 
   56200    1.9764183    -4.808054    4924.6108            1 
   56300    2.0267643   -4.7795772    4914.0879            1 
   56400    1.9954406   -4.8120419    4934.8354            1 
   56500    1.9815146   -4.8072674    4922.1332            1 
   56600    2.0058557   -4.7490694    4906.6009            4 
   56700    1.9979647   -4.8293137    4942.6975            2 
   56800      2.00146   -4.8461059    4901.5447            3 
   56900    2.0163565   -4.7947887     4925.708       -1e+20 
   57000    1.9916023   -4.7639881    4941.3417            1 
   57100    1.9862361    -4.759558    4921.8959            1 
   57200    1.9944077   -4.8167733    4908.7932            2 
   57300    2.0181976   -4.8182573    4932.6727       -1e+20 
   57400    2.0029673   -4.7997612    4923.4763            1 
   57500    2.0028024   -4.8249509    4905.0566            1 
   57600    2.0006459   -4.8230876    4911.9775            1 
   57700    1.9970637    -4.793289    4925.8485            1 
   57800    1.9589894   -4.7554704    4907.8774            1 
   57900    2.0028753   -4.8451047    4884.1044            1 
   58000    1.9615609   -4.8137457    4940.7919            1 
   58100    2.0470941   -4.7787952    4924.9395            2 
   58200    1.9848367   -4.7809739    4916.6888            1 
   58300    1.9984277   -4.8103195    4908.7978       -1e+20 
   58400    2.0054131   -4.8226372    4927.4455            1 
   58500    1.9964204   -4.8034247    4936.8201            1 
   58600    2.0257927   -4.7936395    4917.7083            1 
   58700    1.9684846   -4.8321666      4922.71            1 
   58800    2.0010546   -4.8200775    4908.7217       -1e+20 
   58900    2.0153495   -4.7529663    4925.4547            2 
   59000    1.9784221   -4.8139704    4915.7697            1 
   59100    1.9638923   -4.8174558    4915.2697       -1e+20 
   59200    2.0290138   -4.7990744    4935.5481            1 
   59300    1.9874483   -4.7770908    4936.9056       -1e+20 
   59400    1.9755267   -4.8169177     4877.635            1 
   59500    1.9823137   -4.8109167    4901.3011            1 
   59600    2.0000912   -4.8044281    4958.3894       -1e+20 
   59700    1.9926869   -4.7620401    4905.4658       -1e+20 
   59800    2.0042593   -4.7889766    4925.0359            1 
   59900    1.9645499   -4.7932974    4936.3191            1 
   60000    2.0548024   -4.7789292    4887.0149            1 
   60100    1.9570126     -4.80329    4925.9177            1 
   60200    1.9972891   -4.7997706    4909.0758            1 
   60300    1.9958942   -4.7937664    4892.5735       -1e+20 
   60400    1.9887761   -4.8158284    4927.1209            1 
   60500    2.0479972   -4.8057513    4934.4317            1 
   60600    2.0107432   -4.8248318    4918.4652            1 
   60700    2.0107753   -4.8157439    4919.3068            1 
   60800     2.019933   -4.7572903    4958.6496            1 
   60900     1.986132    -4.774375    4923.8365            1 
   61000    1.9974241   -4.7841654    4896.3924            1 
   61100    2.0088624    -4.816241     4945.574            1 
   61200    1.9860182   -4.7791657    4934.7819            1 
   61300    2.0432048   -4.7782772    4898.4794            1 
   61400    1.9453396   -4.7814293    4962.0135       -1e+20 
   61500    2.0214311   -4.8060044      4906.77            1 
   61600    1.9994536   -4.8096263    4922.3572            1 
   61700     2.016829   -4.8134264    4930.7202       -1e+20 
   61800    1.9890295   -4.8230895     4888.696            1 
   61900    2.0022205   -4.7587763    4931.7083            1 
   62000     2.023541   -4.7825706    4943.2544            1 
   62100     1.991027   -4.8248957    4918.3738            1 
   62200    2.0024513   -4.8316453    4894.3065            1 
   62300     1.977412   -4.8337747    4887.3058            1 
   62400    1.9681288   -4.7562425    4961.9006            1 
   62500    2.0431323   -4.7764636    4926.2364            2 
   62600    1.9711245   -4.7417056    4931.5023            1 
   62700    2.0131805   -4.8283169    4928.9996            1 
   62800    1.9878316   -4.8087334    4894.2766            1 
   62900    2.0036571   -4.7484331    4943.9867            1 
   63000    2.0198508   -4.7754049    4936.1885            1 
   63100    1.9528494   -4.7715685    4937.6926            1 
   63200    2.0536451   -4.7985024    4896.0024            1 
   63300    1.9816257   -4.8155253    4926.7812            1 
   63400    2.0069335   -4.8288022     4916.446            1 
   63500    1.9726394   -4.7480849    4916.2485            1 
   63600    2.0075676   -4.8074243    4964.7628            1 
   63700    2.0401448   -4.7599253    4939.2229            1 
   63800    1.9984626   -4.7631584    4904.3678            1 
   63900    1.9557688   -4.8271664    4935.0762       -1e+20 
   64000    1.9789737    -4.842982     4881.375            1 
   64100    2.0046081   -4.7951893    4884.6491            1 
   64200    1.9581804   -4.8012094    4935.2302            2 
   64300    2.0041977    -4.742832    4918.0696            1 
   64400    1.9593931   -4.7245104    4910.8262            1 
   64500    1.9771407   -4.7609263    4924.0079            1 
   64600    2.0220559    -4.795993     4939.894            1 
   64700    1.9748355   -4.7918873      4909.99            1 
   64800    1.9701404   -4.7641288    4905.9498            1 
   64900    1.9843417   -4.7290994    4950.3039            1 
   65000    2.0114812    -4.764084    4950.3406            1 
   65100    1.9980406   -4.8055656    4895.9253            1 
   65200     1.987361   -4.8527796    4899.4449            1 
   65300    1.9907711   -4.8522938    4865.3332            1 
   65400    1.9804869   -4.8354722     4940.466            1 
   65500    2.0252023   -4.8176013    4921.3651            1 
   65600    2.0011298   -4.8214741    4896.4308       -1e+20 
   65700    2.0207945   -4.8053822    4937.5431            3 
   65800    1.9943082   -4.7695124    4930.9148            1 
   65900    1.9967982   -4.8034495    4897.5986            1 
   66000     2.017479   -4.7793495    4949.1778            1 
   66100    2.0359365   -4.8080897    4906.5718            1 
   66200    1.9666392   -4.7823709    4933.8253            1 
   66300    2.0340192   -4.8088964    4918.3701            1 
   66400    1.9869823   -4.7966771    4914.3118            2 
   66500    1.9879367   -4.8089254    4918.5725            1 
   66600      2.01005   -4.7876687    4914.0349            2 
   66700    1.9686646   -4.8021834    4920.0492            1 
   66800    2.0147498   -4.8024802    4937.0171            1 
   66900    2.0103207   -4.7897262    4904.2861            2 
   67000    1.9821008   -4.8453099    4903.4389            1 
   67100    2.0097281   -4.8186909    4930.2485            1 
   67200    1.9617672   -4.7135321    4919.5087            1 
   67300    2.0419318   -4.7946883    4913.8792            1 
   67400     1.967197   -4.8054824    4901.8705       -1e+20 
   67500    2.0262797   -4.8126827     4911.211            2 
   67600    2.0210308   -4.8007173    4928.4402            1 
   67700    1.9724778   -4.8284544    4937.7812            1 
   67800    2.0285569   -4.7772776    4921.6136            1 
   67900    1.9947084   -4.7648742    4937.6042            1 
   68000    1.9690397   -4.7651576    4933.1555            1 
   68100    2.0203471   -4.8152073    4903.8285            1 
   68200    2.0341748   -4.7795426    4958.0772       -1e+20 
   68300    1.9994888   -4.8064507    4937.8631            1 
   68400    2.0197701   -4.8252101    4902.7734            1 
   68500    1.9471889   -4.8256399    4909.8779            3 
   68600    2.0175483   -4.7873172    4892.5261            2 
   68700    2.0212731   -4.7332202    4928.5509            1 
   68800    2.0026473   -4.7781693    4968.2839            1 
   68900    2.0434639   -4.8325172    4900.3595            1 
   69000     1.992723   -4.8294365    4923.5457            1 
   69100    1.9701203   -4.8064795    4897.5354            1 
   69200    1.9840927   -4.8052092    4885.1415            1 
   69300    2.0013429   -4.7971956    4933.6762            1 
   69400    1.9895816   -4.7809903    4924.6512       -1e+20 
   69500    1.9975449   -4.7879012    4921.0027            1 
   69600    2.0004623   -4.7743261    4943.5048            1 
   69700    2.0298652    -4.765478    4954.9747            3 
   69800    2.0161599   -4.7854852    4904.9737            1 
   69900    1.9703978   -4.8313062    4921.1338            3 
   70000     1.989113   -4.7845902    4902.4623            1 
   70100    2.0385451   -4.8219605    4917.7899       -1e+20 
   70200      1.97466   -4.8221322    4933.1814            1 
   70300    2.0146998   -4.8024743    4896.8104            1 
   70400    2.0181737   -4.8150199    4935.0107            1 
   70500    2.0116172   -4.8395024    4927.1731            1 
   70600    1.9768808   -4.7626019    4909.9614            1 
   70700    2.0007728   -4.7886887     4902.322            1 
   70800    1.9718468   -4.8411582    4883.6086            1 
   70900    2.0105044   -4.8322861    4928.1825            1 
   71000     2.005933   -4.7942926    4928.6614       -1e+20 
   71100    1.9868189   -4.8460225    4873.6991            1 
   71200    1.9958313   -4.8708393    4923.0682            1 
   71300    2.0172733   -4.8210522    4909.3934            1 
   71400    2.0212543   -4.8263479    4913.4347            1 
   71500    1.9757589   -4.8364531    4934.2794            1 
   71600    2.0275391   -4.8005618    4908.0066            1 
   71700    1.9811459   -4.7476876    4948.8989       -1e+20 
   71800    2.0276579   -4.8210088    4923.9332            2 
   71900    1.9855726   -4.8079997     4903.642            1 
   72000    2.0086194   -4.7592583    4914.5744            1 
   72100     1.988778   -4.8281827    4934.2098       -1e+20 
   72200     1.994011   -4.8527466    4906.4274            1 
   72300    2.0062614   -4.7571136    4912.0482            1 
   72400     1.967025   -4.7609369    4931.9972            1 
   72500    2.0472018   -4.7823589     4941.506            2 
   72600    1.9687454   -4.7666962    4946.9278            1 
   72700    2.0399474   -4.7585599    4933.0667            2 
   72800    2.0069292   -4.7146972    4977.9692            1 
   72900    1.9969278   -4.7670416     4918.199       -1e+20 
   73000    2.0010289   -4.7677686    4920.4582            1 
   73100    1.9927489   -4.7867029    4942.3631            1 
   73200    2.0031161   -4.7981518    4907.2557            1 
   73300    1.9934459   -4.8083685     4916.883            1 
   73400    1.9864129   -4.8049414    4911.2964            2 
   73500    2.0145485   -4.7440299    4912.9836            1 
   73600    1.9565895   -4.7676534    4929.3482       -1e+20 
   73700    1.9836812   -4.7816404    4908.1132            1 
   73800    2.0291347   -4.7782751    4940.6293            1 
   73900    2.0022659   -4.8166918    4924.2048            1 
   74000    2.0125583   -4.8124739    4928.5357            1 
   74100    1.9894469   -4.8433289     4932.622            2 
   74200    1.9710641   -4.7782914    4863.7024            1 
   74300    2.0120579   -4.8107783    4920.9171            1 
   74400    1.9642418   -4.7733968    4923.0417       -1e+20 
   74500     1.991784    -4.760751    4916.5376       -1e+20 
   74600       2.0409   -4.8267301    4942.0532            1 
   74700    1.9858423   -4.7919873    4911.2394            1 
   74800    1.9966296   -4.7870595    4908.2475            1 
   74900    1.9410247   -4.7567539    4940.5603            1 
   75000    2.0398656   -4.8001323    4908.5418            1 
   75100    1.9746346   -4.8026742    4902.0792            2 
   75200    1.9707765   -4.8081977    4927.0803            1 
   75300    2.0348629   -4.8071748    4905.3997       -1e+20 
   75400    1.9659236   -4.8074939    4896.9212       -1e+20 
   75500    2.0073683   -4.8293762    4943.2699            2 
   75600    2.0368534   -4.7816244    4922.8293            1 
   75700    1.9872276   -4.8021944    4938.1597       -1e+20 
   75800     2.004008   -4.8056125    4918.8467            1 
   75900    2.0177613   -4.8157833    4889.9426            1 
   76000    1.9845141   -4.7680541    4960.4506            1 
   76100    2.0484149   -4.8134947    4942.1642            1 
   76200    1.9729445   -4.7672142    4916.1105            1 
   76300    2.0609287   -4.8055446    4923.6993            1 
   76400    1.9777723   -4.7564588    4957.7807            1 
   76500    2.0212985   -4.7805783    4904.8851       -1e+20 
   76600    2.0020765    -4.813177    4917.3951            1 
   76700    2.0261766   -4.8421768     4945.786       -1e+20 
   76800    2.0133917   -4.7913287    4930.8057            1 
   76900    2.0299756   -4.7811038    4909.6013            1 
   77000    1.9358815   -4.7830722    4959.8716            1 
   77100    2.0310374   -4.7721084    4909.0451            1 
   77200    1.9884669   -4.7975631    4923.1127       -1e+20 
   77300    1.9674937   -4.7919099    4944.0704            1 
   77400    2.0453782   -4.7975011    4914.5722       -1e+20 
   77500    1.9996903   -4.7839022     4929.921            1 
   77600    1.9690883   -4.8123863    4945.6993       -1e+20 
   77700    2.0279614   -4.8075233    4879.0215            1 
   77800    1.9756587   -4.8182102    4944.3395            1 
   77900    2.0175004   -4.8133583    4925.1652            1 
   78000    2.0083882   -4.7803058     4906.356            1 
   78100    1.9837435   -4.7781991      4950.96            1 
   78200    2.0430863   -4.8265024    4924.5621            1 
   78300    2.0427369   -4.7870901    4968.1177            1 
   78400     2.011294   -4.7706888    4926.9003            1 
   78500    2.0004014   -4.7679038    4942.1568            1 
   78600    2.0049132   -4.8097719    4908.4879            1 
   78700    1.9667438   -4.7701532    4912.3095            1 
   78800    2.0223909   -4.7675279    4956.5318            1 
   78900    2.0035557   -4.7459031    4952.4201            1 
   79000    2.0029296   -4.7744824    4942.9317       -1e+20 
   79100    1.9418906   -4.7579036    4915.8635            1 
   79200    2.0491146   -4.8285713    4900.6045       -1e+20 
   79300    1.9594861   -4.8092536    4955.8719            1 
   79400    2.0279023   -4.7890525    4938.4422            2 
   79500    2.0250707   -4.8164887    4911.3228       -1e+20 
   79600    1.9806807   -4.8024465    4933.4717            1 
   79700     2.006924   -4.7810498    4926.4487            3 
   79800    1.9869204   -4.7780553    4935.9375            1 
   79900    2.0295807   -4.7537037     4959.125            1 
   80000    2.0229129   -4.7905248    4930.0553       -1e+20 
   80100    1.9933138   -4.8346143    4929.8511       -1e+20 
   80200    1.9844394   -4.7935818    4887.8214       -1e+20 
   80300    1.9845668   -4.7966812    4897.6526       -1e+20 
   80400    2.0154083   -4.8405991     4932.036            1 
   80500    2.0096027    -4.792573    4921.3502            1 
   80600    1.9572061   -4.8129275    4915.7782            1 
   80700    2.0039025   -4.8056496    4881.8945            1 
   80800    2.0215141    -4.803456      4932.21            1 
   80900    1.9899939   -4.8035391    4891.0207       -1e+20 
   81000    1.9985622   -4.8234897    4925.3612            1 
   81100     1.998957   -4.7847467    4929.9361       -1e+20 
   81200    2.0065501   -4.8262095    4910.6774            1 
   81300     1.999025   -4.8273127    4911.5543            1 
   81400    1.9878648   -4.7833778    4946.1663            1 
   81500    2.0646955   -4.8214011    4913.0536            1 
   81600    1.9961841   -4.8596181    4942.1954            1 
   81700    1.9928358   -4.7880394    4902.8829            1 
   81800    2.0310102   -4.7552562    4940.7627            1 
   81900    1.9933849   -4.7689598    4932.6217            1 
   82000    1.9837457   -4.7591821    4952.7683            1 
   82100    2.0239375   -4.7939367    4932.9274            1 
   82200    2.0185943   -4.8263996    4904.3945            1 
   82300    1.9852219   -4.8568443    4901.5214            1 
   82400    2.0352032   -4.8599992    4895.1154            1 
   82500    2.0216669   -4.7944483    4936.3717            1 
   82600     1.979565   -4.8498321     4925.516            1 
   82700     2.042758   -4.8405513    4905.5317       -1e+20 
   82800     1.998093   -4.8172401    4923.0503            1 
   82900    1.9752953   -4.7927605    4926.0643            1 
   83000    2.0274304   -4.7389947    4927.9939            1 
   83100     1.970509    -4.774736    4931.2645       -1e+20 
   83200    2.0237905   -4.7776129    4929.7625            2 
   83300    1.9729035   -4.8237544    4917.0782            1 
   83400    1.9938672   -4.8055314    4902.4761            1 
   83500     2.032492   -4.7724124    4941.5146            2 
   83600    1.9891452   -4.8006582    4954.7542       -1e+20 
   83700    2.0467412   -4.8308219    4920.4435            1 
   83800    1.9978476   -4.8119799     4916.018            1 
   83900     1.971994     -4.85677    4903.3424            1 
   84000    2.0366399   -4.8257865    4886.8873       -1e+20 
   84100    1.9824594   -4.7553512    4952.4569            1 
   84200    2.0007228    -4.786773    4933.1156            1 
   84300    2.0039247   -4.8110979    4893.5176            1 
   84400    1.9965896    -4.793635    4903.0476            2 
   84500    1.9602635    -4.839398    4938.9211            2 
   84600    2.0064154   -4.7425129    4893.2441            1 
   84700    2.0175905    -4.771883    4955.6848            2 
   84800    1.9949476   -4.7868576    4954.8849            1 
   84900    2.0179081   -4.7924201    4914.0821            1 
   85000    2.0040263   -4.8132326    4929.9198       -1e+20 
   85100    1.9824737   -4.8109675    4897.8365            2 
   85200    1.9927314   -4.8020451    4896.4377            1 
   85300    2.0331022   -4.8032163    4925.9353            1 
   85400    1.9961655   -4.8513452    4921.4636            3 
   85500    2.0122816   -4.8324128     4903.325            1 
   85600    1.9899413   -4.7513613    4890.8388            1 
   85700    2.0001573   -4.8059188    4959.4887            2 
   85800    2.0310748   -4.7989764    4954.4967            1 
   85900    2.0269382   -4.8018064    4910.1584       -1e+20 
   86000    1.9520833   -4.8143798    4930.8039            1 
   86100    1.9856704   -4.8019594    4892.6341            4 
   86200    2.0460308   -4.8160546    4904.9637            1 
   86300    1.9598381   -4.7957062    4932.7059            1 
   86400    2.0412561   -4.8035891    4921.6763            1 
   86500    1.9928997   -4.7698486    4955.2431            1 
   86600     2.009692   -4.8164031    4936.5369            1 
   86700    2.0065296   -4.8077925     4903.853            1 
   86800    1.9833599   -4.7894964    4921.7075            1 
   86900    2.0222783   -4.7602333    4942.6945            1 
   87000    1.9930188   -4.8077837    4933.5806            1 
   87100    1.9688333    -4.850396    4913.0777            1 
   87200    2.0123489   -4.7708728    4900.7994            1 
   87300     2.015016    -4.801597    4940.3999            1 
   87400    1.9963189   -4.7990908     4928.617            1 
   87500    1.9992891   -4.8200159    4908.7977            1 
   87600    1.9862727   -4.7592537    4928.0218            1 
   87700    1.9651433   -4.7971786    4919.5905            1 
   87800    2.0035027   -4.7904775    4887.2593            2 
   87900    2.0255357   -4.8323189    4961.3286            1 
   88000     2.005613   -4.7988553    4919.4519            1 
   88100    2.0129479   -4.7591245    4900.5195            1 
   88200    1.9304262   -4.7750403    4950.4659            1 
   88300    2.0421169   -4.8048384    4907.6729            1 
   88400    1.9712214   -4.7724863    4919.3299            2 
   88500      1.99925   -4.7984023    4948.4675       -1e+20 
   88600    2.0190748   -4.8428835     4873.862       -1e+20 
   88700    1.9407136   -4.8510386     4900.293            1 
   88800     1.990037   -4.8171012    4927.4071            1 
   88900    2.0231593   -4.7440222    4918.3603            1 
   89000    1.9563061   -4.7851793    4945.4505            2 
   89100    2.0051196   -4.8005508    4894.4969            2 
   89200    2.0006416   -4.8029787    4908.5951            1 
   89300    1.9932929    -4.792126    4947.8108            2 
   89400    2.0225152   -4.7958914    4919.5927            1 
   89500    1.9980241     -4.82686    4885.4369       -1e+20 
   89600    1.9678921   -4.8332842    4900.6301            1 
   89700    1.9880856   -4.7874243    4912.0655            1 
   89800    1.9953564   -4.7490395    4939.3835       -1e+20 
   89900     2.004409   -4.7976871    4941.8254            1 
   90000    1.9964631   -4.8041456     4903.543            1 
   90100    2.0519074    -4.803269    4918.0797            1 
   90200    1.9397666   -4.7702389    4954.2683            1 
   90300    2.0271588   -4.8179559    4892.0931            1 
   90400    2.0080872   -4.8071634    4920.1147            1 
   90500    1.9988767   -4.8317697    4911.7346            1 
   90600    1.9760895   -4.7650786    4919.4108            1 
   90700    1.9836459   -4.7651277    4942.2853       -1e+20 
   90800    2.0126148   -4.8145079    4925.1881            1 
   90900    2.0047494    -4.833019     4882.387            2 
   91000    2.0023328   -4.8214052    4916.2635            1 
   91100      2.01518   -4.7972503    4939.3337            1 
   91200    2.0147096   -4.7825509    4917.7886            1 
   91300    2.0239879   -4.8423778    4915.5086            1 
   91400    1.9631616   -4.8300761    4922.8407            1 
   91500    2.0084919   -4.7928607    4874.2096            1 
   91600    1.9793396   -4.8007927    4916.4271            3 
   91700    2.0152737   -4.8213284    4943.8112            1 
   91800    2.0124553   -4.7473505    4918.9812            2 
   91900     2.006652   -4.8181413     4914.886            1 
   92000    1.9747794   -4.8105798    4930.4819            1 
   92100    2.0342162   -4.7707953    4916.7355            1 
   92200    1.9780709   -4.7788786    4926.2809       -1e+20 
   92300    2.0205663   -4.7491984    4944.9199            1 
   92400    2.0293669   -4.7606517    4952.1072            1 
   92500    1.9817863   -4.7885496    4963.6431            1 
   92600    1.9989988   -4.7534833    4901.3066            1 
   92700    2.0255002   -4.7584833    4930.4204            1 
   92800    1.9734032   -4.7719931    4960.7772            1 
   92900    2.0408929   -4.8279925    4920.6691            1 
   93000    2.0051463   -4.8142727    4907.2489            1 
   93100    1.9736275   -4.7982214    4943.9529            1 
   93200    2.0589009   -4.8017737    4914.5008            1 
   93300    1.9775057   -4.7935524    4930.3492       -1e+20 
   93400    1.9907073   -4.8121971     4904.437            1 
   93500     2.006293   -4.7973924    4904.6755            1 
   93600    2.0009558   -4.8246409     4904.826            1 
   93700    1.9946874   -4.8093309    4921.5051       -1e+20 
   93800    2.0235519   -4.8025749    4924.9636            1 
   93900    1.9814107   -4.8077513    4891.3197            1 
   94000     1.935433   -4.8830067    4904.9646            1 
   94100    1.9974777   -4.8223642    4866.3827            1 
   94200    1.9836932   -4.7626082    4916.4092            2 
   94300    2.0041531   -4.8241205    4948.7973       -1e+20 
   94400    2.0074855   -4.8240556    4904.9048            1 
   94500    1.9868982   -4.7858452      4904.01            2 
   94600    1.9901572   -4.7743773    4950.2281       -1e+20 
   94700    2.0070333   -4.8062338    4924.1194            1 
   94800    1.9822805   -4.7744621    4926.6679            1 
   94900    1.9917049   -4.7922255    4915.1465            1 
   95000    2.0222403   -4.8283352    4909.5487            1 
   95100    2.0082816   -4.7847922    4945.8768            1 
   95200    2.0130347   -4.7926517    4921.5071            1 
   95300    1.9883792   -4.7894829    4900.5994            1 
   95400    2.0063997   -4.7661523     4942.505            1 
   95500     2.023117   -4.7900049     4916.584            2 
   95600    2.0063922   -4.8270699     4944.759            1 
   95700    1.9685953   -4.7955043    4914.8719            1 
   95800    2.0199587   -4.7775934    4894.3911            1 
   95900      1.98659   -4.8439298    4980.9301       -1e+20 
   96000    2.0460678   -4.7995915    4929.1379            1 
   96100    2.0309666   -4.7765941    4928.4485            2 
   96200    1.9499605   -4.7965032     4949.493            2 
   96300    2.0497356   -4.8052022    4905.7939            1 
   96400    2.0191655   -4.8161379    4920.8332            1 
   96500    1.9997323   -4.8251335    4904.5937       -1e+20 
   96600    2.0326054   -4.8164656    4922.7504            1 
   96700    1.9754982   -4.7671848    4926.3622            1 
   96800    2.0228042    -4.787115    4907.8769            1 
   96900    1.9824359   -4.8614964    4934.5371            2 
   97000    1.9841384   -4.7869739    4919.7451            1 
   97100    2.0348505   -4.7989869    4920.1232       -1e+20 
   97200    1.9832593   -4.7973544    4907.9546            1 
   97300    2.0161092   -4.7931873    4909.8955            2 
   97400    2.0330742   -4.7337607    4959.1979       -1e+20 
   97500    1.9794097   -4.7238407       4953.8       -1e+20 
   97600    2.0558703   -4.8291212    4930.3798            1 
   97700    1.9601815   -4.7845615     4905.657            1 
   97800    2.0147281   -4.7857221    4922.4754            1 
   97900    2.0097218   -4.8111952      4910.19            1 
   98000    2.0038048   -4.8704354    4899.0516            1 
   98100    1.9947163   -4.7796536    4908.6174       -1e+20 
   98200    2.0179123   -4.8000735    4960.3943            1 
   98300    1.9755859    -4.790117    4939.2823            2 
   98400    2.0366766   -4.8192053    4882.9102            1 
   98500    1.9606503   -4.8582572    4917.7287       -1e+20 
   98600    1.9697308    -4.801112    4921.0584            1 
   98700    2.0364707   -4.8182846    4899.9288            1 
   98800    1.9546523    -4.795513    4923.7412       -1e+20 
   98900    2.0289372   -4.7906821    4927.1434            1 
   99000    1.9995103   -4.7720024    4918.0613            1 
   99100    1.9702828   -4.8554133    4921.2079            1 
   99200    2.0218306   -4.8285748    4882.9695            1 
   99300    2.0156314   -4.7922771    4912.8429            1 
   99400    1.9717385   -4.7620561    4946.4512            1 
   99500     1.990753    -4.880392    4899.9781            1 
   99600    2.0100006   -4.8356305    4883.0619            1 
   99700    2.0008352   -4.7991635    4924.7921            2 
   99800    2.0047913   -4.7816057    4952.2451            1 
   99900    1.9938686   -4.8070183    4902.7091            1 
  100000    1.9963545   -4.8410735    4902.7821            1 
  100100    1.9958113   -4.8165955    4937.3759            1 
  100200    2.0120276   -4.7751509    4920.0727            1 
  100300    2.0313053   -4.8929575    4904.1123            1 
  100400    1.9790826   -4.8496554    4907.6777       -1e+20 
  100500    2.0267138   -4.8292848    4899.0821       -1e+20 
  100600    1.9948566   -4.8061303    4940.0417       -1e+20 
  100700    2.0030615   -4.7856819    4926.1014            1 
  100800    2.0158897   -4.7888699    4923.6394       -1e+20 
  100900     1.966762   -4.8079495    4929.6402            1 
  101000    1.9964226   -4.8262028    4879.9674            1 
  101100    2.0255846   -4.8142247    4952.7424            1 
  101200    1.9963881   -4.8180543    4933.3047            1 
  101300    2.0257907   -4.8137679    4876.1193            1 
  101400    1.9682734   -4.8342407    4925.2989            1 
  101500    2.0257304   -4.8380925    4913.4578            2 
  101600    1.9596396   -4.7988527    4897.8926            1 
  101700     2.012772   -4.7825265    4921.6646       -1e+20 
  101800    2.0109095   -4.7909975    4934.5258       -1e+20 
  101900    1.9667645   -4.8338445    4907.2932       -1e+20 
  102000    1.9831102   -4.8017924    4909.4461            1 
  102100    2.0187355   -4.8017366    4887.0819            1 
  102200    1.9722557   -4.8199887    4908.9644       -1e+20 
  102300    2.0240728   -4.8246342    4920.6875            2 
  102400    2.0121527   -4.7904487    4906.9122            3 
  102500    1.9379649    -4.798502    4932.6333            1 
  102600    2.0240297     -4.78534    4904.8262            1 
  102700    2.0306385   -4.7929146    4934.7499       -1e+20 
  102800    1.9917485   -4.8131921    4926.9387            1 
  102900     1.979968   -4.7641558     4925.691            1 
  103000    2.0468423   -4.8065751    4942.9096            1 
  103100    1.9932827   -4.8139494    4923.5785            1 
  103200    2.0000862   -4.7691532    4916.0942       -1e+20 
  103300    1.9801502   -4.7446304    4931.1878            2 
  103400    2.0066413   -4.7911454    4913.5471            1 
  103500    1.9511472   -4.8039939    4906.1741            1 
  103600    2.0196133   -4.8060772    4933.3869       -1e+20 
  103700    2.0211644   -4.7852665    4912.8243       -1e+20 
  103800    1.9376117   -4.8038212    4919.5045            2 
  103900    1.9971617   -4.8128253    4934.7456            1 
  104000    2.0303206   -4.7877358    4906.1315            1 
Loop time of 266.582 on 18 procs for 100000 steps with 4000 atoms

Performance: 64820.632 tau/day, 375.119 timesteps/s
99.6% CPU use with 18 MPI tasks x no OpenMP threads

MPI task timing breakdown:
Section |  min time  |  avg time  |  max time  |%varavg| %total
---------------------------------------------------------------
Pair    | 30.914     | 32.646     | 33.873     |  14.4 | 12.25
Neigh   | 6.18       | 6.3336     | 6.4222     |   2.8 |  2.38
Comm    | 11.319     | 14.872     | 18.446     |  45.7 |  5.58
Output  | 5.6926     | 5.6938     | 5.7095     |   0.2 |  2.14
Modify  | 202.65     | 205.06     | 208.19     |  12.0 | 76.92
Other   |            | 1.979      |            |       |  0.74

Nlocal:        222.222 ave         235 max         213 min
Histogram: 2 0 3 4 4 1 2 1 0 1
Nghost:        2094.44 ave        2123 max        2067 min
Histogram: 1 1 2 3 2 5 1 1 0 2
Neighs:        20662.1 ave       22740 max       18773 min
Histogram: 1 1 2 3 2 4 2 2 0 1
FullNghs:      41325.1 ave       44349 max       38940 min
Histogram: 2 0 2 5 1 3 3 1 0 1

Total # of neighbors = 743852
Ave neighs/atom = 185.96300
Neighbor list builds = 8356
Dangerous builds = 313

#clear
#
#next RN
#
#jump SELF
Total wall time: 0:04:28
