
units lj                  # Use reduced LJ style units
atom_style atomic         # Uncharged point particles
atom_modify map hash      # Needed for indexing of clusters etc
                          # Used to be able to find where atoms are in relation to each other.

lattice fcc 1.0 spacing 1 1 1
Lattice spacing in x,y,z = 1.5874011 1.5874011 1.5874011
region box block 0 10 0 10 0 10 units lattice
create_box 2 box
Created orthogonal box = (0.0000000 0.0000000 0.0000000) to (15.874011 15.874011 15.874011)
  3 by 4 by 4 MPI processor grid
create_atoms 1 box
Created 4000 atoms
  using lattice units in orthogonal box = (0.0000000 0.0000000 0.0000000) to (15.874011 15.874011 15.874011)
  create_atoms CPU = 0.003 seconds
set type 1 type/fraction 2 0.35 78393
Setting atom values ...
  1418 settings made for type/fraction
mass 1 1.0
mass 2 1.0
pair_style lj/cut  3.5
pair_modify tail  yes
pair_coeff 1  1  1.0  1.0   # Intearaction between 1 and 1 set with epsilon = 1 and sigma = 1
pair_coeff 1  2  1.5  0.8
pair_coeff 2  2  0.5  0.88

write_data data.0
System init for write_data ...
Neighbor list info ...
  update every 1 steps, delay 10 steps, check yes
  max neighbors/atom: 2000, page size: 100000
  master list distance cutoff = 3.8
  ghost atom cutoff = 3.8
  binsize = 1.9, bins = 9 9 9
  1 neighbor lists, perpetual/occasional/extra = 1 0 0
  (1) pair lj/cut, perpetual
      attributes: half, newton on
      pair build: half/bin/atomonly/newton
      stencil: half/bin/3d
      bin: standard
WARNING: Not all mixed pair coeffs generated from mixing. Use write_data with 'pair ij' option to store all pair coeffs. (../write_data.cpp:312)


#############################
#   M E L T   S Y S T E M   #
#############################

velocity all create 2.4 1741580 mom yes dist gaussian # Assign velocities
                                                    # Temperature 2.4, random number seed, zero linear momentum
                                                                                # Gaussian distribution

timestep 0.002   # simulation timestep
thermo 1000       # output thermodynamic data every 1000 steps bf 100

# Define a fix  in this case with index 1 applied to all
# particles in the simulation. This fix is for simulations
# in the anisotropic NPT ensemble. Note that we use the MTK
# correction.
fix 1 all npt temp 2.4 2.4 0.1 iso 5.68 5.68 0.5 mtk yes tchain 5 pchain 5 # Use NPT ensemble
                                                                         # Set temperature and pressure and damping
                                                                         # Numbers of thermostats in chain and in barostat
run 10000          # run for 10000 steps
Per MPI rank memory allocation (min/avg/max) = 3.642 | 3.644 | 3.648 Mbytes
Step Temp E_pair E_mol TotEng Press Volume 
       0          2.4   -6.1483103            0   -2.5492103   -4.0910289         4000 
    1000    2.3981113   -4.9677261            0   -1.3714584    5.7760422    4036.1531 
    2000    2.3600649   -5.0193258            0   -1.4801134    5.1793573    4062.4143 
    3000    2.3882334   -5.0722218            0   -1.4907673    5.5357896    4001.4372 
    4000    2.3787686     -5.01357            0   -1.4463091    5.6551689    4028.6794 
    5000    2.4590332   -4.9707377            0     -1.28311    6.1039953    4008.9341 
    6000    2.4150786   -5.0163523            0     -1.39464    5.7334841    4008.0554 
    7000    2.3927005   -5.0265511            0   -1.4383977    5.3295739    4052.0435 
    8000    2.3767778   -5.0571724            0   -1.4928969    5.4907549    4010.3332 
    9000    2.3655221   -4.9854006            0   -1.4380045    5.5156607     4048.182 
   10000    2.3831467   -5.0554139            0   -1.4815876    5.7343194    3997.2476 
Loop time of 2.47229 on 48 procs for 10000 steps with 4000 atoms

Performance: 698946.777 tau/day, 4044.831 timesteps/s
99.6% CPU use with 48 MPI tasks x no OpenMP threads

MPI task timing breakdown:
Section |  min time  |  avg time  |  max time  |%varavg| %total
---------------------------------------------------------------
Pair    | 1.0483     | 1.142      | 1.2186     |   3.1 | 46.19
Neigh   | 0.19996    | 0.21335    | 0.22925    |   1.1 |  8.63
Comm    | 0.74446    | 0.82825    | 0.9336     |   4.4 | 33.50
Output  | 0.00024101 | 0.00024428 | 0.00030494 |   0.0 |  0.01
Modify  | 0.23697    | 0.27351    | 0.30822    |   3.4 | 11.06
Other   |            | 0.01495    |            |       |  0.60

Nlocal:        83.3333 ave          89 max          73 min
Histogram: 1 1 1 3 3 10 5 9 12 3
Nghost:        1637.83 ave        1664 max        1612 min
Histogram: 1 2 2 6 14 11 6 5 0 1
Neighs:        9547.48 ave       10402 max        8143 min
Histogram: 2 1 1 4 4 6 11 8 8 3

Total # of neighbors = 458279
Ave neighs/atom = 114.56975
Neighbor list builds = 907
Dangerous builds = 203

# Equilibrate just above the melting temperature to avoid step fn in T

fix 1 all npt temp 1.25 1.25 0.1 iso 5.68 5.68 0.5 mtk yes tchain 5 pchain 5
run 2000
Per MPI rank memory allocation (min/avg/max) = 3.643 | 3.645 | 3.649 Mbytes
Step Temp E_pair E_mol TotEng Press Volume 
   10000    2.3831467   -5.0554139            0   -1.4815876    5.7343194    3997.2476 
   11000    1.2364734   -6.9483874            0    -5.094141    5.6120481    3216.4523 
   12000    1.2675919   -6.9769325            0     -5.07602    5.7765703    3203.6147 
Loop time of 0.581318 on 48 procs for 2000 steps with 4000 atoms

Performance: 594511.433 tau/day, 3440.460 timesteps/s
99.6% CPU use with 48 MPI tasks x no OpenMP threads

MPI task timing breakdown:
Section |  min time  |  avg time  |  max time  |%varavg| %total
---------------------------------------------------------------
Pair    | 0.2531     | 0.2787     | 0.30232    |   2.0 | 47.94
Neigh   | 0.0372     | 0.039324   | 0.04233    |   0.5 |  6.76
Comm    | 0.19091    | 0.21533    | 0.24288    |   2.6 | 37.04
Output  | 5.0051e-05 | 5.143e-05  | 7.4336e-05 |   0.0 |  0.01
Modify  | 0.039068   | 0.0432     | 0.04693    |   1.1 |  7.43
Other   |            | 0.004713   |            |       |  0.81

Nlocal:        83.3333 ave          93 max          74 min
Histogram: 1 3 4 8 11 8 4 6 2 1
Nghost:        1907.81 ave        1926 max        1890 min
Histogram: 3 4 4 9 3 6 9 3 6 1
Neighs:        11912.2 ave       13604 max       10161 min
Histogram: 3 2 3 5 9 12 6 3 2 3

Total # of neighbors = 571785
Ave neighs/atom = 142.94625
Neighbor list builds = 140
Dangerous builds = 8

#############################
# L I N E A R  Q U E N C H  #
#############################

# Define solid atoms. This closely follows ten Wolde  Ruiz-Montero and Frenkel  Faraday Discuss  1996  104  93-110
# Compute components of the per-atom q6 vector
compute q6 all orientorder/atom degrees 1 6 components 6 nnn NULL cutoff 1.3 # compute the Q6 parameter.
                                                                             # Use all neighbours within 1.3 unit cell.

# get number of connections
compute coord_number all coord/atom orientorder q6 0.5

# An atom is solid if it has 8 or more connections (of a possible 14)
variable is_solid atom c_coord_number>=8
group solid dynamic all var is_solid    # Must be dynamic to update
dynamic group solid defined

# do clustering
compute cluster solid cluster/atom 1.3 # Create a cluster where all atoms within are solid and max 1.3 units from another member

# define chunks one chunk per cluster
compute clus_chunks solid chunk/atom c_cluster nchunk every compress yes  # Says which atoms are in which chunk

# count the size of each chunk
compute size_chunks solid property/chunk clus_chunks count


# Find the maximum entry in the vector of chunk sizes
variable max_n equal max(c_size_chunks)


# Thermo style which includes this variable
# thermo_style custom step temp pe vol v_max_n

thermo ${N}  # Print the thermo information every 100 steps
thermo 1000  

# Reset the npt fix at a lower temperature (below freezing)
fix 1  all npt temp  ${temp} ${temp}  0.1  iso  5.68  5.68  0.5  mtk yes tchain  5  pchain  5
fix 1  all npt temp  0.45 ${temp}  0.1  iso  5.68  5.68  0.5  mtk yes tchain  5  pchain  5
fix 1  all npt temp  0.45 0.45  0.1  iso  5.68  5.68  0.5  mtk yes tchain  5  pchain  5

dump dmp2 all dcd ${N} traj.dcd
dump dmp2 all dcd 1000 traj.dcd


compute msd all msd com yes
variable twopoint equal c_msd[4]/6/(step*dt+1.0e-6)
fix 9 all vector 10 c_msd[4]
variable fit equal slope(f_9)/6/(10*dt)
thermo_style custom step temp pe c_msd[4] v_twopoint v_fit v_max_n

fix 1 all npt temp 1.25 ${temp} 0.1 iso 5.68 5.68 0.5 mtk yes tchain 5 pchain 5
fix 1 all npt temp 1.25 0.45 0.1 iso 5.68 5.68 0.5 mtk yes tchain 5 pchain 5
run 5000000 # 5000000  # Run for this many steps
Neighbor list info ...
  update every 1 steps, delay 10 steps, check yes
  max neighbors/atom: 2000, page size: 100000
  master list distance cutoff = 3.8
  ghost atom cutoff = 3.8
  binsize = 1.9, bins = 8 8 8
  4 neighbor lists, perpetual/occasional/extra = 1 3 0
  (1) pair lj/cut, perpetual
      attributes: half, newton on
      pair build: half/bin/atomonly/newton
      stencil: half/bin/3d
      bin: standard
  (2) compute orientorder/atom, occasional
      attributes: full, newton on
      pair build: full/bin/atomonly
      stencil: full/bin/3d
      bin: standard
  (3) compute coord/atom, occasional
      attributes: full, newton on
      pair build: full/bin/atomonly
      stencil: full/bin/3d
      bin: standard
  (4) compute cluster/atom, occasional
      attributes: full, newton on
      pair build: full/bin/atomonly
      stencil: full/bin/3d
      bin: standard
Per MPI rank memory allocation (min/avg/max) = 9.818 | 9.822 | 9.827 Mbytes
Step Temp PotEng c_msd[4] v_twopoint v_fit v_max_n 
   12000    1.2675919   -6.9769325 5.9164568e-34 4.1086504e-36 8.3333333e+20            1 
   13000    1.2418081   -6.9709452   0.49727192 0.0031876404  0.040198832            2 
   14000    1.2428482   -7.0074395    0.9463832 0.0056332331  0.038977937            2 
   15000    1.2526728   -6.9888903    1.4055656 0.0078086976  0.038229882            1 
   16000    1.2487448    -7.031793    1.8438322 0.0096032922  0.037835167            1 
   17000    1.2059755   -7.0645689    2.3540071   0.01153925  0.038248514            2 
   18000    1.2342261     -7.00633    2.8220832    0.0130652  0.038675876            1 
   19000    1.2779799   -6.9757343    3.3187694  0.014556006  0.038963337            1 
   20000    1.2643156   -7.0379378    3.7870168  0.015779236  0.039180194            1 
   21000    1.2624218   -7.0612816    4.2572098  0.016893689   0.03923411            2 
   22000    1.2338024   -7.0107234     4.768441  0.018062276  0.039408802            2 
   23000    1.2447698   -6.9544787    5.2069457  0.018865745  0.039475323            1 
   24000    1.2549759   -7.0292769    5.6416502  0.019589063  0.039430898            1 
   25000    1.2488011   -7.0663324    6.0115728  0.020038576  0.039243747            2 
   26000    1.2616715   -7.0111524    6.5368637  0.020951486  0.039149337            1 
   27000    1.2464099   -6.9821513    6.9221799  0.021364752  0.038954629            1 
   28000    1.2487734   -6.9740702    7.3617294  0.021909908  0.038690902            2 
   29000    1.2382619   -7.0122131    7.8209178  0.022473901  0.038527531            1 
   30000    1.2371792   -6.9686672    8.3054974  0.023070826  0.038390147            2 
   31000    1.2377943    -6.987353    8.6899494  0.023360079  0.038263119            1 
   32000    1.2396314   -6.9888769    9.0554287  0.023581845  0.038053071            4 
   33000      1.24632    -6.978905    9.3955429  0.023726118  0.037796358            2 
   34000    1.2276244   -7.0504538    9.7718298  0.023950563  0.037508943            4 
   35000    1.2376249   -7.0242417    10.207716  0.024304085  0.037251478            1 
   36000    1.2227871    -7.015254    10.726681  0.024830279   0.03705242            1 
   37000    1.2500992   -6.9987258    11.142941  0.025096714  0.036933071            2 
   38000    1.2258499   -7.0251875    11.565703  0.025363384  0.036851024            1 
   39000    1.2449226   -7.0270156    12.016616  0.025676529  0.036763975            1 
   40000    1.2414701   -7.0470617    12.552301  0.026150628  0.036745688            1 
   41000    1.2278461   -7.0789859    13.075619  0.026576461  0.036781993            2 
   42000    1.2477713   -7.0349106    13.426644  0.026640165  0.036790082            1 
   43000    1.2264997   -7.0248751    13.878762  0.026896826  0.036811771            1 
   44000    1.2260022   -7.0639477    14.264879  0.027016815  0.036795973            1 
   45000    1.2422937   -7.0351412    14.768888  0.027349792  0.036812674            2 
   46000    1.2436299   -7.0091508    15.308249  0.027732336  0.036820148            2 
   47000     1.257548   -7.0297858    15.506858  0.027494428  0.036806914            1 
   48000    1.2441258   -6.9640166    16.159419  0.028054546  0.036806814            2 
   49000    1.2344097   -7.0234121    16.682447  0.028371508  0.036837837            1 
   50000    1.2340523   -7.0170368    17.238318  0.028730529  0.036890166            1 
   51000    1.2577314   -7.0090745    17.724189  0.028961093   0.03698022            1 
   52000    1.2482409   -7.0051128    18.186467  0.029144979  0.037049789            1 
   53000    1.2228101   -7.0425762    18.589254  0.029228386  0.037107867            1 
   54000    1.2283478   -7.0183898    19.088547  0.029457634  0.037162812            1 
   55000    1.2476947   -6.9971932    19.442937  0.029458995  0.037207402            1 
   56000    1.2333097    -6.993126    19.849089  0.029537334  0.037219696            2 
   57000    1.2197743   -7.0414196    20.235666  0.029584307   0.03723309            1 
   58000    1.2482583   -6.9677393     20.76473  0.029834381  0.037238431            1 
   59000     1.253074   -6.9682718    21.197854  0.029940472  0.037251785            2 
   60000    1.2317736   -7.0274991    21.657677  0.030080107   0.03727132            1 
   61000    1.2642074   -7.0283757    22.108888  0.030203398  0.037286957            1 
   62000    1.2440839   -6.9919869     22.37656  0.030076021  0.037279579            1 
   63000    1.2413466   -7.0235444    22.699156  0.030025339  0.037247252            1 
   64000    1.2345369   -7.0250061    23.198785  0.030206751  0.037202554            2 
   65000    1.2208119   -7.0597208    23.665813  0.030340786  0.037185542            2 
   66000    1.2479365   -7.0224081    24.264457   0.03063694    0.0371848            2 
   67000    1.2309356   -6.9797401     24.64739  0.030655957   0.03718501            2 
   68000    1.2620099   -7.0489983    25.129899  0.030796445  0.037181241            2 
   69000    1.2346003   -7.0293053    25.588417  0.030903885  0.037178174            1 
   70000    1.2574967   -7.0625232    25.864551  0.030791131  0.037161793            2 
   71000    1.2233384   -7.0467065    26.258527  0.030819867  0.037147225            1 
   72000    1.2485142     -7.04134    26.430506  0.030590864  0.037102928            2 
   73000    1.2425432   -7.0596548     26.74885  0.030535217  0.037044322            1 
   74000    1.2529071   -7.0153091    27.147814  0.030571862  0.036983059            1 
   75000     1.244846   -6.9984895    27.535219  0.030594687   0.03690608            1 
   76000    1.2268522   -7.0281202    27.962805   0.03066097  0.036828767            2 
   77000    1.2449722   -7.0491527    28.502493  0.030846854  0.036771482            1 
   78000    1.2456376   -7.0163196    28.856839  0.030829956  0.036716601            2 
   79000    1.2317712   -7.0565351    29.328949  0.030937709  0.036663583            1 
   80000     1.224907   -7.0191004    29.863239   0.03110754  0.036618898            2 
   81000    1.2753004   -7.0369518     30.48708  0.031365309  0.036603616            1 
   82000     1.265459   -7.0299121    30.684155  0.031183084  0.036583904            2 
   83000    1.2504998   -7.0247389    31.183031  0.031308264  0.036557065            3 
   84000    1.2571185   -7.0117769     31.57443  0.031323839   0.03653107            2 
   85000    1.2391537   -7.0265943    32.030352  0.031402306  0.036502954            1 
   86000    1.2391715   -7.0540075    32.328829  0.031326384  0.036476842            2 
   87000    1.2082159   -6.9833295    32.853098  0.031468484  0.036441217            1 
   88000    1.2719644   -6.9976859    33.140787  0.031383321  0.036412203            2 
   89000     1.230812   -7.0319605    33.577238  0.031439361  0.036383819            1 
   90000    1.2470912   -7.0281398    33.998497   0.03148009  0.036355964            1 
   91000    1.2140363   -7.0326796    34.538064  0.031628263  0.036329036            2 
   92000    1.2374893   -6.9954217    35.179596  0.031865576  0.036320176            2 
   93000    1.2363531   -7.0375451    35.603806  0.031903051  0.036310455            1 
   94000    1.2184055   -7.0195661    36.151751  0.032049425  0.036306322            1 
   95000    1.2291043   -7.0153565    36.671732  0.032168186  0.036308812            1 
   96000    1.2228703   -7.0214437    37.133382  0.032233838  0.036321738            1 
   97000    1.2358489   -7.0385767    37.744825  0.032426825  0.036341245            2 
   98000    1.2309156   -7.0169846    37.954796  0.032274486  0.036354071            2 
   99000    1.2521274    -7.079135    38.212697   0.03216557   0.03635771            4 
  100000     1.244455   -7.0531922    38.817277  0.032347731  0.036358673            1 
  101000    1.2391196   -7.0623971    39.326312  0.032447452   0.03636539            6 
  102000    1.2348025    -7.010561    39.814605  0.032528272  0.036376363            1 
  103000    1.2250779   -7.0648752    40.244578  0.032560338  0.036383754            2 
  104000    1.2352925   -7.0205599    40.867379  0.032746297  0.036401539            2 
  105000    1.2546017   -7.0015998    41.202458  0.032700364  0.036417455            1 
  106000    1.2256152   -7.0383435    41.746319  0.032819433  0.036432826            1 
  107000     1.223883   -7.0528145     42.26827  0.032919213  0.036454608            1 
  108000    1.2411653   -7.0158444    42.876774  0.033083931  0.036484333            1 
  109000    1.2366866   -7.0532051    43.301099  0.033104816  0.036514097            1 
  110000    1.2437674    -7.079706    43.845357  0.033216179  0.036541422            1 
  111000     1.221218   -7.0365648    44.465599  0.033382581  0.036575366            1 
  112000    1.2310076   -7.0681698    44.907001  0.033412947  0.036608426            2 
  113000    1.2504903   -7.0873911    45.173514  0.033313801  0.036638444            1 
  114000    1.2328636   -7.0025266    45.904866  0.033556188   0.03666963            1 
  115000    1.2050158   -7.0794192     46.07331  0.033386457  0.036696402            3 
  116000    1.2283853   -7.0379721    46.812233  0.033629477  0.036726247            1 
  117000    1.2230247    -7.042104    47.118345  0.033560075  0.036752362            1 
  118000    1.2116481   -7.0022451    47.609803  0.033622742  0.036774856            2 
  119000     1.229267   -7.0308451    48.080958  0.033670139  0.036800011            1 
  120000    1.2289539   -7.0301054    48.351219  0.033577235  0.036821517            1 
  121000    1.1886671   -7.0301835    48.911376   0.03368552  0.036847309            1 
  122000    1.2543658   -7.0255191    49.485278  0.033801419  0.036873141            1 
  123000    1.2568738   -7.0571765    50.140471  0.033970509  0.036902197            2 
  124000    1.2516992    -7.065738    50.738668  0.034098567   0.03693843            1 
  125000    1.2229255   -6.9955416    51.290039  0.034193359   0.03697744            2 
  126000    1.1981517   -6.9997229    51.985729  0.034382096  0.037019502            7 
  127000    1.2306374   -7.0710888    52.359668  0.034356737  0.037064491            2 
  128000    1.2457854   -7.0796729    52.568357   0.03422419  0.037098688            1 
  129000     1.239212   -7.0401898    52.784075   0.03409824  0.037125776            2 
  130000    1.2430934   -7.0474583    53.465706  0.034272888  0.037153847            1 
  131000    1.2584862   -7.0861338    53.629588  0.034115514  0.037181484            2 
  132000    1.2329998   -7.0807038    54.426067  0.034359891  0.037205037            1 
  133000    1.2097917   -7.1215647    54.671346  0.034255229  0.037228738            1 
  134000    1.2496517   -7.0284503    55.357933  0.034426575  0.037249815            1 
  135000    1.2610572   -7.0031413    56.035848   0.03459003  0.037281199            2 
  136000    1.2521014   -6.9866314    56.677618  0.034728932  0.037316258            1 
  137000     1.244745   -7.0300792    57.052143   0.03470325   0.03735521            1 
  138000     1.262386   -7.1007084    57.269061  0.034582766  0.037389294            1 
  139000    1.2116715   -7.0259128    58.021815  0.034785261  0.037418716            3 
  140000    1.2365299   -7.0537844    58.198927  0.034642218  0.037449113            1 
  141000    1.2252817   -7.0855324    58.596994  0.034631793  0.037474261            1 
  142000    1.2407486   -7.0476129    58.967762  0.034605494  0.037495707            2 
  143000    1.2275793   -7.0781234    59.522363  0.034686692  0.037518956            1 
  144000    1.2151909   -7.0350423     59.80866  0.034611493  0.037536344            1 
  145000    1.2480213   -7.0581453     60.02995  0.034499971  0.037548093            1 
  146000    1.2091291   -7.0487547      60.4457   0.03450097  0.037557451            1 
  147000    1.2521311   -7.0438611    61.145751  0.034663124  0.037565305            1 
  148000    1.2198148   -7.0356888    62.018043  0.034920069  0.037582569            2 
  149000    1.2435568   -7.0197838    62.443908  0.034923886  0.037601602            1 
  150000    1.2291566   -7.0518029    62.641689  0.034800938  0.037614938            2 
  151000    1.2163735   -7.0227684    63.076965  0.034810687  0.037625516            1 
  152000    1.2247145   -7.0714897    63.386314  0.034751269  0.037635216            1 
  153000    1.2464979   -7.0908783    63.707642  0.034699151  0.037641088            1 
  154000    1.2245969   -7.0809082    63.812386  0.034530512  0.037644177            1 
  155000    1.2191319   -7.0671983    64.365188   0.03460494  0.037646169            3 
  156000    1.2055054    -7.042606    64.733024  0.034579607  0.037644263            2 
  157000    1.2241276   -7.0755879    64.868599  0.034431316  0.037639079            1 
  158000    1.2026911   -7.0630053     65.38118  0.034483745  0.037635241            3 
  159000    1.2130046   -7.0758542    66.023543  0.034603534  0.037633772            4 
  160000    1.2395086   -7.0626404    66.595792  0.034685308  0.037631565            1 
  161000    1.2238894   -7.0518518    66.795374  0.034573175  0.037628476            2 
  162000    1.2111064   -7.0240958    67.621973  0.034784965  0.037625587            1 
  163000    1.2129791   -7.0535333    67.607004  0.034563908   0.03762148            1 
  164000     1.226628   -7.0673211    67.989694  0.034547609  0.037613677            2 
  165000    1.2472687   -7.0483735    68.712974  0.034703522  0.037608481            2 
  166000    1.2235491   -7.0928941    68.899147  0.034587925  0.037602932            1 
  167000    1.2353098   -7.0436501    69.378374  0.034619947  0.037595637            1 
  168000    1.2303896   -7.0244965    69.927868  0.034686442   0.03758997            2 
  169000    1.2200648   -7.0511453    70.453059  0.034740167  0.037584869            5 
  170000    1.1996502   -7.0643979    70.795479  0.034703666  0.037579223            1 
  171000    1.2181825   -7.0831735    71.236365  0.034715577  0.037573992            2 
  172000    1.2388896   -7.0977518     71.46507  0.034624549  0.037568831            2 
  173000    1.2220104   -7.0515883    72.469933  0.034908446  0.037566152            1 
  174000    1.2316437   -7.0580473    72.772445  0.034852703  0.037565698            3 
  175000    1.2190296   -7.0724149    73.007536  0.034765493  0.037563343            1 
  176000    1.2443167   -7.0843895    73.916298  0.034998247  0.037564371            3 
  177000     1.229356   -7.0791445    74.628207  0.035135691  0.037570636            1 
  178000    1.2080649   -7.0816926    75.123957  0.035170392  0.037579399            1 
  179000     1.208244   -7.0486331    75.913295  0.035341385  0.037588527            2 
  180000    1.2594204   -7.0808398    75.924296  0.035150137  0.037598563            1 
  181000    1.2120993    -7.050463    76.675379   0.03530174  0.037606312            4 
  182000    1.2198448   -7.0284463    77.049838   0.03527923  0.037612451            2 
  183000    1.2176768   -7.0554843     77.13741  0.035126325  0.037615654            2 
  184000    1.2279447    -7.085536    77.422963  0.035064748  0.037619885            3 
  185000    1.2178207   -7.0642099    78.349488  0.035292562  0.037623367            1 
  186000    1.2140283   -7.0807719    78.284651  0.035073768  0.037628026            3 
  187000    1.2112393   -7.0611809    78.696268  0.035069638   0.03763092            1 
  188000    1.2259447    -7.055778    79.296199  0.035149025  0.037632925            2 
  189000    1.2172777   -7.0479092    79.746034  0.035161391  0.037634595            4 
  190000    1.2458036   -7.0163464    80.493742  0.035304273  0.037635866            2 
  191000     1.215371   -7.0795424    80.507455  0.035125416  0.037637066            2 
  192000    1.2240984   -7.0437073    81.340921  0.035304219  0.037638161            1 
  193000    1.2225846   -7.0630769    81.594326   0.03523071  0.037642159            1 
  194000    1.2214011    -7.068581    82.073969  0.035255141  0.037645063            1 
  195000    1.2000776   -7.0710482    82.421482  0.035222855   0.03764609            1 
  196000    1.2308824   -7.0661704     82.94226  0.035264566  0.037646084            3 
  197000     1.220141   -7.0313559    83.552043  0.035343504  0.037646665            1 
  198000    1.2208069   -7.0588075    83.664437  0.035212305  0.037646246            1 
  199000    1.2227785   -7.0603096    84.225845  0.035270454  0.037645099            1 
  200000    1.2077179   -7.0525732    84.380966  0.035158736  0.037642717            3 
  201000    1.2300543   -7.0685653    84.860329  0.035182558  0.037640832            1 
  202000    1.2244486   -7.0782268    85.432031  0.035244237  0.037638707            1 
  203000     1.243456   -7.0880134    85.599996  0.035139571  0.037634275            1 
  204000    1.2316922   -7.0258774    86.365169  0.035279889  0.037630087            2 
  205000    1.2243379   -7.0720745    86.340668  0.035097832  0.037625114            1 
  206000    1.2362944   -7.0501663    87.172042  0.035263771  0.037620566            1 
  207000    1.1817947   -7.0871706    87.655932  0.035288217  0.037619804            1 
  208000    1.2019132   -7.0693352    88.367886    0.0354038  0.037619043            3 
  209000    1.2031382   -7.0665332    89.017685  0.035493495  0.037622439            1 
  210000    1.2107555   -7.0326322    89.549731  0.035535607  0.037626261            5 
  211000    1.1938671    -7.068098    90.060857  0.035569059  0.037632333            1 
  212000    1.2036948   -7.0627243    90.626237  0.035623521  0.037635971            2 
  213000    1.2165131   -7.0528478    90.814353  0.035529872  0.037638497            1 
  214000    1.2206548   -7.0671765    90.928093  0.035408136  0.037638659            2 
  215000    1.2462192   -7.0831893    91.012573  0.035276191  0.037635252            2 
  216000    1.2138127   -7.1034048     91.33204  0.035236126  0.037631555            4 
  217000    1.1886311   -7.0976861    91.945105   0.03530918  0.037626785            2 
  218000    1.1895193    -7.084747    92.457208  0.035342969  0.037623082            2 
  219000    1.2168167   -7.0487398    93.049393  0.035406923   0.03761919            1 
  220000    1.1973483   -7.0722596    93.056706  0.035248752  0.037614595            1 
  221000    1.2275345   -7.1052836    93.830197  0.035380919  0.037611888            1 
  222000    1.2094691   -7.0715577    94.587239   0.03550572  0.037609343            1 
  223000    1.2396087   -7.1080744    94.599278  0.035351001  0.037607476            2 
  224000    1.2309281   -7.1072904    95.125185  0.035388834  0.037606654            1 
  225000    1.2105773   -7.0889829    95.563866  0.035394024  0.037604047            2 
  226000    1.1943883    -7.053572    96.118529  0.035441936  0.037601001            1 
  227000    1.2110286   -7.1244475    96.466515  0.035413552  0.037599298            1 
  228000    1.2020467   -7.0789397    97.224293  0.035535195  0.037597648            2 
  229000    1.2314206   -7.0522927    97.378927  0.035436291  0.037597035            1 
  230000    1.2184234   -7.0527574    98.023626  0.035515806  0.037594538            1 
  231000     1.228629   -7.1334354    97.608983  0.035212476  0.037588806            1 
  232000    1.2110379   -7.0766475    98.308852  0.035312088   0.03758117            1 
  233000      1.23176   -7.0942514    98.741662   0.03531533  0.037575941            2 
  234000    1.2000362   -7.1115874    99.538678  0.035448247   0.03757019            1 
  235000    1.2248209    -7.027664    100.15673  0.035516571  0.037569182            2 
  236000    1.2051403   -7.0864312    100.42548  0.035460976  0.037566941            2 
  237000    1.2184021   -7.0659091    100.79197  0.035440214  0.037563882            2 
  238000    1.2180787    -7.076235    101.26895  0.035458316  0.037560421            1 
  239000    1.2073108   -7.1041191    101.98832  0.035560781   0.03755699            1 
  240000    1.2240267   -7.1354356    102.22717  0.035495545  0.037554142            2 
  241000    1.2190768    -7.083038    102.81753  0.035552395  0.037550569            1 
  242000    1.2542978   -7.1099189    103.24986  0.035554358  0.037547791            2 
  243000    1.2361932   -7.0733672    103.38299  0.035453699  0.037545415            1 
  244000    1.2217763   -7.1055591    103.76993  0.035440549  0.037540418            2 
  245000    1.2170912   -7.0947762    104.41169  0.035514179  0.037535784            1 
  246000    1.1916442   -7.0924243    104.75417  0.035485831  0.037530465            1 
  247000    1.2367233   -7.1159889    104.83458  0.035369291  0.037523891            2 
  248000    1.1946785    -7.092253    104.87437  0.035240043  0.037515694            2 
  249000    1.2257815   -7.0835782    105.83159  0.035418871  0.037504913            1 
  250000    1.2266498   -7.0714287    106.29297   0.03543099  0.037498141            1 
  251000    1.1970467   -7.1029696    106.94172   0.03550522  0.037491887            2 
  252000    1.1972278   -7.0643065    107.34448  0.035497514  0.037486113            1 
  253000    1.2067289    -7.112273    107.89645  0.035539014  0.037480983            1 
  254000    1.2214314   -7.0705115    107.97883  0.035426126  0.037475359            3 
  255000    1.2116071   -7.1146321    108.23239  0.035370061  0.037469101            2 
  256000    1.2146422   -7.0615363    108.86256  0.035437032   0.03746304            1 
  257000    1.2081652    -7.072263    109.20409  0.035409885  0.037457873            4 
  258000    1.2231494   -7.0380911    109.95844  0.035516292  0.037452268            4 
  259000    1.1976551   -7.0531751    110.26083  0.035476457  0.037446319            1 
  260000     1.223108   -7.1138232    110.71979  0.035487112  0.037440158            2 
  261000    1.1928632   -7.0799407    110.79045  0.035373707  0.037432453            1 
  262000    1.2169507   -7.0572143    111.53176  0.035474477  0.037425621            2 
  263000    1.2089819   -7.0928597    111.66392   0.03538147  0.037417088            1 
  264000    1.1781437    -7.117541    111.87033  0.035312604  0.037409014            1 
  265000    1.1836897     -7.07821    112.38096  0.035339923  0.037401014            2 
  266000    1.2382965   -7.0759884    112.38516  0.035208384  0.037389669            1 
  267000    1.2123949   -7.0895834    112.95115  0.035253167  0.037378766            1 
  268000    1.2052423   -7.0477124    113.85104  0.035401442  0.037368087            1 
  269000    1.1940541   -7.0866019    113.78408  0.035249097  0.037358855            2 
  270000    1.2110608   -7.0658788     114.2918  0.035275247  0.037351582            1 
  271000    1.2027711   -7.0994045    114.92376   0.03533941  0.037342468            1 
  272000    1.2027776   -7.0619912    115.62299  0.035423709  0.037334866            2 
  273000    1.1744288   -7.1162454    115.44892  0.035240819  0.037326752            1 
  274000    1.1966367   -7.0899388    116.03186  0.035289494  0.037318714            1 
  275000    1.1959909     -7.09651    116.69545  0.035362258  0.037310154            3 
  276000     1.195101   -7.1450698    116.98655  0.035322025  0.037301311            1 
  277000    1.1913092   -7.1533346    116.97592  0.035191313  0.037291092            1 
  278000    1.1802276   -7.1253254    118.07063  0.035392876  0.037281142            3 
  279000    1.1938618   -7.0922508    118.55314  0.035410138  0.037271464            1 
  280000    1.2295259   -7.0771397    119.05927  0.035434308   0.03726334            2 
  281000    1.1869251    -7.106505    119.37044  0.035400485  0.037254542            2 
  282000    1.2340845   -7.1031834    119.70721  0.035374472  0.037247465            2 
  283000    1.1864552   -7.1200926    120.29667  0.035423046  0.037240292            1 
  284000    1.2202562   -7.1172567    120.53759  0.035369011  0.037234476            3 
  285000    1.2139126   -7.1186568    121.07177  0.035401103  0.037228572            1 
  286000    1.1910786   -7.1327952    121.11373  0.035289547  0.037220269            2 
  287000    1.2062953   -7.1423944    121.28956  0.035217643  0.037211055            3 
  288000    1.2086214   -7.0883093    121.81363  0.035246999  0.037201547            1 
  289000    1.2044929   -7.0934168    122.54485  0.035335885  0.037191896            5 
  290000    1.2079816   -7.0969989    122.35551  0.035159628  0.037182051            1 
  291000    1.2158002   -7.0929485    123.01869  0.035228721  0.037171371            1 
  292000    1.1996438   -7.1016791    123.56121  0.035262902   0.03716146            2 
  293000    1.2093295   -7.1323414    123.80619  0.035212227  0.037151369            1 
  294000    1.2195011   -7.1565976    123.91642  0.035123703  0.037140507            2 
  295000    1.2049833   -7.1452631    124.40512  0.035142689  0.037129506            2 
  296000    1.2128957   -7.0743163    124.79755  0.035134444  0.037117048            1 
  297000    1.2052364   -7.1006041     125.3056  0.035158697  0.037104349            1 
  298000    1.2065646   -7.0490265     125.6989  0.035150698  0.037091927            3 
  299000    1.2118731   -7.1085677    126.16104  0.035161939  0.037080361            2 
  300000    1.1909201   -7.1429462    126.15217  0.035042268  0.037068288            2 
  301000    1.1994864    -7.099105    126.59643  0.035048846  0.037055455            1 
  302000    1.2045054   -7.1343772    126.95449  0.035031592  0.037042944            1 
  303000    1.1902906   -7.0966687    128.11292  0.035234577  0.037030729            1 
  304000    1.1860209   -7.0997793    128.35359  0.035184645  0.037020635            3 
  305000    1.2220551    -7.130808    128.76614  0.035182006  0.037010125            2 
  306000    1.1845478   -7.1115025      128.908  0.035105666  0.036998077            2 
  307000    1.2340111   -7.1183083     129.6971  0.035205511  0.036986337            2 
  308000    1.2054112   -7.1116527    129.49383  0.035036209   0.03697585            1 
  309000    1.2139075   -7.1169814    129.95463  0.035047094  0.036965347            1 
  310000    1.2149187   -7.1333723    130.27495  0.035020148  0.036953594            1 
  311000    1.1898016   -7.1281052    131.10019  0.035128668  0.036941951            3 
  312000    1.2014655   -7.1438256    131.60138  0.035149942  0.036930576            1 
  313000    1.1770386   -7.1177102       132.01  0.035146433  0.036919521            3 
  314000    1.1938824   -7.1165088     131.7402  0.034962898  0.036907803            2 
  315000    1.2002917   -7.1043117    132.54808   0.03506563   0.03689699            1 
  316000    1.2034353   -7.1823694    132.90248  0.035048121   0.03688657            2 
  317000    1.2032403   -7.1009703    133.47654  0.035088471  0.036875313            2 
  318000    1.1909256   -7.0694183    134.46386   0.03523686  0.036866558            2 
  319000    1.1990659   -7.1239713    134.50506  0.035137163  0.036856673            1 
  320000    1.1866062   -7.1055479     135.0203  0.035161535  0.036845528            2 
  321000    1.2038633   -7.1483187    135.04345  0.035058009  0.036834486            2 
  322000    1.1992202   -7.0676556     135.2976  0.035014906  0.036823064            1 
  323000    1.2113244   -7.1227624    135.65389  0.034998423  0.036812337            1 
  324000    1.1921335   -7.1065836    136.17712  0.035024979  0.036802254            1 
  325000    1.1856945   -7.1215142    136.82456   0.03508322  0.036791153            1 
  326000    1.1906564   -7.1152974    137.36384  0.035113457  0.036780266            1 
  327000    1.1951894   -7.0977015     137.4415  0.035025865  0.036770078            2 
  328000    1.2106817   -7.1230487     137.9907  0.035058614  0.036759873            2 
  329000    1.2147997   -7.1062906    138.28523  0.035026655  0.036748641            1 
  330000    1.2000395   -7.1366253    138.20065  0.034899153  0.036736188            1 
  331000    1.1940013   -7.0550148    139.41209  0.035098715  0.036724083            1 
  332000    1.1952328   -7.1650568    138.82165  0.034844792  0.036711586            3 
  333000    1.2057326   -7.1569038    139.13668  0.034818988  0.036698141            2 
  334000    1.2279496    -7.185748    139.84961  0.034892617   0.03668557            1 
  335000    1.1975051   -7.1408857    140.01269  0.034829028  0.036671751            3 
  336000    1.2082581   -7.1436352    140.39943  0.034821288  0.036658114            3 
  337000    1.2069777   -7.1120666    141.70046   0.03503968  0.036645698            2 
  338000    1.1927257   -7.1033778    141.85495  0.034974099  0.036633388            1 
  339000    1.1766732   -7.0943748    142.16921  0.034948184   0.03662167            1 
  340000    1.2134599   -7.1351556    141.92095  0.034784547   0.03660944       -1e+20 
  341000    1.2008417   -7.1317932    143.03762  0.034955431   0.03659747            1 
  342000    1.1930282   -7.0902618    143.50055  0.034966022   0.03658575            1 
  343000    1.1948091   -7.1269869    143.44709   0.03485109  0.036573898            4 
  344000    1.2081356   -7.1376537    143.81896  0.034839864   0.03656182            2 
  345000    1.1812271   -7.0686318    144.55935  0.034917717  0.036550626            1 
  346000    1.1808495   -7.1582325    144.15549   0.03471953  0.036538352            2 
  347000    1.1911314   -7.1006931    145.16285  0.034861396  0.036526675            1 
  348000      1.19592    -7.076015    146.49529  0.035080289  0.036514326            3 
  349000    1.1980537   -7.1401786    146.08821  0.034882571  0.036503482            1 
  350000     1.210656   -7.1097121    147.06939  0.035016521  0.036493665            3 
  351000    1.1975945   -7.1035915    147.33745  0.034980401  0.036483899            3 
  352000    1.2174853   -7.1455212    146.93258  0.034785176  0.036473049            1 
  353000    1.2057779   -7.1572192    147.94967  0.034926741  0.036461737            1 
  354000    1.2113375   -7.0920826    148.05943  0.034853915  0.036450805            1 
  355000    1.1673874   -7.1356486    148.36046  0.034826398  0.036439731            2 
  356000    1.1898851   -7.1622787    148.61832  0.034788933  0.036428197            2 
  357000    1.2288323   -7.1200964    149.23085  0.034834465   0.03641669            2 
  358000    1.1797789   -7.1650259    149.04972  0.034695001  0.036404612            1 
  359000    1.2010444    -7.087658    150.32086  0.034893422  0.036392296            3 
  360000    1.1796715   -7.1322073     150.3025  0.034792246  0.036380598            3 
  361000     1.198023   -7.1518398    150.33556  0.034703499  0.036368714            1 
  362000    1.1721647   -7.1336822    150.68218  0.034687426  0.036355735            1 
  363000    1.2030703   -7.1336591    151.64903  0.034813828  0.036342451            1 
  364000    1.2040234    -7.158339    151.84041  0.034761999  0.036329948            2 
  365000    1.2126003   -7.1442738    151.96872  0.034696056  0.036317078            3 
  366000    1.1812295   -7.0882127    152.33149  0.034683855   0.03630447            2 
  367000    1.2007827   -7.1143476    152.98993  0.034738857  0.036292733            1 
  368000    1.1927477   -7.1250938    153.85515  0.034840387  0.036280932            2 
  369000    1.1797754   -7.1065679     154.0459  0.034789047  0.036268841            1 
  370000    1.1805998   -7.1283292    154.93716  0.034895758  0.036257891            2 
  371000    1.1957159   -7.1377651    154.45511  0.034693421  0.036246171            1 
  372000    1.2080938   -7.1568592    153.97467  0.034492533   0.03623378            1 
  373000     1.211277    -7.099439    155.19943  0.034673688  0.036220449            1 
  374000    1.2138339   -7.0973066    155.42396  0.034631008  0.036207721            1 
  375000    1.2011322   -7.1304662    156.15751  0.034701669  0.036195569            2 
  376000    1.1788537   -7.1348873    155.87953  0.034547769  0.036182142            2 
  377000    1.1879935   -7.1468128    155.80393  0.034439418  0.036168053            1 
  378000     1.184772    -7.117699    156.77983  0.034563454  0.036154523            2 
  379000    1.1796375   -7.0922772    157.50968  0.034632735  0.036141797            3 
  380000    1.2045013   -7.1439985    157.88998  0.034624996  0.036129928            1 
  381000    1.1724556   -7.1381027    157.57129  0.034464411  0.036116791            1 
  382000    1.1746324   -7.1480126     157.5711   0.03437415  0.036102855            2 
  383000    1.1804305   -7.1670246    158.52942  0.034492912  0.036089209            1 
  384000    1.2021737   -7.1727241    158.55685  0.034409038  0.036075104            2 
  385000    1.2039976   -7.1393363    159.33318  0.034487702  0.036061192            1 
  386000    1.1887174   -7.1273511    160.49895  0.034650032   0.03604771            1 
  387000    1.2061853   -7.1299893    159.68283  0.034384761  0.036034211            1 
  388000    1.1992006   -7.1594867    160.47099  0.034465419  0.036020066            1 
  389000    1.1882242   -7.1444774    160.46087  0.034374652  0.036005448            1 
  390000    1.1930541   -7.1265955    161.12957  0.034429396  0.035992294            2 
  391000    1.1895146   -7.1442787    161.20291  0.034356972    0.0359775            1 
  392000    1.1855675   -7.1372755     161.9322  0.034424361  0.035963185            4 
  393000    1.1784814   -7.1418813     162.3797  0.034431657   0.03594923            1 
  394000    1.1990722   -7.1378584    162.75752  0.034424179  0.035935762            2 
  395000    1.2175718   -7.1072722    163.21973  0.034434542  0.035922005            1 
  396000    1.1887465   -7.1651284    163.19078  0.034341494  0.035907951            2 
  397000    1.1576159   -7.1729295     163.4226  0.034303651  0.035893369            1 
  398000     1.192753   -7.1694658    163.57415  0.034249193  0.035879721            2 
  399000    1.2002587    -7.119212    164.50253  0.034357253  0.035865333            2 
  400000    1.1933527   -7.1447999    164.17257  0.034202619  0.035850964            2 
  401000    1.1825676   -7.1294312    164.67938  0.034222648  0.035836604            8 
  402000    1.1989585   -7.1635492    166.02149  0.034415732  0.035822873            2 
  403000    1.1718663   -7.1159355    166.60777  0.034451565  0.035808664            1 
  404000    1.1686045   -7.1539485    165.98738   0.03423832  0.035795523            3 
  405000    1.1850266   -7.1392654    167.04624  0.034371655  0.035783292            2 
  406000    1.1882457   -7.1147924    167.54827   0.03439004  0.035771039            4 
  407000    1.1761115   -7.1613167     167.3327  0.034261405   0.03575867            2 
  408000    1.1986966   -7.1816978    167.91412  0.034296185  0.035746448       -1e+20 
  409000    1.1813274   -7.1437728    168.80865   0.03439459  0.035733772            4 
  410000    1.1774752   -7.1424835    169.19415  0.034389054  0.035721377            2 
  411000    1.1782417   -7.1599342    169.72558  0.034413134  0.035709921       -1e+20 
  412000     1.182771   -7.1525991     169.9238    0.0343697  0.035699124            3 
  413000     1.155119    -7.141658    170.08161  0.034318323  0.035687923            3 
  414000    1.2044317   -7.1410873    170.59181  0.034338126  0.035676302            1 
  415000    1.1766518   -7.1138615    171.12096  0.034361638  0.035664158            1 
  416000     1.159616   -7.1314344    170.35943  0.034126489  0.035651815            3 
  417000    1.2010864   -7.1073019      171.728  0.034318145  0.035638751            2 
  418000    1.1716351   -7.1362519    172.11017  0.034312235  0.035626048            1 
  419000    1.2032838   -7.1299861     171.7055   0.03414986  0.035613025            1 
  420000    1.1717716   -7.1716777    171.67842  0.034063178   0.03559972            2 
  421000     1.207516   -7.1869744    172.44014  0.034133045  0.035586836            2 
  422000    1.1953456   -7.1544292    172.90018  0.034143006  0.035573555            1 
  423000    1.2031344   -7.1293046    173.65872  0.034211725  0.035559816            1 
  424000    1.1603014   -7.1532371    173.22454  0.034045703  0.035545991            1 
  425000    1.1730184   -7.0979712    174.38766  0.034193659  0.035532239            1 
  426000    1.1926786   -7.1671678    174.35539  0.034107079  0.035518864            2 
  427000    1.1648125   -7.1333441    175.36403  0.034224049  0.035505741            3 
  428000    1.1864108   -7.1848889    175.57534   0.03418523  0.035493074            1 
  429000    1.2084718   -7.1794348    175.85433  0.034159737  0.035480577            1 
  430000    1.1771902   -7.1570524    176.14911  0.034137424   0.03546834            1 
  431000    1.2029773   -7.1589444    176.97743  0.034218375  0.035456729            1 
  432000    1.1861719   -7.1323442    177.18675  0.034179543  0.035445394            1 
  433000    1.1719704   -7.1041479    178.01016  0.034259077  0.035433762            2 
  434000    1.1571639   -7.1704127    177.79019  0.034137902  0.035422416            1 
  435000    1.1711772   -7.1799537    177.93259  0.034086703   0.03541049            4 
  436000     1.184583   -7.1686145    178.93826  0.034200738  0.035399142            2 
  437000     1.200723   -7.1087963    179.48175  0.034226116   0.03538803            1 
  438000    1.1791882   -7.1238294    179.37907  0.034128439  0.035376822            1 
  439000    1.2038732   -7.1635905     179.3674   0.03404848  0.035366115            1 
  440000    1.1866588   -7.1759452    180.56794  0.034198474  0.035354713            2 
  441000    1.1608229   -7.1677097     179.8884  0.033992517  0.035343664            1 
  442000     1.169149     -7.19561    180.69801  0.034068252  0.035331369            1 
  443000     1.170129    -7.167199    180.57411  0.033968042  0.035317845            1 
  444000    1.1588667   -7.1990146    181.06191  0.033983091  0.035305034            3 
  445000    1.1502727   -7.1613731    181.80877  0.034046586  0.035293062            1 
  446000    1.1753359   -7.1482715    182.35436  0.034072189  0.035281555            1 
  447000    1.1740099   -7.1584853    183.19096  0.034151932   0.03527033            2 
  448000    1.1925948   -7.1504948    183.66768  0.034164375  0.035259856            2 
  449000    1.1728422   -7.1647404    183.25989    0.0340126  0.035249297            1 
  450000    1.1694746   -7.1856617    184.36006  0.034140752  0.035237907            2 
  451000    1.1539058   -7.1453515    183.77822  0.033957542  0.035226331            1 
  452000    1.1916016   -7.2022081    184.44398  0.034005159   0.03521397            2 
  453000    1.1996727   -7.2010917    183.95694  0.033840497  0.035201656            1 
  454000    1.1940575   -7.1986329    184.22786  0.033815686  0.035189166            1 
  455000    1.2019419   -7.1549862    185.14805  0.033909899   0.03517737            3 
  456000    1.1930159   -7.1905536    186.29323  0.034044815  0.035165559            2 
  457000     1.154106   -7.1311772    186.09346  0.033933891   0.03515411            2 
  458000    1.1957043   -7.1767406    186.95533  0.034016617  0.035141884            1 
  459000    1.1662294   -7.1784906    186.55394  0.033869634  0.035129996            1 
  460000    1.1683002   -7.1902786    187.04578  0.033885105  0.035117768            1 
  461000    1.1789764   -7.2051814    187.07115  0.033816188  0.035104753            3 
  462000    1.1799434    -7.163218    187.85889  0.033885081  0.035092131            1 
  463000    1.1745838   -7.1726332    187.67172  0.033778208  0.035079967            1 
  464000    1.1661748   -7.1562625     188.1929  0.033799013   0.03506703            1 
  465000    1.1834253   -7.1539677    188.07424  0.033705061  0.035054264            2 
  466000    1.1559233   -7.1587993    188.72322  0.033748788   0.03504092            1 
  467000     1.147211   -7.1653908    189.15609  0.033753763  0.035027281            1 
  468000    1.1894223   -7.1441398     189.1637  0.033682995  0.035013475            2 
  469000    1.1732624   -7.2097482    189.36199  0.033646409  0.034999575            2 
  470000    1.1538405   -7.1939436    190.34069   0.03374835  0.034985896            1 
  471000    1.1540137   -7.1888724    190.54582  0.033712991   0.03497209            2 
  472000    1.1635143   -7.1557753    190.78775  0.033684277  0.034958125            2 
  473000    1.1633688   -7.1404807    190.99188  0.033649028  0.034944063            1 
  474000    1.1973204   -7.1192641    191.51881  0.033670676  0.034930139            2 
  475000    1.1733838   -7.1686224    191.87901  0.033662984  0.034917083            1 
  476000    1.1633751   -7.1055801    192.84701  0.033761731  0.034903937            3 
  477000    1.1652837   -7.1595455    192.11611  0.033563261  0.034890334            1 
  478000    1.1448591   -7.2004367    192.59246  0.033576091     0.034876            2 
  479000    1.1613786   -7.1520591    193.93287  0.033739191   0.03486268            1 
  480000    1.1633226   -7.1489383    193.91357   0.03366555  0.034849672            1 
  481000    1.1618076   -7.1152301     194.3327  0.033668174  0.034837091            5 
  482000    1.1899899   -7.1319649    195.03728  0.033720139  0.034824267            2 
  483000    1.1846806   -7.1517147    195.47685  0.033726165  0.034811365            1 
  484000    1.1747808   -7.1803379    194.55995  0.033498614  0.034797829            2 
  485000     1.218921   -7.1734368    195.53354  0.033596828  0.034784735            2 
  486000    1.1550042   -7.1001801    196.03734  0.033614084  0.034771517            1 
  487000    1.1803458   -7.1748647    195.61791   0.03347329  0.034758218            3 
  488000    1.1763541   -7.1921338    195.81991  0.033439192  0.034744846            1 
  489000    1.1662468   -7.1273336    197.25753  0.033615803  0.034732114            4 
  490000    1.1989991   -7.1977988     196.4718  0.033413572  0.034718777            1 
  491000    1.1778579   -7.1701138    197.72967  0.033559007  0.034705267            2 
  492000    1.1572507   -7.1306694    197.61938  0.033472118  0.034691642            1 
  493000    1.1809117   -7.2114703    197.04966   0.03330792   0.03467725       -1e+20 
  494000    1.1473725   -7.1586092    198.18435  0.033431907  0.034662778            2 
  495000    1.1418647   -7.1348223    197.63585  0.033272029  0.034648886            2 
  496000    1.1832624   -7.1723827    198.48621  0.033347817  0.034634875            3 
  497000    1.1862572   -7.1533997    199.04518  0.033374443  0.034620656            1 
  498000    1.1776783   -7.1593393    198.79458  0.033265492  0.034605728            1 
  499000    1.1494038   -7.1830926     200.2955  0.033449482  0.034590963            1 
  500000    1.1501171   -7.1385295     200.5501  0.033425017  0.034576644            1 
  501000     1.170716   -7.2044562     199.3419  0.033157335  0.034562249            3 
  502000    1.1993638   -7.1669501    200.41152  0.033268844  0.034547539       -1e+20 
  503000    1.1826858   -7.2021945    200.58594  0.033231601  0.034533189            2 
  504000    1.1751522   -7.1799295    201.31902  0.033286875  0.034518626            1 
  505000    1.1819001   -7.1814324    201.48133  0.033247744  0.034505092            1 
  506000    1.1734733   -7.2074217    202.15677  0.033293276  0.034490957            1 
  507000    1.1666309   -7.1689217    202.39067  0.033266053  0.034476536            1 
  508000    1.1734537   -7.2253255    202.69249  0.033250081  0.034462932            2 
  509000    1.1600705   -7.1660907    203.48487  0.033314484  0.034449809            1 
  510000    1.1855348   -7.2014188    202.91977  0.033156825  0.034436096            1 
  511000    1.1729972   -7.1830066    203.69523    0.0332184  0.034422644            3 
  512000    1.1653825   -7.1683541    204.35724   0.03326127  0.034409063            1 
  513000    1.1952451   -7.2061659    203.88626  0.033119925  0.034395048            1 
  514000    1.1910734   -7.1774264    205.54847  0.033324979  0.034381583            1 
  515000    1.2003416   -7.2145279    205.15711  0.033196944  0.034368098            1 
  516000    1.1988134   -7.1688655    205.40657  0.033172896  0.034354612            3 
  517000    1.1715491   -7.1652543    206.11279  0.033222564  0.034341095            1 
  518000    1.1710266   -7.1903278    206.52173  0.033224216  0.034327207            3 
  519000    1.1793194   -7.2185258    206.50313  0.033157214  0.034313827            1 
  520000    1.1997093   -7.1764443    207.88152  0.033314346  0.034300911            1 
  521000    1.1617867   -7.1826842    207.89074  0.033251877  0.034288656            1 
  522000    1.1635672   -7.1958368    208.32103  0.033256869  0.034276426            1 
  523000    1.1497267    -7.213307    208.51912  0.033224844  0.034264191            1 
  524000     1.158512   -7.2100061    208.64782  0.033181905  0.034251109            1 
  525000    1.1537951   -7.1962579    208.95984  0.033168229  0.034238222            3 
  526000    1.1693132   -7.1913916    209.11101  0.033129121  0.034225706            4 
  527000    1.1660306    -7.204195    209.44022  0.033118314  0.034212799            3 
  528000    1.1933606   -7.2238059    209.76028  0.033106104  0.034199771            2 
  529000    1.1518905   -7.1927438    209.61283  0.033020294  0.034187135            2 
  530000    1.1693043   -7.2303566    209.95725  0.033012146  0.034174082            2 
  531000    1.1609925   -7.1984894    210.60419  0.033051504  0.034160975            2 
  532000    1.1781703     -7.24396    210.38475  0.032955005  0.034147666            1 
  533000    1.1658189   -7.1628247    211.08933  0.033003335  0.034133768            1 
  534000    1.1563296    -7.157386    211.79862  0.033052218  0.034119785            1 
  535000    1.1646678   -7.1332776    212.20364  0.033053527  0.034106172            1 
  536000    1.1690211   -7.1939647    211.92347    0.0329483  0.034092673            2 
  537000     1.172573   -7.2445358    211.76647   0.03286258  0.034079398            1 
  538000    1.1545002   -7.2114345     212.7683  0.032956676  0.034065718            3 
  539000    1.1706514   -7.1912292    213.71524  0.033041936  0.034052261            1 
  540000    1.1667496   -7.1460823    212.84664  0.032846704  0.034038054            1 
  541000    1.1593429   -7.1985036    213.54585  0.032893692  0.034024997            2 
  542000    1.1827636   -7.1790979    214.45279  0.032972446  0.034011725            2 
  543000    1.1840665   -7.1441046    214.77481  0.032961143  0.033998777            2 
  544000    1.1636153   -7.1651322    215.33398  0.032986209   0.03398635            1 
  545000    1.1398062   -7.2062464    215.04471  0.032881454  0.033973379            2 
  546000    1.1412288   -7.1867631    215.66416  0.032915775  0.033960248            1 
  547000    1.1611201   -7.1602567    216.18222  0.032934524  0.033947372            2 
  548000     1.162111   -7.2495526    215.98386  0.032844261  0.033934209            2 
  549000    1.1618309   -7.1935622    217.06907   0.03294916  0.033921841            2 
  550000    1.1500724   -7.1759267     217.5478  0.032961789  0.033909857            2 
  551000    1.1715199   -7.1773608     217.4678  0.032889867   0.03389793            1 
  552000    1.1958241   -7.1900768    218.77036  0.033026927  0.033886261            2 
  553000    1.1776049   -7.1820883    218.86936  0.032982121  0.033874485            3 
  554000     1.156403   -7.2172834    218.82435  0.032915816  0.033862965            1 
  555000    1.1628884   -7.1997868    219.41415  0.032945068  0.033850745            3 
  556000    1.1681997   -7.1513958    219.19827  0.032853458  0.033838424            1 
  557000    1.1646553   -7.1691251    219.57173  0.032850348  0.033826436            1 
  558000    1.1743907    -7.204012    220.20901   0.03288665  0.033814533            2 
  559000    1.1813578   -7.2090822    220.28907  0.032839754  0.033802074            1 
  560000    1.1561686   -7.2071407    221.56732  0.032971328  0.033789718            2 
  561000     1.175573   -7.1986985     221.3103  0.032874376  0.033777911            1 
  562000    1.1544198    -7.199913    222.25492  0.032955949  0.033766335            1 
  563000    1.1506183   -7.2159623    222.45032  0.032926335  0.033755597            3 
  564000    1.1800618   -7.2312212    223.12579  0.032967758   0.03374503            1 
  565000     1.165186   -7.2323743    222.46252  0.032811581  0.033734584            2 
  566000    1.1486577   -7.2087022    223.43535  0.032896842  0.033723143            1 
  567000    1.1582976   -7.2230474     224.3068  0.032966903  0.033712348            2 
  568000    1.1658947   -7.1880985    223.97371  0.032859992  0.033702001            2 
  569000    1.1623304   -7.1864744    224.98881  0.032950909  0.033691117            2 
  570000    1.1753196   -7.2123125    224.24937  0.032784995  0.033680193            2 
  571000    1.1598972   -7.1689403    225.71623  0.032941657  0.033668953       -1e+20 
  572000    1.1499348   -7.2148962    225.29059  0.032822056  0.033657749            1 
  573000    1.1539766    -7.205473    225.28335  0.032763721  0.033646043            2 
  574000    1.1719268   -7.1973931    225.45282  0.032731245   0.03363417            2 
  575000    1.1779803   -7.2363312    226.19306  0.032781603  0.033622426            1 
  576000    1.1602237   -7.2289289    226.20111  0.032725855  0.033610975            2 
  577000    1.1321302   -7.2121355     227.8409  0.032905964  0.033600118            2 
  578000    1.1704912   -7.1954985    227.64126   0.03282025  0.033589343            1 
  579000    1.1350365   -7.2276269    226.94395  0.032663205  0.033578322            1 
  580000    1.1559054   -7.2408825    227.88759   0.03274247  0.033566934            1 
  581000    1.1421686   -7.1821657    228.13954  0.032722252    0.0335551            2 
  582000    1.1531958   -7.2193895    229.10141  0.032803753  0.033544028            2 
  583000    1.1729351   -7.1985824    229.27396   0.03277215  0.033533311            3 
  584000    1.1512767   -7.1977577    229.44489  0.032740424  0.033522776            1 
  585000    1.1667454   -7.1867075    230.17035  0.032787799  0.033512458            2 
  586000    1.1438462   -7.1810367    230.84064  0.032827168  0.033501966            2 
  587000    1.1747394   -7.2500722     230.4991  0.032722757  0.033491594            2 
  588000    1.1563616   -7.2166375    230.70189  0.032695846  0.033481724            3 
  589000    1.1505587   -7.2575786     230.9785  0.032679471  0.033471275            1 
  590000    1.1647884   -7.2271991    232.07409  0.032778827  0.033460711            1 
  591000    1.1873647   -7.1861062    232.07987  0.032724177   0.03345098            2 
  592000    1.1874342   -7.2143746     232.0345  0.032662514  0.033440536            2 
  593000    1.1389599   -7.1988706    233.08204  0.032754643  0.033430179            1 
  594000    1.1809021   -7.2181456    233.51034  0.032759587  0.033419504            2 
  595000    1.1556622   -7.2153831    232.94083  0.032624766  0.033409281            2 
  596000    1.1751806   -7.2628126     233.0139  0.032580244  0.033398259            2 
  597000    1.1528451   -7.2002391    234.30999  0.032706587  0.033387207            1 
  598000    1.1734981   -7.2514338    234.05715   0.03261666  0.033376944            3 
  599000    1.1461597   -7.2341875    235.05214  0.032700632  0.033366284            1 
  600000    1.1549868   -7.2258815    234.56238  0.032578108   0.03335596            1 
  601000    1.1426901   -7.1813641    236.09848  0.032736894   0.03334567            3 
  602000     1.146269   -7.1910836    236.81103   0.03278115   0.03333544            2 
  603000    1.1555169   -7.2338424    235.96176   0.03260942  0.033324961            3 
  604000    1.1371011   -7.2279974     235.8754  0.032543516  0.033314267            1 
  605000    1.1449892   -7.2070009    236.78595  0.032615145  0.033302799            2 
  606000     1.136703   -7.2330743    236.28667  0.032492667  0.033291283            1 
  607000    1.1454283   -7.2318399    236.40593  0.032455509  0.033279768            2 
  608000    1.1512287   -7.2280167    237.01047  0.032484988  0.033267978            2 
  609000    1.1608537   -7.2193457    236.89567  0.032415937  0.033256166            3 
  610000    1.1610146    -7.210994    237.00922  0.032378309  0.033244503            2 
  611000    1.1574603    -7.196582    237.52688  0.032395919  0.033232574            1 
  612000    1.1623694   -7.2118493    238.13315  0.032425538  0.033220934            2 
  613000    1.1803947   -7.2598794    237.61924  0.032302779  0.033209201            1 
  614000    1.1270914   -7.2142068    238.91866  0.032426529  0.033197497            2 
  615000    1.1417607   -7.1934793    239.32889  0.032429388  0.033185756            3 
  616000    1.1532969   -7.1997671    239.53182  0.032404196  0.033173955            2 
  617000    1.1479409   -7.2129356    238.28428  0.032183181   0.03316252            1 
  618000    1.1501237   -7.2055671    240.93937  0.032489127  0.033151178            1 
  619000    1.1886184   -7.2619271     240.4077  0.032365064  0.033140071            2 
  620000    1.1575533   -7.2469885    240.79442  0.032364841  0.033129129            2 
  621000    1.1492622   -7.2145606    241.16908  0.032363001  0.033117959            3 
  622000    1.1771075   -7.2488251    241.86265  0.032403892  0.033107045            2 
  623000    1.1687813   -7.2026297    242.08446  0.032381549  0.033096536            2 
  624000    1.1435415   -7.2758724    241.94764  0.032311384  0.033085646            1 
  625000     1.153287    -7.218898    243.32065  0.032442753  0.033075009            2 
  626000    1.1176019   -7.1927672     244.6556  0.032568636  0.033064443            2 
  627000    1.1344763   -7.2301209    243.00551  0.032297384  0.033054535            2 
  628000    1.1783478   -7.2395156    244.14974   0.03239779  0.033044435            2 
  629000    1.1711451   -7.2174342    244.35717  0.032373764  0.033034693            1 
  630000    1.1566664   -7.2608259    244.18227  0.032299243  0.033024312            1 
  631000    1.1542181   -7.2400205    243.90774  0.032211798  0.033013774            1 
  632000    1.1534382   -7.2550542    245.53532  0.032375437   0.03300311            2 
  633000    1.1490036   -7.2209563    245.38311  0.032304254  0.032993022       -1e+20 
  634000    1.1529785   -7.2051303    245.61037  0.032283171  0.032982443            2 
  635000    1.1299586   -7.2482319    246.15275  0.032303511  0.032972025            4 
  636000    1.1473983   -7.2497151    246.51312  0.032299937  0.032961535            1 
  637000    1.1548976   -7.1921405    248.04132  0.032449152  0.032951326            2 
  638000    1.1456006   -7.2452808    246.22777  0.032161412  0.032940989            2 
  639000    1.1656485   -7.2091994    246.90352  0.032199208  0.032930421            2 
  640000     1.147789   -7.2130878    247.74702  0.032258727  0.032919805            1 
  641000    1.1603945   -7.2132524    248.12329  0.032257318  0.032909547            1 
  642000    1.1340377   -7.2131584    248.79943  0.032294838   0.03289954            1 
  643000    1.1482014   -7.2025846    249.41587  0.032324504  0.032889898            1 
  644000    1.1432728   -7.2513886    249.25896  0.032254006   0.03288061            1 
  645000    1.1467197   -7.2371297    249.55603  0.032242381   0.03287078            2 
  646000    1.1533052   -7.2406991    249.92526    0.0322401  0.032860818            2 
  647000    1.1577349   -7.2612213    249.63414  0.032152774  0.032850801            1 
  648000    1.1496663   -7.2216859    250.73951  0.032245308  0.032840617            1 
  649000    1.1391307   -7.2646167    250.81818  0.032205724  0.032830817            3 
  650000    1.1290514   -7.2216492    251.85376  0.032288944  0.032821298            2 
  651000    1.1436814   -7.1820666    252.25782  0.032291068  0.032811788            1 
  652000    1.1328683   -7.2657674    252.26973  0.032243063  0.032802279            1 
  653000    1.1715759   -7.2422798    253.48306  0.032348527  0.032792908            1 
  654000    1.1622535   -7.2025802    253.72785  0.032330256  0.032784056            2 
  655000    1.1586461   -7.2244325     253.4631  0.032247214   0.03277487            2 
  656000    1.1509709   -7.2273609    254.68928  0.032353821  0.032765772            3 
  657000     1.142017    -7.228092    254.55752  0.032287864  0.032756965            3 
  658000    1.1537721   -7.2349226    255.14795   0.03231357  0.032748024            2 
  659000    1.1549969   -7.1825582    256.08214  0.032382668  0.032739281            2 
  660000    1.1404225   -7.2013867    255.50194  0.032260346  0.032730288            3 
  661000    1.1571268   -7.2045014    255.83629  0.032253693  0.032721099            1 
  662000    1.1531138   -7.2638604    255.34352  0.032142941  0.032711698            2 
  663000    1.1414069   -7.2292263    255.47753  0.032111304  0.032701939            1 
  664000    1.1347513   -7.2164493    255.93912  0.032120873  0.032692129            2 
  665000    1.1397116    -7.230135    256.78052   0.03217801   0.03268235            3 
  666000    1.1569882   -7.2239272    257.08218   0.03216744  0.032673186            5 
  667000    1.1385017   -7.2650967     256.3086  0.032022564  0.032663397            2 
  668000    1.1542205   -7.2427592    257.43727  0.032115428  0.032654062            2 
  669000    1.1511057   -7.2063212    257.19734  0.032037536  0.032644559            1 
  670000     1.143901   -7.2223805    258.34397  0.032132334  0.032635273            2 
  671000    1.1380869   -7.2120304    257.69755  0.032004167  0.032625624            1 
  672000    1.1427303   -7.1867922    259.01778  0.032120261  0.032616171            1 
  673000    1.1372606   -7.2200306     258.6817  0.032030919  0.032606739            2 
  674000    1.1443875    -7.215461    259.19224  0.032046518  0.032596894            2 
  675000    1.1411387   -7.2318323    259.98637  0.032097083  0.032587323            1 
  676000    1.1344664   -7.2298173    259.89658  0.032038533  0.032578497            1 
  677000    1.1488754   -7.2235116    260.12581  0.032019426  0.032569326            1 
  678000     1.180265   -7.2657056    260.39209  0.032004928  0.032560229            1 
  679000    1.1345255   -7.2386789    260.60369  0.031983762   0.03255065            2 
  680000    1.1378739   -7.2291231    261.86786   0.03209165  0.032541302            1 
  681000    1.1711075   -7.2213429    262.04142  0.032065764  0.032532108            1 
  682000    1.1488177   -7.2511155    263.07823  0.032145434  0.032523044            3 
  683000    1.1354272   -7.2223585    263.17673  0.032110387  0.032514049            1 
  684000    1.1364661   -7.2923266    262.83688  0.032022037  0.032504745            2 
  685000    1.1458976   -7.2357861    264.29092   0.03215218  0.032496023            1 
  686000    1.1724951   -7.2707713    263.26653  0.031980871  0.032487692            2 
  687000    1.1464387   -7.2197228    265.29306  0.032180138  0.032479481            4 
  688000    1.1492637   -7.2614292    264.79607  0.032073167  0.032471003            1 
  689000    1.1222968   -7.2664415    265.12737  0.032066688  0.032462449            3 
  690000    1.1810027   -7.2221801    265.52609  0.032068368  0.032454268            1 
  691000    1.1684217   -7.2294505    266.08974  0.032089935   0.03244601            2 
  692000    1.1045587   -7.2341708    265.88573  0.032018994   0.03243781            1 
  693000    1.1332466    -7.212977    267.19661  0.032130424  0.032429442            6 
  694000    1.1317622   -7.2341656    267.26156  0.032091926  0.032421324       -1e+20 
  695000     1.154214   -7.2881028    266.24572  0.031923947  0.032412767            2 
  696000    1.1440758   -7.2389511    267.64546  0.032045672  0.032404471            2 
  697000      1.13899   -7.2498525    267.59412  0.031993559  0.032396281            2 
  698000    1.1455607   -7.2508843    268.03269  0.032000082  0.032388244            4 
  699000    1.1252744   -7.2730746    268.76426  0.032041519  0.032380013            2 
  700000    1.1806168    -7.255177    269.51247  0.032084818  0.032371974            2 
  701000    1.1554111   -7.2447763    269.71996  0.032063713   0.03236456            1 
  702000     1.147747   -7.2649104    269.72586   0.03201874  0.032356883            2 
  703000    1.0974917   -7.2335452    270.05879  0.032012659   0.03234916            1 
  704000    1.1471517   -7.2485169    270.80864  0.032055947   0.03234106            2 
  705000    1.1462726   -7.2834303    270.22493  0.031941481  0.032333498            1 
  706000    1.1660969   -7.2819848    270.78194  0.031961985  0.032325517            1 
  707000    1.1441417   -7.2211645    271.42172  0.031992187   0.03231755            2 
  708000    1.1419402    -7.216118    272.55833  0.032080783   0.03230999            1 
  709000    1.1559107   -7.2238768    272.14324  0.031986746  0.032302155            1 
  710000    1.1677253    -7.251404    272.11471  0.031938346  0.032294282            3 
  711000    1.1575027   -7.2388341    273.22882  0.032024006  0.032286627            1 
  712000    1.1302051    -7.265136    272.84422  0.031934015  0.032278525            4 
  713000    1.1122736   -7.2341207    274.08056  0.032033726  0.032270656            1 
  714000    1.1132232   -7.2040068    274.24085  0.032007569  0.032263179            1 
  715000     1.172565   -7.2707147    274.22756  0.031961255  0.032254862            2 
  716000    1.1401282   -7.2567066    273.75495   0.03186161   0.03224664            2 
  717000    1.1265064   -7.2480236    274.88056  0.031947996  0.032238241            2 
  718000    1.1297743   -7.2124002    275.75547  0.032005045  0.032230477            1 
  719000    1.1321646   -7.2484026    274.79764  0.031849518  0.032222323            1 
  720000    1.1399273   -7.2415076    275.69134   0.03190872  0.032214155            4 
  721000    1.1305213   -7.2375082    275.24143  0.031812462  0.032205652       -1e+20 
  722000     1.138067   -7.3096163    274.67954  0.031703548   0.03219699            2 
  723000    1.1311695   -7.2582144    276.42553  0.031860942  0.032188296            1 
  724000    1.1295193   -7.2633733     275.8101  0.031746098  0.032179872            1 
  725000    1.1589988   -7.2302897    276.90585  0.031828259  0.032171596       -1e+20 
  726000    1.1419558   -7.2309665    277.07875  0.031804264  0.032163107            1 
  727000    1.1613542   -7.2704249    277.22147  0.031776877  0.032155006            2 
  728000    1.1276085   -7.2146105    277.82831  0.031802691  0.032146747            2 
  729000     1.127126   -7.2580759    278.35474  0.031819244  0.032138554            1 
  730000    1.1536788    -7.254206    278.21606  0.031759824  0.032130232            1 
  731000    1.1245084   -7.2121969    279.31998  0.031842223  0.032121647            6 
  732000    1.1812887   -7.2544293    278.05596  0.031654823   0.03211296            2 
  733000    1.1341748    -7.231541     278.7297  0.031688234   0.03210433            1 
  734000     1.141858   -7.2532718    278.46015  0.031614458  0.032095896            1 
  735000     1.149753   -7.2291854    280.27624  0.031777351  0.032087132            1 
  736000    1.1150966   -7.2226423    280.94777  0.031810209  0.032078503            2 
  737000    1.1315047   -7.2843843    279.65281  0.031620626  0.032070204            1 
  738000      1.11873   -7.2884451    279.62227   0.03157433  0.032061408            2 
  739000    1.1381898   -7.2480811    281.68575  0.031764293  0.032052702            3 
  740000    1.1196518    -7.248837    281.04381  0.031649078  0.032044036            2 
  741000    1.1429702   -7.2958904    280.85256  0.031584858  0.032035136            4 
  742000    1.1190681   -7.2709989    280.55208  0.031508544  0.032026202            3 
  743000     1.150901   -7.2387488     281.2572  0.031545222  0.032017084            2 
  744000    1.1226914   -7.2607877    281.13099  0.031488686  0.032008069            1 
  745000    1.1204935   -7.2425101    282.28844  0.031575888  0.031998618            2 
  746000    1.1251663   -7.2439506    282.14738  0.031517804  0.031989433            2 
  747000    1.1244607   -7.2548635    282.88935  0.031558383  0.031979818            2 
  748000    1.1528397   -7.2561096    282.77435  0.031503381  0.031970705            1 
  749000    1.1280845   -7.2859678    282.42298  0.031422227  0.031961429            1 
  750000    1.1527793   -7.2605134    284.28498   0.03158722  0.031951694            1 
  751000     1.146349   -7.2423405    283.65227  0.031474952  0.031942376            2 
  752000    1.1402556   -7.2645069    283.71042  0.031439542  0.031933179            1 
  753000    1.1669219   -7.3214957    283.21126  0.031342547  0.031923392            1 
  754000    1.1359359   -7.3106287    283.55011  0.031338429  0.031913902            1 
  755000    1.1444593   -7.2863563    284.71456  0.031425449  0.031903877            2 
  756000    1.1312042   -7.2661721    283.36329   0.03123493  0.031893728            1 
  757000    1.1346293   -7.2333744    285.09712  0.031384535  0.031884167            4 
  758000    1.1295155   -7.3112566    284.75079  0.031305056   0.03187443            1 
  759000    1.1277966   -7.2150981    285.63637  0.031361042  0.031864549            1 
  760000    1.1237142   -7.2579819    285.71473   0.03132837  0.031855233            2 
  761000    1.1257161   -7.3088575     285.9167  0.031309319  0.031845401            1 
  762000    1.1395177   -7.2981546    285.65541  0.031239656  0.031835561            2 
  763000    1.1362888   -7.2802143    286.26879  0.031265704  0.031825686            1 
  764000    1.1360311   -7.2860003    287.19695  0.031326019  0.031815944            2 
  765000    1.1691906   -7.2787765    287.13894  0.031278751  0.031805932            1 
  766000    1.1446742   -7.2539305    287.25083   0.03125009  0.031796194            2 
  767000    1.1171585   -7.2860356    288.79703   0.03137734  0.031786634            1 
  768000    1.1400441    -7.273594    288.89645  0.031347272  0.031777164            1 
  769000    1.1293843    -7.303442    288.54814  0.031268762  0.031767467            1 
  770000    1.1250987   -7.3122427    288.14877  0.031184932  0.031757427            2 
  771000    1.1270033   -7.2353428    289.83304  0.031326528   0.03174784            3 
  772000     1.128458    -7.265906    290.14381  0.031319496  0.031738481            3 
  773000    1.1194881   -7.2835239    290.02577  0.031266254  0.031728928            3 
  774000    1.1435451   -7.2489567    290.06006   0.03122955  0.031719471            3 
  775000    1.1629393   -7.2632489    290.24096  0.031208705  0.031709873            4 
  776000    1.1164421   -7.2976079    290.45218   0.03119117  0.031700207            4 
  777000    1.1370616   -7.3104194    290.61085  0.031168045  0.031690395            2 
  778000    1.1254207   -7.3031692    290.52202  0.031118468  0.031680719            2 
  779000    1.1279458   -7.2987344     290.4749  0.031073481  0.031670836            2 
  780000    1.0993378   -7.2795591    291.18198  0.031109186  0.031660837            1 
  781000    1.1380647   -7.2849966    291.61432  0.031115485  0.031650912            2 
  782000    1.1205841   -7.2592845    291.99641  0.031116412  0.031640741            4 
  783000    1.1242472   -7.2696358    292.10198  0.031087908  0.031630799            1 
  784000    1.1292974   -7.2778959    292.01652  0.031039171  0.031620847            2 
  785000    1.1199257   -7.2759912    291.93006  0.030990452  0.031610301            2 
  786000    1.1182279   -7.2597737    292.73532  0.031036399  0.031600069            1 
  787000    1.1035508   -7.2524916    293.25425  0.031051911  0.031589377            1 
  788000     1.117617   -7.2514349    293.84831  0.031075329  0.031579286            1 
  789000    1.1203836   -7.2598932    294.07435  0.031059818  0.031569152            2 
  790000    1.1420317   -7.2904076    294.16647  0.031030218  0.031559392            1 
  791000    1.1239484   -7.3204241    294.98109  0.031076811  0.031549381            1 
  792000    1.1072657   -7.2819779    294.72658  0.031010793  0.031539268            1 
  793000    1.1121109    -7.306955      294.108  0.030906684  0.031529386            4 
  794000    1.1020683   -7.2458639    295.33857  0.030996912  0.031519512            2 
  795000    1.1164568   -7.3028489     295.7092  0.030996772  0.031509698            2 
  796000    1.1216364   -7.2529892    295.70301  0.030957183  0.031499848            2 
  797000    1.1179207   -7.2365131    296.93711  0.031047377  0.031490077            2 
  798000    1.1491276   -7.2559976    297.49358  0.031066581   0.03148047            2 
  799000    1.1193794   -7.2945483    297.15231  0.030992106   0.03147075            2 
  800000    1.1054206   -7.3003699    297.02911  0.030940533  0.031461125            1 
  801000    1.1162064   -7.2974353    297.57601  0.030958803  0.031451567            1 
  802000    1.1105278   -7.3322359    297.66645  0.030929598  0.031441523            9 
  803000    1.1226506   -7.2888333    298.46525  0.030973978  0.031431782            1 
  804000    1.1338853   -7.2722928    298.52029  0.030941157  0.031422007            4 
  805000    1.1128039   -7.2991885    299.65288  0.031019967  0.031412695            4 
  806000    1.1306614    -7.309758    299.07817   0.03092206  0.031403369            2 
  807000    1.1322352   -7.3265416    299.08208  0.030884147   0.03139386            1 
  808000    1.1394327   -7.3270894     299.6227  0.030901681  0.031384294            2 
[...]
 4800000    0.4850506   -8.8025669    610.56609  0.010600106  0.008867264            2 
 4801000    0.4764534   -8.8230077     610.9503  0.010604567 0.0088642802            3 
 4802000   0.48649041   -8.8098567    610.39018  0.010592638 0.0088612985            3 
 4803000   0.48501241   -8.8256655    610.00284  0.010583712 0.0088583196            2 
 4804000   0.47902451   -8.8100785    611.32627  0.010604466 0.0088553406            2 
 4805000   0.47974629   -8.8172182    610.59088  0.010589505 0.0088523613            3 
 4806000   0.47921007   -8.8243235    612.02636  0.010612192 0.0088493862            3 
 4807000   0.48134389   -8.8012259    610.18501  0.010578063 0.0088464088            4 
 4808000   0.47580253   -8.8252832    611.24443  0.010594225 0.0088434336            3 
 4809000    0.4859921   -8.8092648     611.0851  0.010589261 0.0088404629            6 
 4810000   0.47862457   -8.8132678    610.49967  0.010576917 0.0088374909            3 
 4811000   0.48359101   -8.8056064    609.45379  0.010556603 0.0088345213            3 
 4812000   0.48188862   -8.8287549     610.8415  0.010578441 0.0088315498            1 
 4813000   0.48203814    -8.818391    609.78601  0.010557968 0.0088285827            5 
 4814000   0.47892586    -8.817609    611.28068  0.010581649 0.0088256147            2 
 4815000   0.47566134   -8.8284352     610.3883  0.010564007 0.0088226475            3 
 4816000   0.48242896   -8.8064688    610.43875  0.010562686 0.0088196847            5 
 4817000   0.47216448    -8.817445    611.05088  0.010571083 0.0088167222            5 
 4818000   0.47393289   -8.8281479    610.35834   0.01055691  0.008813761            3 
 4819000   0.47996876   -8.8398157    610.60686  0.010559017 0.0088107978            4 
 4820000   0.47955728   -8.8200455    611.45571  0.010571503 0.0088078397            2 
 4821000   0.48147762    -8.803542    611.19203  0.010564752 0.0088048825            3 
 4822000   0.47853291   -8.8043837    611.56065  0.010568932 0.0088019274            3 
 4823000   0.47714115   -8.8274983    610.39196  0.010546547 0.0087989737            3 
 4824000   0.48236253   -8.8209223    611.39099  0.010561619 0.0087960211            6 
 4825000   0.47588457    -8.822929    611.05497  0.010553626 0.0087930699            2 
 4826000   0.48187332   -8.8133262    611.67485  0.010562143 0.0087901158            2 
 4827000   0.47632989   -8.8175011    610.55691  0.010540655 0.0087871624            3 
 4828000    0.4777035   -8.8142743    610.50867  0.010537639 0.0087842095            2 
 4829000   0.47852898   -8.8202278    611.13058  0.010546189 0.0087812597            3 
 4830000   0.47736061   -8.8292216    610.27649   0.01052927 0.0087783108            3 
 4831000    0.4821933   -8.8250152    609.69309  0.010517027 0.0087753628            2 
 4832000    0.4886857   -8.8379509    610.95771   0.01053666  0.008772415            3 
 4833000   0.48573412   -8.8173235     610.0371  0.010518607 0.0087694704            3 
 4834000   0.47774411   -8.8332232    609.72784  0.010511099 0.0087665264            3 
 4835000   0.48230666   -8.8368075    611.73227  0.010543472 0.0087635831            3 
 4836000   0.47952403   -8.8354927    609.31344  0.010499611 0.0087606413            3 
 4837000   0.47268644   -8.8311987    611.18625  0.010529706 0.0087577008            3 
 4838000   0.47955043   -8.8235777    610.63015  0.010517951 0.0087547638            4 
 4839000   0.47926289   -8.8157539    610.45293  0.010512725 0.0087518287            4 
 4840000   0.47494163   -8.8420874    610.99396  0.010519869 0.0087488963            4 
 4841000   0.47072442   -8.8296864       611.46  0.010525718 0.0087459661            2 
 4842000   0.47828558   -8.8297302    610.17418  0.010501414 0.0087430338            3 
 4843000   0.46990758   -8.8414764    610.61975  0.010506913  0.008740104            3 
 4844000   0.47860817   -8.8202878    609.65151  0.010488087 0.0087371749            4 
 4845000   0.47531902   -8.8304897    609.76305  0.010487841 0.0087342485            2 
 4846000   0.46703229   -8.8244789    610.68425  0.010501518 0.0087313221            3 
 4847000   0.47127032   -8.8393578    610.56292  0.010497265  0.008728398            2 
 4848000   0.48489464    -8.829554    609.84032  0.010482679 0.0087254727            3 
 4849000   0.47766343   -8.8101688    610.50587  0.010491955 0.0087225488            4 
 4850000   0.48719386   -8.8357676    610.52356  0.010490096 0.0087196273            1 
 4851000   0.46698867   -8.8151352    609.75149   0.01047467 0.0087167034            1 
 4852000   0.46651518   -8.8174319    611.72674  0.010506436 0.0087137834            3 
 4853000   0.48278151   -8.8380573     609.9926  0.010474493 0.0087108661            3 
 4854000   0.47278342   -8.8266725    610.49297  0.010480926  0.008707946            2 
 4855000   0.48181158   -8.8358001    610.30481  0.010475537 0.0087050302            1 
 4856000   0.47020252   -8.8462826    610.70273  0.010480209 0.0087021149            4 
 4857000    0.4781045    -8.839963    610.16137  0.010468763  0.008699199            2 
 4858000   0.47285156   -8.8373821    609.75731  0.010459677 0.0086962869            2 
 4859000   0.46674468   -8.8392645    610.70636  0.010473801 0.0086933762            5 
 4860000   0.47735909   -8.8389892    609.92318  0.010458216  0.008690465            2 
 4861000   0.46840817   -8.8318702    610.05107  0.010458257 0.0086875593            4 
 4862000   0.47511884   -8.8217516    610.95074  0.010471526 0.0086846525            2 
 4863000   0.48308816   -8.8336618    610.21698  0.010456799 0.0086817455            3 
 4864000   0.47127977   -8.8315747    610.50276  0.010459546   0.00867884            2 
 4865000   0.48330377   -8.8326643    609.90304  0.010447123 0.0086759366            4 
 4866000   0.47756954   -8.8421667    609.80111   0.01044323 0.0086730343            4 
 4867000   0.47581671   -8.8227112    610.39234  0.010451208 0.0086701334            3 
 4868000   0.48281196   -8.8355682     611.2437  0.010463635 0.0086672351            4 
 4869000   0.47156183   -8.8121427    611.11795  0.010459334 0.0086643362            4 
 4870000    0.4740183   -8.8286523    610.00422  0.010438128  0.008661441            3 
 4871000   0.47241903   -8.8429468    609.93897  0.010434869 0.0086585465            3 
 4872000   0.48182479   -8.8238411    609.96396  0.010433155  0.008655652            3 
 4873000   0.47739173   -8.8335152    610.15553   0.01043429 0.0086527587            2 
 4874000    0.4760555   -8.8430585    609.20289  0.010415861 0.0086498666            1 
 4875000   0.46467812   -8.8168726    610.10735  0.010429185 0.0086469734            5 
 4876000   0.47122344   -8.8312507    610.12745   0.01042739 0.0086440824            3 
 4877000   0.47693372   -8.8225762    610.23637  0.010427113  0.008641193            3 
 4878000   0.46778445   -8.8313891    610.51254  0.010429694 0.0086383059            3 
 4879000   0.48212305   -8.8297672    610.80117  0.010432486 0.0086354176            3 
 4880000   0.46797935   -8.8215667    610.79135   0.01043018 0.0086325325            3 
 4881000   0.47002837   -8.8302242    610.28388  0.010419379 0.0086296489            3 
 4882000   0.47668327   -8.8271631    609.97241  0.010411928 0.0086267669            2 
 4883000   0.47908205   -8.8228383    610.87289  0.010425164 0.0086238874            3 
 4884000   0.47215006   -8.8349684    610.87656  0.010423092  0.008621007            3 
 4885000   0.47141375   -8.8279158     610.6708  0.010417448 0.0086181269            4 
 4886000   0.47020404   -8.8127985    610.82761   0.01041799 0.0086152498            5 
 4887000   0.48306827   -8.8310667    610.01498  0.010402002 0.0086123744            1 
 4888000   0.47720565   -8.8442531    609.52141  0.010391459 0.0086095004            2 
 4889000   0.46464568   -8.8342123    610.60982  0.010407885 0.0086066277            4 
 4890000   0.47114923   -8.8295848    610.87478  0.010410272 0.0086037522            3 
 4891000   0.46656681   -8.8328051    610.49799  0.010401724 0.0086008807            3 
 4892000   0.45531892   -8.8439687    610.01624  0.010391391  0.008598009            3 
 4893000   0.47088368   -8.8343527    609.93653   0.01038791  0.008595141            2 
 4894000   0.47372972    -8.840884    610.38491  0.010393422 0.0085922731            3 
 4895000   0.46809168    -8.853733     611.2096  0.010405339 0.0085894064            4 
 4896000   0.46794432   -8.8367929     609.6658  0.010376937 0.0085865384            3 
 4897000    0.4617539   -8.8359859    610.39529  0.010387232 0.0085836749            3 
 4898000   0.47743156   -8.8318407    610.26517  0.010382897 0.0085808111            2 
 4899000   0.47031578   -8.8480276     610.8739  0.010391133 0.0085779489            4 
 4900000   0.46734089   -8.8487918    609.14687  0.010359641 0.0085750885            3 
 4901000   0.46605258   -8.8500822    610.91523  0.010387595 0.0085722277            3 
 4902000   0.46601903   -8.8503181    610.36838  0.010376179 0.0085693691            3 
 4903000   0.46850716   -8.8258212    610.04345   0.01036854 0.0085665123            3 
 4904000    0.4624976   -8.8463295    610.25058  0.010369946 0.0085636531            3 
 4905000   0.47066354   -8.8467297    609.83879  0.010360836 0.0085607994            4 
 4906000   0.46446473    -8.829389    609.57436  0.010354232  0.008557946            3 
 4907000   0.47426002   -8.8486349    610.42637  0.010366591 0.0085550965            2 
 4908000   0.46309023   -8.8417211    609.55852  0.010349744 0.0085522474            3 
 4909000   0.45363028   -8.8252876    610.40124  0.010361941 0.0085493959            3 
 4910000    0.4562094   -8.8541973    609.67075  0.010347433 0.0085465474            3 
 4911000   0.46617248   -8.8390438    609.76398  0.010346908 0.0085436982            2 
 4912000    0.4680822   -8.8414574    609.06036  0.010332864  0.008540851            4 
 4913000    0.4553147   -8.8461981    609.18726  0.010332914 0.0085380051            3 
 4914000    0.4602023   -8.8352258    609.23616   0.01033164 0.0085351603            3 
 4915000   0.46488091   -8.8338786    609.18693  0.010328703 0.0085323152            3 
 4916000   0.46240789   -8.8423467     610.4165  0.010347445 0.0085294743            1 
 4917000    0.4676392   -8.8591158    609.17419  0.010324286 0.0085266345            2 
 4918000    0.4615137    -8.853483    609.78133  0.010332475 0.0085237944            3 
 4919000   0.47030428   -8.8408629    611.15667  0.010353674  0.008520957            4 
 4920000     0.478716   -8.8648175     609.5117  0.010323708 0.0085181204            2 
 4921000   0.47201442   -8.8428818    609.95677  0.010329147 0.0085152845            3 
 4922000    0.4507837   -8.8296927    609.97656  0.010327383 0.0085124492            3 
 4923000   0.46441974    -8.849464    610.08501  0.010327121 0.0085096153            3 
 4924000   0.47686797   -8.8619391    609.77766  0.010319822 0.0085067812            3 
 4925000   0.46544332   -8.8303399    610.25376  0.010325783 0.0085039492            2 
 4926000   0.46751141   -8.8516081    610.35198  0.010325348 0.0085011174            2 
 4927000   0.46485113   -8.8483872    609.46195  0.010308199 0.0084982861            3 
 4928000   0.45569274   -8.8568884    608.72564  0.010293656 0.0084954564            4 
 4929000   0.47148731   -8.8431609    608.99088  0.010296052 0.0084926298            2 
 4930000     0.460914   -8.8401508    610.11321  0.010312935  0.008489804            3 
 4931000   0.46250599   -8.8412487    610.32858  0.010314483 0.0084869788            3 
 4932000    0.4648085   -8.8531299       611.15  0.010326271 0.0084841569            3 
 4933000   0.46204346   -8.8563418    610.54769  0.010314002 0.0084813356            2 
 4934000   0.46178802    -8.856861    609.91172  0.010301171 0.0084785138            3 
 4935000   0.45674617   -8.8520666    609.45286  0.010291335 0.0084756927            4 
 4936000   0.45327885   -8.8494987    609.88771  0.010296591 0.0084728741            2 
 4937000   0.46304067   -8.8508935    609.82785  0.010293496 0.0084700556            3 
 4938000   0.46475379   -8.8457101    609.79119  0.010290792 0.0084672404            4 
 4939000   0.47598965    -8.842208    610.18082  0.010295283 0.0084644265            2 
 4940000   0.46922492   -8.8489863    609.80564   0.01028687 0.0084616128            2 
 4941000   0.46308274   -8.8575481     610.0848  0.010289496 0.0084588004            2 
 4942000   0.46141996   -8.8491661    609.99528  0.010285904 0.0084559921            2 
 4943000   0.45484195   -8.8332194    609.58134  0.010276845 0.0084531829            2 
 4944000   0.46130474   -8.8608944    609.70314  0.010276819 0.0084503729            2 
 4945000   0.46190328   -8.8547492    609.16072    0.0102656 0.0084475633            3 
 4946000   0.46196135   -8.8580276    609.66271  0.010271983 0.0084447567            4 
 4947000   0.45602515   -8.8416022    608.97867  0.010258383 0.0084419511            2 
 4948000   0.46680492   -8.8445977    609.81151  0.010270337 0.0084391449            4 
 4949000    0.4556244   -8.8508858    610.42096  0.010278524 0.0084363429            5 
 4950000   0.46527537   -8.8456382    610.35327  0.010275308 0.0084335432            3 
 4951000   0.45128707   -8.8540294    609.42385  0.010257588 0.0084307454            3 
 4952000   0.46071935   -8.8529101     610.1208  0.010267246 0.0084279466            3 
 4953000   0.45828871   -8.8435404    609.47396   0.01025429 0.0084251472            4 
 4954000   0.45996392   -8.8506366    610.17315  0.010263981 0.0084223497            5 
 4955000   0.45497315   -8.8594661    610.41951  0.010266053 0.0084195533            2 
 4956000   0.45064184   -8.8486307    609.07752  0.010241416 0.0084167583            3 
 4957000   0.45413572    -8.854985    610.66747  0.010266079 0.0084139658            2 
 4958000   0.45484847     -8.84803    609.79549  0.010249353 0.0084111748            3 
 4959000   0.46836146    -8.852358    609.80655  0.010247472 0.0084083868            1 
 4960000   0.44838869   -8.8514128    610.00109  0.010248674 0.0084055989            4 
 4961000   0.46054403   -8.8511769    610.21585  0.010250216 0.0084028104            4 
 4962000   0.45423939   -8.8448447    608.98912  0.010227548 0.0084000227            3 
 4963000   0.46021037     -8.86086     609.6852  0.010237175  0.008397239            2 
 4964000   0.45915443   -8.8455404    609.38378  0.010230053 0.0083944558            7 
 4965000   0.45729772   -8.8549621    609.28729  0.010226373 0.0083916731            3 
 4966000   0.45662348   -8.8362991    608.57862  0.010212421 0.0083888911            3 
 4967000   0.45795606   -8.8523768    609.77291  0.010230402  0.008386112            5 
 4968000   0.45742831   -8.8528896    610.06223  0.010233196 0.0083833338            2 
 4969000   0.45046627   -8.8564784    609.87429  0.010227985 0.0083805549            3 
 4970000   0.45400785   -8.8687025    608.91876  0.010209905 0.0083777758            2 
 4971000   0.45585041   -8.8608306    609.36461  0.010215326 0.0083749992            4 
 4972000   0.45716594   -8.8401777    609.81273  0.010220782  0.008372226            2 
 4973000   0.45433323   -8.8604621    610.97464  0.010238197 0.0083694535            2 
 4974000   0.46836892   -8.8503721    609.58745  0.010212898 0.0083666831            2 
 4975000   0.44847411   -8.8632006    610.64373  0.010228538 0.0083639106            2 
 4976000   0.46208728   -8.8398996    609.95188  0.010214896 0.0083611411            3 
 4977000   0.45269019   -8.8646601    609.37655  0.010203211 0.0083583746            5 
 4978000   0.44754469   -8.8421527    610.04579  0.010212364 0.0083556094            2 
 4979000   0.45247908   -8.8583785    608.78404  0.010189195 0.0083528405            4 
 4980000   0.45698813   -8.8534358    609.17953  0.010193767 0.0083500743            1 
 4981000   0.46045562    -8.863776    608.86658  0.010186485   0.00834731            2 
 4982000   0.45081035   -8.8488532    608.87689  0.010184613 0.0083445459            3 
 4983000   0.46025252    -8.853176    609.29105  0.010189495 0.0083417847            5 
 4984000   0.45466398    -8.861202    609.25855  0.010186907  0.008339022            2 
 4985000   0.45752666   -8.8591557    609.29749  0.010185515  0.008336261            3 
 4986000   0.44446767   -8.8642502    609.28597  0.010183279 0.0083335012            4 
 4987000   0.45423478   -8.8613163    609.42145  0.010183501 0.0083307418            1 
 4988000   0.44528752   -8.8611417    609.88571  0.010189216 0.0083279852            2 
 4989000   0.44982744   -8.8624926    609.14262  0.010174761 0.0083252326            1 
 4990000   0.45395166   -8.8638298    609.74817  0.010182835 0.0083224777            3 
 4991000   0.46683567   -8.8703209    609.24213  0.010172346 0.0083197229            3 
 4992000   0.45733869   -8.8620712    608.95575  0.010165527 0.0083169706            5 
 4993000   0.44242222    -8.872425    609.17506  0.010167152 0.0083142211            4 
 4994000   0.44528891   -8.8611839    609.08625  0.010163634 0.0083114712            2 
 4995000   0.45542547   -8.8668079    608.85049  0.010157666  0.008308723            4 
 4996000   0.44937868   -8.8646935    610.46135  0.010182502 0.0083059773            4 
 4997000   0.45611012   -8.8682818    609.67402  0.010167334 0.0083032306            2 
 4998000   0.44118283   -8.8694704    608.14301  0.010139773  0.008300484            3 
 4999000   0.44912709   -8.8547604    610.20501  0.010172118 0.0082977398            2 
 5000000   0.45252869   -8.8660191    609.11619  0.010151936 0.0082949995            4 
 5001000    0.4494277   -8.8461516    610.46682  0.010172413 0.0082922587            2 
 5002000   0.46031948   -8.8677676    608.47418  0.010137181 0.0082895185            2 
 5003000   0.44850047   -8.8537878    609.57658  0.010153518  0.008286781            2 
 5004000   0.44792231   -8.8678922      609.994   0.01015844 0.0082840444            2 
 5005000   0.45014168   -8.8645701    609.44273  0.010147232 0.0082813097            5 
 5006000   0.45168478   -8.8762486    608.72809  0.010133308 0.0082785734            3 
 5007000   0.44466179   -8.8717435    608.74234  0.010131521 0.0082758388            4 
 5008000   0.45715665    -8.870309    609.13713  0.010136068 0.0082731055            2 
 5009000   0.45388087   -8.8593035    609.69719  0.010143362 0.0082703743            4 
 5010000   0.45542127   -8.8512009    608.52619   0.01012186 0.0082676442            3 
 5011000   0.45466449   -8.8671103    609.67788  0.010138992 0.0082649143            2 
 5012000   0.44115385   -8.8601037    608.97832  0.010125338 0.0082621873            2 
Loop time of 12201.4 on 48 procs for 5000000 steps with 4000 atoms

Performance: 70811.528 tau/day, 409.789 timesteps/s
99.4% CPU use with 48 MPI tasks x no OpenMP threads

MPI task timing breakdown:
Section |  min time  |  avg time  |  max time  |%varavg| %total
---------------------------------------------------------------
Pair    | 809.2      | 860.92     | 910.1      |  92.8 |  7.06
Neigh   | 80.208     | 83.059     | 85.752     |  17.3 |  0.68
Comm    | 794.23     | 842.34     | 898.19     |  98.5 |  6.90
Output  | 13.616     | 13.621     | 13.7       |   0.3 |  0.11
Modify  | 10263      | 10287      | 10310      |  11.7 | 84.31
Other   |            | 114.7      |            |       |  0.94

Nlocal:        83.3333 ave          88 max          75 min
Histogram: 1 0 1 4 3 9 12 8 7 3
Nghost:        2125.75 ave        2148 max        2101 min
Histogram: 3 3 3 2 11 6 9 4 4 3
Neighs:        14002.7 ave       15313 max       12661 min
Histogram: 4 1 3 7 6 10 6 8 2 1
FullNghs:      28005.6 ave       29556 max       24906 min
Histogram: 1 0 1 2 3 10 7 12 7 5

Total # of neighbors = 1344268
Ave neighs/atom = 336.06700
Neighbor list builds = 267346
Dangerous builds = 1

#clear
#
#next RN
#
#jump SELF
Total wall time: 3:23:24
