
units lj                  # Use reduced LJ style units
atom_style atomic         # Uncharged point particles
atom_modify map hash      # Needed for indexing of clusters etc
                          # Used to be able to find where atoms are in relation to each other.

lattice fcc 1.0 spacing 1 1 1
Lattice spacing in x,y,z = 1.5874011 1.5874011 1.5874011
region box block 0 10 0 10 0 10 units lattice
create_box 2 box
Created orthogonal box = (0.0000000 0.0000000 0.0000000) to (15.874011 15.874011 15.874011)
  3 by 4 by 4 MPI processor grid
create_atoms 1 box
Created 4000 atoms
  using lattice units in orthogonal box = (0.0000000 0.0000000 0.0000000) to (15.874011 15.874011 15.874011)
  create_atoms CPU = 0.002 seconds
set type 1 type/fraction 2 0.56 78393
Setting atom values ...
  2252 settings made for type/fraction
mass 1 1.0
mass 2 1.0
pair_style lj/cut  3.5
pair_modify tail  yes
pair_coeff 1  1  1.0  1.0   # Intearaction between 1 and 1 set with epsilon = 1 and sigma = 1
pair_coeff 1  2  1.5  0.8
pair_coeff 2  2  0.5  0.88

write_data data.0
System init for write_data ...
Neighbor list info ...
  update every 1 steps, delay 10 steps, check yes
  max neighbors/atom: 2000, page size: 100000
  master list distance cutoff = 3.8
  ghost atom cutoff = 3.8
  binsize = 1.9, bins = 9 9 9
  1 neighbor lists, perpetual/occasional/extra = 1 0 0
  (1) pair lj/cut, perpetual
      attributes: half, newton on
      pair build: half/bin/atomonly/newton
      stencil: half/bin/3d
      bin: standard
WARNING: Not all mixed pair coeffs generated from mixing. Use write_data with 'pair ij' option to store all pair coeffs. (../write_data.cpp:312)


#############################
#   M E L T   S Y S T E M   #
#############################

velocity all create 2.4 9622624 mom yes dist gaussian # Assign velocities
                                                    # Temperature 2.4, random number seed, zero linear momentum
                                                                                # Gaussian distribution

timestep 0.002   # simulation timestep
thermo 1000       # output thermodynamic data every 1000 steps bf 100

# Define a fix  in this case with index 1 applied to all
# particles in the simulation. This fix is for simulations
# in the anisotropic NPT ensemble. Note that we use the MTK
# correction.
fix 1 all npt temp 2.4 2.4 0.1 iso 5.68 5.68 0.5 mtk yes tchain 5 pchain 5 # Use NPT ensemble
                                                                         # Set temperature and pressure and damping
                                                                         # Numbers of thermostats in chain and in barostat
run 10000          # run for 10000 steps
Per MPI rank memory allocation (min/avg/max) = 3.642 | 3.644 | 3.648 Mbytes
Step Temp E_pair E_mol TotEng Press Volume 
       0          2.4   -4.9459583            0   -1.3468583   -4.1435722         4000 
    1000     2.422614   -4.6531507            0   -1.0201382    5.6216588    3641.6788 
    2000    2.3914188   -4.6703639            0   -1.0841324    5.5220083    3640.6655 
    3000    2.4012498   -4.6798153            0   -1.0788411    5.5738894    3633.6643 
    4000    2.3989385   -4.6713514            0   -1.0738433    5.8926223    3609.6461 
    5000    2.3763608   -4.6911333            0   -1.1274831    5.7752503    3615.8361 
    6000    2.3704162   -4.6765351            0   -1.1217997    5.7024027    3622.7431 
    7000    2.4193597    -4.647315            0   -1.0191828    5.6583953    3637.4261 
    8000    2.4467691   -4.7241734            0   -1.0549373    6.1211659     3577.593 
    9000    2.4171705   -4.6978584            0   -1.0730092    5.6989777    3622.0515 
   10000    2.4128768   -4.6149442            0  -0.99653383    5.3783143    3690.4322 
Loop time of 2.88388 on 48 procs for 10000 steps with 4000 atoms

Performance: 599193.426 tau/day, 3467.555 timesteps/s
99.4% CPU use with 48 MPI tasks x no OpenMP threads

MPI task timing breakdown:
Section |  min time  |  avg time  |  max time  |%varavg| %total
---------------------------------------------------------------
Pair    | 1.1946     | 1.2654     | 1.3347     |   2.5 | 43.88
Neigh   | 0.21328    | 0.22235    | 0.23661    |   0.8 |  7.71
Comm    | 0.86447    | 0.93621    | 0.99922    |   3.2 | 32.46
Output  | 0.00024321 | 0.00025188 | 0.00049205 |   0.0 |  0.01
Modify  | 0.38005    | 0.44393    | 0.48169    |   4.1 | 15.39
Other   |            | 0.01569    |            |       |  0.54

Nlocal:        83.3333 ave          89 max          75 min
Histogram: 2 2 4 2 5 9 5 9 5 5
Nghost:        1734.50 ave        1762 max        1701 min
Histogram: 1 1 3 6 9 8 7 8 4 1
Neighs:        10342.0 ave       11310 max        8829 min
Histogram: 1 3 2 2 5 8 8 8 7 4

Total # of neighbors = 496417
Ave neighs/atom = 124.10425
Neighbor list builds = 902
Dangerous builds = 220

# Equilibrate just above the melting temperature to avoid step fn in T

fix 1 all npt temp 1.25 1.25 0.1 iso 5.68 5.68 0.5 mtk yes tchain 5 pchain 5
run 2000
Per MPI rank memory allocation (min/avg/max) = 3.644 | 3.646 | 3.650 Mbytes
Step Temp E_pair E_mol TotEng Press Volume 
   10000    2.4128768   -4.6149442            0  -0.99653383    5.3783143    3690.4322 
   11000    1.2471189   -6.7588189            0   -4.8886083    5.6578706    2808.6908 
   12000    1.2460422   -6.8691726            0   -5.0005766    5.9166572    2769.1392 
Loop time of 0.718034 on 48 procs for 2000 steps with 4000 atoms

Performance: 481314.065 tau/day, 2785.382 timesteps/s
99.4% CPU use with 48 MPI tasks x no OpenMP threads

MPI task timing breakdown:
Section |  min time  |  avg time  |  max time  |%varavg| %total
---------------------------------------------------------------
Pair    | 0.2897     | 0.31789    | 0.34622    |   2.2 | 44.27
Neigh   | 0.041263   | 0.043392   | 0.045788   |   0.5 |  6.04
Comm    | 0.20736    | 0.24676    | 0.27763    |   3.5 | 34.37
Output  | 4.8519e-05 | 5.0452e-05 | 6.7193e-05 |   0.0 |  0.01
Modify  | 0.076627   | 0.10532    | 0.1183     |   4.9 | 14.67
Other   |            | 0.004624   |            |       |  0.64

Nlocal:        83.3333 ave          91 max          73 min
Histogram: 1 1 2 9 3 8 9 9 4 2
Nghost:        2105.00 ave        2125 max        2093 min
Histogram: 3 7 11 4 10 7 3 2 0 1
Neighs:        13771.3 ave       15044 max       12207 min
Histogram: 4 2 2 7 4 7 5 6 8 3

Total # of neighbors = 661024
Ave neighs/atom = 165.25600
Neighbor list builds = 144
Dangerous builds = 19

#############################
# L I N E A R  Q U E N C H  #
#############################

# Define solid atoms. This closely follows ten Wolde  Ruiz-Montero and Frenkel  Faraday Discuss  1996  104  93-110
# Compute components of the per-atom q6 vector
compute q6 all orientorder/atom degrees 1 6 components 6 nnn NULL cutoff 1.3 # compute the Q6 parameter.
                                                                             # Use all neighbours within 1.3 unit cell.

# get number of connections
compute coord_number all coord/atom orientorder q6 0.5

# An atom is solid if it has 8 or more connections (of a possible 14)
variable is_solid atom c_coord_number>=8
group solid dynamic all var is_solid    # Must be dynamic to update
dynamic group solid defined

# do clustering
compute cluster solid cluster/atom 1.3 # Create a cluster where all atoms within are solid and max 1.3 units from another member

# define chunks one chunk per cluster
compute clus_chunks solid chunk/atom c_cluster nchunk every compress yes  # Says which atoms are in which chunk

# count the size of each chunk
compute size_chunks solid property/chunk clus_chunks count


# Find the maximum entry in the vector of chunk sizes
variable max_n equal max(c_size_chunks)


# Thermo style which includes this variable
# thermo_style custom step temp pe vol v_max_n

thermo ${N}  # Print the thermo information every 100 steps
thermo 1000  

# Reset the npt fix at a lower temperature (below freezing)
fix 1  all npt temp  ${temp} ${temp}  0.1  iso  5.68  5.68  0.5  mtk yes tchain  5  pchain  5
fix 1  all npt temp  0.45 ${temp}  0.1  iso  5.68  5.68  0.5  mtk yes tchain  5  pchain  5
fix 1  all npt temp  0.45 0.45  0.1  iso  5.68  5.68  0.5  mtk yes tchain  5  pchain  5

dump dmp2 all dcd ${N} traj.dcd
dump dmp2 all dcd 1000 traj.dcd


compute msd all msd com yes
variable twopoint equal c_msd[4]/6/(step*dt+1.0e-6)
fix 9 all vector 10 c_msd[4]
variable fit equal slope(f_9)/6/(10*dt)
thermo_style custom step temp pe c_msd[4] v_twopoint v_fit v_max_n

fix 1 all npt temp 1.25 ${temp} 0.1 iso 5.68 5.68 0.5 mtk yes tchain 5 pchain 5
fix 1 all npt temp 1.25 0.45 0.1 iso 5.68 5.68 0.5 mtk yes tchain 5 pchain 5
run 5000000 # 5000000  # Run for this many steps
Neighbor list info ...
  update every 1 steps, delay 10 steps, check yes
  max neighbors/atom: 2000, page size: 100000
  master list distance cutoff = 3.8
  ghost atom cutoff = 3.8
  binsize = 1.9, bins = 8 8 8
  4 neighbor lists, perpetual/occasional/extra = 1 3 0
  (1) pair lj/cut, perpetual
      attributes: half, newton on
      pair build: half/bin/atomonly/newton
      stencil: half/bin/3d
      bin: standard
  (2) compute orientorder/atom, occasional
      attributes: full, newton on
      pair build: full/bin/atomonly
      stencil: full/bin/3d
      bin: standard
  (3) compute coord/atom, occasional
      attributes: full, newton on
      pair build: full/bin/atomonly
      stencil: full/bin/3d
      bin: standard
  (4) compute cluster/atom, occasional
      attributes: full, newton on
      pair build: full/bin/atomonly
      stencil: full/bin/3d
      bin: standard
Per MPI rank memory allocation (min/avg/max) = 9.846 | 9.850 | 9.853 Mbytes
Step Temp PotEng c_msd[4] v_twopoint v_fit v_max_n 
   12000    1.2460422   -6.8691726 8.2929003e-31 5.7589583e-33 8.3333333e+20            2 
   13000    1.2535312   -6.9157856   0.46431036 0.0029763484  0.037805878            1 
   14000    1.2621586   -6.9359948   0.89991976 0.0053566651  0.036661714            4 
   15000    1.2397311   -6.8311746    1.3116153 0.0072867512  0.035760186            2 
   16000    1.2269242   -6.8679482    1.7220164 0.0089688352  0.035368717            2 
   17000    1.2384253   -6.8773757    2.1117012  0.010351476   0.03482904            2 
   18000    1.2513373   -6.8708836    2.5673045  0.011885669  0.034681397            3 
   19000     1.230521    -6.879787    2.9545698  0.012958639  0.034786383            2 
   20000    1.2667164    -6.852899     3.349223  0.013955096  0.034639536            4 
   21000     1.253847   -6.9183856    3.7478837  0.014872554  0.034509829            4 
   22000    1.2598206   -6.8425577    4.2401926  0.016061335  0.034498256            2 
   23000    1.2297053   -6.8758024    4.6669274  0.016909157  0.034635446            2 
   24000    1.2496054   -6.8576634    5.0241514   0.01744497  0.034622792            4 
   25000    1.2678021   -6.8977856    5.3980753  0.017993584  0.034557982            2 
   26000    1.2457214   -6.8749164    5.7989081  0.018586244  0.034424448            1 
   27000    1.2429774   -6.8599821    6.1777352  0.019067084  0.034294555            2 
   28000    1.2400482   -6.8914718    6.5879009  0.019606847  0.034172281            3 
   29000    1.2379445   -6.9144965    7.0920485  0.020379449  0.034208644            6 
   30000    1.2449405   -6.9336852    7.4815721  0.020782144    0.0342768            2 
   31000    1.2327366   -6.8652466    7.8949215  0.021222907  0.034278405            2 
   32000    1.2257731   -6.8845889    8.2446627  0.021470476  0.034231102            2 
   33000    1.2606189   -6.8712606    8.6795922  0.021918162  0.034234521            1 
   34000    1.2606157   -6.9432653    9.1008407  0.022305982  0.034192796            4 
   35000    1.2607831   -6.9205091    9.5784679  0.022805876  0.034227429            6 
   36000    1.2423181   -6.9037178     10.03767  0.023235348   0.03430262            2 
   37000    1.2461856   -6.9011857    10.435852   0.02350417  0.034374323            1 
   38000    1.2305272   -6.9184163    10.850676  0.023795341  0.034423827            2 
   39000    1.2379581   -6.8979342    11.394059   0.02434628  0.034500733            2 
   40000     1.253314    -6.885267    11.863018  0.024714621  0.034611161            1 
   41000    1.2715653   -6.9279622    12.249494  0.024897345  0.034710489            5 
   42000    1.2463838   -6.9039626    12.689745  0.025178066  0.034795098            3 
   43000    1.2348472   -6.8826362     13.13748  0.025460233  0.034878815            2 
   44000    1.2286541   -6.8438952    13.585787  0.025730656  0.034953752            3 
   45000    1.2236282   -6.8622437     14.03863  0.025997463   0.03504209            2 
   46000    1.2194655   -6.8837158     14.22237  0.025765163  0.035060904            1 
   47000     1.253624   -6.8475766    14.683152  0.026033957  0.035034914            3 
   48000    1.2359597   -6.9001466    15.087075  0.026192839   0.03502003            4 
   49000    1.2205264   -6.8804084    15.591509  0.026516172  0.035015098            3 
   50000    1.2534147   -6.8736774    15.967817  0.026613028  0.035022796            3 
   51000    1.2337795    -6.890972    16.410997  0.026815355  0.035039514            2 
   52000    1.2376654   -6.9220914    16.685981  0.026740354  0.035026589            2 
   53000    1.2578252   -6.9303561    17.215391  0.027068224  0.035020435            1 
   54000    1.2207799   -6.8579787    17.490563  0.026991609  0.034983716            1 
   55000    1.2743937   -6.9269546    17.849068  0.027044042  0.034934891            3 
   56000    1.2833663   -6.8750762    18.295093  0.027224841  0.034888937            7 
   57000    1.2348707   -6.8956757    18.811568  0.027502292  0.034883117            2 
   58000     1.242781   -6.9470575    19.150729  0.027515415  0.034879028            1 
   59000    1.2676293   -6.9237342    19.646725  0.027749612   0.03486283            2 
   60000    1.2305827   -6.9100686    20.011599  0.027793887  0.034847191            1 
   61000    1.2461759   -6.9050498    20.480678  0.027979068  0.034841566            1 
   62000    1.2290187   -6.9422321    20.929473  0.028131012  0.034851089            3 
   63000    1.2180185    -6.943829    21.515847  0.028460115  0.034874917            2 
   64000    1.2375967   -6.8900704    21.942284  0.028570682  0.034901704            1 
   65000    1.2512088   -6.9154294    22.254478  0.028531382  0.034917561            2 
   66000    1.2561375   -6.9180853    22.622567  0.028563847  0.034926499            3 
   67000     1.259318   -6.8964569    22.956022  0.028552266  0.034915976            5 
   68000     1.248589   -6.8899997    23.455029  0.028743908  0.034904807            4 
   69000    1.2269529   -6.9190296    23.773262  0.028711669  0.034898478            2 
   70000    1.2603667   -6.9044203    24.171782   0.02877593  0.034888675            2 
   71000    1.2273754   -6.8840926    24.632732  0.028911657  0.034875547            3 
   72000    1.2447354    -6.864689    25.013466  0.028950771  0.034861086            3 
   73000    1.2521295   -6.9278391    25.379357  0.028971868  0.034845623            2 
   74000    1.2632345   -6.9442354    25.490598  0.028705628  0.034812785            2 
   75000    1.2607292   -6.9428191     25.96702  0.028852244  0.034776503            1 
   76000    1.2326056   -6.8721001    26.484045  0.029039523  0.034747088            1 
   77000    1.2275406   -6.8686694    26.820438  0.029026448  0.034713706            4 
   78000     1.215054   -6.9120463    27.250497  0.029113778  0.034678524            1 
   79000    1.2579471   -6.9168907    27.681522  0.029199918  0.034646416            1 
   80000     1.232285   -6.8882488     28.11519  0.029286657  0.034617334           10 
   81000    1.2321014   -6.9151738    28.509317  0.029330573  0.034586736            2 
   82000     1.231507   -6.9210858    28.962299   0.02943323  0.034563946            1 
   83000    1.2171316   -6.9451649    29.300873  0.029418547  0.034545856            2 
   84000    1.2588491   -6.9034616    29.837785  0.029600977  0.034538437            2 
   85000    1.2333988   -6.9160228    30.234129  0.029641303  0.034525991            4 
   86000    1.2249818   -6.8887631    30.754433  0.029800807  0.034526064            2 
   87000    1.2472447   -6.8821164    31.422374  0.030098059   0.03453364            4 
   88000     1.245715   -6.8774425    31.867852   0.03017789  0.034550563            1 
   89000    1.2487425   -6.9329454    32.086334  0.030043384  0.034559939            2 
   90000    1.2539173   -6.9240098    32.468581  0.030063501  0.034564393            3 
   91000    1.2171301   -6.9289155     32.89267  0.030121493  0.034561492            2 
   92000    1.2335223   -6.9412149    33.248308  0.030116221  0.034555709            2 
   93000     1.240902   -6.8768663    33.544513  0.030057807  0.034547458            3 
   94000    1.2213974   -6.9179259    33.823179  0.029985087  0.034531716            1 
   95000    1.2355479   -6.9146437    34.358986  0.030139461  0.034516844            6 
   96000    1.2528323   -6.8576165    34.836076  0.030239649  0.034508078            3 
   97000    1.2457746   -6.9088028    35.356795  0.030375254  0.034501422            1 
   98000     1.256651   -6.9467474    35.780743  0.030425802  0.034499886            2 
   99000    1.2501106   -6.9249863    36.038821  0.030335708  0.034500296            4 
  100000     1.195515   -6.9098989    36.285836  0.030238197  0.034496402            2 
  101000    1.2451703    -6.959317    36.668408  0.030254462   0.03448307            1 
  102000    1.2164968     -6.92042    37.131624  0.030336294  0.034472882            1 
  103000    1.2202735   -6.9253343    37.652415  0.030463119  0.034466503            4 
  104000    1.2289641   -6.9477051    37.886766  0.030357986  0.034456582            1 
  105000    1.2151115   -6.9217762    38.216845  0.030330829  0.034438627            5 
  106000    1.2565746   -6.9374985    38.622683  0.030363744  0.034416618            4 
  107000    1.1981622   -6.9941086    38.926168   0.03031633  0.034396707            2 
  108000     1.247431   -6.8938632    39.462304  0.030449308  0.034383399            2 
  109000    1.2220634   -6.9379216    40.048809  0.030618356  0.034370999            2 
  110000    1.2352159    -6.892422    40.569431  0.030734417   0.03436364            4 
  111000    1.2510645   -6.8942993    41.045491  0.030814933  0.034359001            4 
  112000    1.2187237   -6.9119013    41.368588  0.030780199  0.034353464            4 
  113000    1.2530646   -6.9078112    41.622673  0.030695186  0.034346952            2 
  114000    1.2329606   -6.9356534    41.733243  0.030506756  0.034333974            3 
  115000    1.2468188   -6.9138383    42.483117  0.030784868  0.034322621            2 
  116000    1.2057357     -6.91939    42.879518  0.030804251   0.03431514            2 
  117000    1.2252145   -6.9487435    43.248073  0.030803471  0.034307652            4 
  118000    1.1935842   -6.9382089    43.615639  0.030802005  0.034305241            2 
  119000    1.2375947    -6.974251    43.996378  0.030809789  0.034299022            2 
  120000    1.2229883    -6.899271    44.492156  0.030897331  0.034294243            2 
  121000    1.2214658   -6.9468796    44.736308  0.030810129  0.034288575            4 
  122000    1.2375284   -6.9201713    45.075239  0.030789098  0.034275724            5 
  123000    1.2423408   -6.9562966    45.798167  0.031028569  0.034266793            5 
  124000    1.2512121   -6.9212569    46.262689  0.031090516  0.034262653            2 
  125000    1.2411248   -6.9828062    46.436868  0.030957912  0.034261786            4 
  126000    1.2556586   -6.9219995    47.051405  0.031118654  0.034262897            3 
  127000    1.2218706   -6.9447924    47.441891   0.03112985  0.034262039            2 
  128000    1.2153315   -6.9605817      47.6103  0.030996289  0.034256142            2 
  129000    1.2114451   -6.9138887    48.136227  0.031095754  0.034249409            3 
  130000    1.2643094   -6.9813308    48.382439  0.031014384  0.034238802            2 
  131000    1.2360994   -6.9263446    48.959769  0.031144891  0.034228983            3 
  132000    1.2380369   -6.9656592    49.378357  0.031173205  0.034224326            3 
  133000    1.2062012   -6.9286035     49.93844  0.031289749  0.034221365            2 
  134000    1.2041757   -6.8876456    50.332802  0.031301494  0.034215138            3 
  135000    1.2119098   -6.9255829    50.603585  0.031236781  0.034209127            1 
  136000    1.2465022   -6.9119225    50.911439  0.031195735  0.034200252            1 
  137000    1.2409765   -6.9668318    51.308192  0.031209362  0.034195569            3 
  138000    1.2398713   -6.9426181    51.901524    0.0313415  0.034193721            2 
  139000    1.2181971   -6.9581745    52.250287  0.031325112  0.034191646            3 
  140000    1.2276931   -6.9549172    52.358307  0.031165659  0.034187938            2 
  141000    1.2124721   -6.8853063    52.961586  0.031301174  0.034180959            2 
  142000    1.2269025   -6.9257259    53.606755  0.031459363   0.03417655            2 
  143000    1.2186154   -6.9642147    53.932088  0.031428956  0.034174633            2 
  144000    1.2134392   -6.9163785    54.493289  0.031535468   0.03417284            4 
  145000    1.1915847   -6.9254011    54.737315  0.031458227  0.034173307            1 
  146000    1.2402223   -6.9327524    55.089466  0.031443759  0.034169481            1 
  147000    1.2564289   -6.9381549    55.582213  0.031509191  0.034168108            2 
  148000    1.2320097    -6.923092    55.939504  0.031497468  0.034163119            2 
  149000     1.221544   -6.9357372    56.073945  0.031361267  0.034157315            4 
  150000    1.2175083   -6.9348117     56.71458    0.0315081  0.034153611            1 
  151000    1.2276981   -6.9710882    57.084883  0.031503798  0.034150735            1 
  152000    1.2447525   -6.9318749    57.713262  0.031641042   0.03415312            4 
  153000     1.223613     -6.99408    57.630864  0.031389359  0.034149989            1 
  154000    1.2240717   -6.9731904    58.378895  0.031590311  0.034147651            6 
  155000    1.2155154   -6.9137117    58.487169  0.031444714  0.034139787            4 
  156000    1.2345818   -6.9814506    58.827251  0.031424814  0.034132225            2 
  157000    1.2331368   -6.9640796    58.943653   0.03128644  0.034122489            4 
  158000    1.2132891    -6.926488    59.467023  0.031364463  0.034109125            2 
  159000    1.2207017   -6.9580572     59.86408  0.031375304  0.034094511            1 
  160000    1.1970659   -6.9530031    60.109611  0.031307089  0.034078547            2 
  161000    1.2443618   -6.9287425    60.420539  0.031273571   0.03406256            1 
  162000    1.2013835   -6.9696786    60.856959   0.03130502  0.034045979            2 
  163000    1.2192242   -6.9860078    61.167723  0.031271842  0.034030864            3 
  164000    1.2190317   -6.9237107    61.682334  0.031342649  0.034015411            2 
  165000    1.2042337   -6.9766091    61.855817  0.031240312  0.034001311            2 
  166000    1.2016026    -6.953097    62.230415  0.031240168  0.033983854            1 
  167000    1.2489187    -6.907916    62.921307  0.031397858  0.033965803            2 
  168000    1.2249652   -6.9238566    63.246886  0.031372463    0.0339508            2 
  169000    1.2217732   -6.9652953    63.712128  0.031416237  0.033938235            1 
  170000    1.2019747   -6.9573413    63.868361   0.03130802  0.033924155            2 
  171000    1.2459135   -6.9732458    64.307476  0.031338926  0.033909165            2 
  172000     1.255958   -6.9407436    64.639881  0.031317772  0.033892549            2 
  173000    1.2333804   -6.9786271    64.896422  0.031260319  0.033873931            1 
  174000    1.2114001   -6.9509637    65.122129  0.031188759  0.033854747            2 
  175000    1.2293818   -6.9090475    65.670901  0.031271857  0.033835618            2 
  176000    1.2084103   -6.9599662    66.043847  0.031270761  0.033817896            2 
  177000    1.2156884   -6.9934452     66.15306  0.031145509   0.03379818            1 
  178000    1.2360088   -6.9318979    66.638028  0.031197579  0.033777934            2 
  179000    1.2432114   -6.9771276    66.828763  0.031112087   0.03375505            4 
  180000    1.2624046   -6.9150188    67.241568  0.031130355  0.033731867            2 
  181000    1.2332834     -6.94016    67.583195  0.031115652  0.033707785            2 
  182000    1.2126262   -6.9458881    67.988788  0.031130397  0.033684141            2 
  183000     1.197243   -6.9521845    68.426252  0.031159495  0.033660542            1 
  184000    1.2020905   -6.9874449    68.453105  0.031002312  0.033638625            3 
  185000    1.2105963   -6.9101953    68.879806  0.031026939  0.033617033            1 
  186000    1.2189548   -6.9932538    69.210551  0.031008311  0.033593104            2 
  187000    1.1982239   -6.9641922      69.5278  0.030983868  0.033569115            2 
  188000    1.2269554   -6.9259611    70.032384  0.031042723   0.03354543            3 
  189000    1.2036153   -6.9803575    70.350171  0.031018594  0.033522492            3 
  190000    1.2490898   -6.9874368    70.581549   0.03095682  0.033498272            5 
  191000    1.2133497   -6.9060811    71.206259  0.031067303  0.033474339            7 
  192000    1.2289127   -6.9950107    70.829734  0.030742072  0.033447996            2 
  193000    1.2098343   -7.0173574    71.254559  0.030766217  0.033421338            6 
  194000     1.208534   -6.9644171    71.962321   0.03091165  0.033395975            2 
  195000    1.2091069   -6.9298907     72.29884   0.03089694  0.033369639            4 
  196000    1.2297646   -6.9446004     72.72771  0.030921645  0.033344202            2 
  197000    1.2061466   -6.9582695    72.715535  0.030759532  0.033315971            1 
  198000    1.2049493   -6.9744565    73.271593  0.030838213   0.03328746            7 
  199000    1.2242063   -6.9739364    73.192631   0.03065018  0.033258353            3 
  200000    1.2151723   -6.9765709    73.852656   0.03077194  0.033229769            2 
  201000    1.1980538   -6.9600624    74.396016  0.030844119  0.033201469            3 
  202000    1.2054204   -6.9501248     74.62489  0.030785846  0.033175717            2 
  203000    1.2340857   -6.9591518    74.769413  0.030693519   0.03315132            1 
  204000    1.2209517   -6.9842702    75.526398  0.030852287  0.033126359            2 
  205000    1.2478123    -6.905918    75.923197  0.030863088  0.033103292            4 
  206000    1.2423342    -6.967406     76.35344  0.030887314  0.033080144            4 
  207000    1.2130766   -6.9674556    76.822053  0.030926753  0.033058974            3 
  208000    1.2079263   -6.9717486    76.607856   0.03069225  0.033035171            2 
  209000    1.2347963   -6.9518228    77.459781   0.03088508   0.03301272            3 
  210000    1.2080721   -6.9768956    77.567312  0.030780679   0.03298934            3 
  211000    1.2321482    -6.963441    78.190293  0.030880843  0.032964923            2 
  212000    1.2169256   -6.9401101    78.099092  0.030699328  0.032940062            2 
  213000    1.2165817   -7.0101234     78.30766    0.0306368  0.032916206            1 
  214000    1.1987066    -7.023406    78.633091  0.030620363  0.032889839            2 
  215000    1.2287681   -6.9689223    79.181489  0.030690499  0.032862802            3 
  216000    1.2074042   -7.0300172    79.407435  0.030635585  0.032836702            3 
  217000    1.2175277   -7.0034543    79.687899  0.030602112  0.032810802            2 
  218000    1.2251854   -7.0173882    79.858869   0.03052709  0.032785325            3 
  219000    1.2158558   -6.9827905     80.43228   0.03060589  0.032758089            2 
  220000    1.2154946   -7.0100903    80.512395  0.030497119  0.032732264            2 
  221000    1.2232165   -6.9327607    81.302544  0.030657068  0.032707428            2 
  222000     1.261327   -6.9830405    81.389554  0.030551635  0.032681974            2 
  223000    1.1853073   -6.9601532    82.081128  0.030673067   0.03265702            1 
  224000    1.2017556   -6.9657386    82.037459  0.030519888  0.032633796            4 
  225000    1.2036687   -6.9807089    82.552422  0.030574971  0.032609836            5 
  226000    1.1956889     -6.97806    82.955051  0.030588145   0.03258558            2 
  227000    1.2112727   -6.9437924    83.411915  0.030621114  0.032559867            6 
  228000    1.2164706   -6.9772386    83.203829  0.030410756  0.032533986            2 
  229000    1.2190228   -6.9824465    83.343414  0.030328753   0.03250568            5 
  230000    1.2231975   -6.9667907    83.952541  0.030417587  0.032476755            2 
  231000    1.2140291   -6.9561032    84.470475  0.030472754  0.032451804            3 
  232000    1.2356352   -6.9598607    84.518759   0.03035875  0.032426525            3 
  233000    1.2127118   -6.9791565     84.72069  0.030300676  0.032399098            4 
  234000    1.2167734   -6.9707602    85.088696  0.030302242   0.03237206            3 
  235000    1.2340371    -6.949549    85.712256  0.030394417  0.032344957            2 
  236000    1.1856799   -6.9767519    85.831697  0.030307802  0.032317968            1 
  237000    1.2185802    -6.985948    86.057632  0.030259364  0.032289804            3 
  238000    1.2316768   -7.0077984    86.606806  0.030324512  0.032262649            1 
  239000    1.2039072   -7.0231966    86.792161   0.03026226  0.032235307            4 
  240000    1.2212029   -7.0168447    86.817673  0.030145025   0.03220768            2 
  241000    1.2143693   -6.9871228    87.271696  0.030176935  0.032180425            2 
  242000    1.2288637   -6.9352495    87.988397  0.030299035  0.032154089            3 
  243000    1.1980103   -6.9602973     88.04078  0.030192311  0.032127117            2 
  244000    1.2414236   -6.9644609    88.573635  0.030250558  0.032100836            2 
  245000    1.2190394   -6.9608111    88.903587  0.030239315  0.032074816            3 
  246000     1.206371   -6.9508563    89.086778  0.030178448   0.03204945            1 
  247000    1.2051093    -6.977348    89.595292  0.030227831  0.032025097            1 
  248000    1.1954759   -6.9032346    90.440358  0.030389905  0.032002153            3 
  249000     1.214172   -6.9845291    90.177233  0.030179797  0.031977278            4 
  250000    1.1963844   -6.9413541    90.535299  0.030178433   0.03195294            2 
  251000    1.2208839    -6.992656    90.709702  0.030116103   0.03192826            3 
  252000    1.2247691    -7.008021    90.949859  0.030076011  0.031903981            2 
  253000    1.1955197   -6.9541583    91.202895  0.030040479  0.031879343            1 
  254000    1.2133861   -6.9840988    91.716727   0.03009079  0.031854499            5 
  255000    1.2246788   -6.9852076    92.154922  0.030115988   0.03183009            8 
  256000    1.2165541   -7.0313551    92.150657  0.029996958  0.031805026            1 
  257000    1.2226288   -6.9463438    93.256767    0.0302389  0.031783637            3 
  258000    1.2284786    -7.002571    93.644114  0.030246807   0.03176284            5 
  259000    1.2044408   -6.9571974    93.546636   0.03009866  0.031740567            2 
  260000    1.2016047   -6.9838975    94.098309  0.030159714  0.031718622            2 
  261000    1.2302656   -6.9200151    94.650065  0.030220327  0.031697049            1 
  262000    1.1985073   -7.0388099    94.570235  0.030079591   0.03167569            1 
  263000    1.2064066   -7.0295452    94.806006  0.030039926   0.03165418            1 
  264000    1.1870515   -6.9977493    95.220212  0.030056885  0.031632235            2 
  265000     1.196638   -7.0328881    95.633244  0.030073347  0.031611619            2 
  266000    1.2224139   -6.9801471    96.187291  0.030133863  0.031591166            2 
  267000     1.198776    -7.027398    96.168742  0.030015213  0.031570684            2 
  268000    1.2149056   -7.0063573    96.855067  0.030116625  0.031549362            2 
  269000    1.1980475   -7.0254889    96.747066   0.02997121  0.031530841            2 
  270000    1.2093735   -6.9929262    97.617578  0.030128882  0.031513192            2 
  271000    1.1959407   -7.0130519    97.890759  0.030101709  0.031495835            2 
  272000    1.1711264   -6.9982852    98.399349  0.030146859   0.03147839            2 
  273000    1.1927089   -7.0059798    98.895909  0.030188006  0.031462288            4 
  274000    1.1861473   -6.9815934    99.208076  0.030172773  0.031448452            3 
  275000    1.2014098    -6.996194    99.833802  0.030252667  0.031433719            1 
  276000    1.2558797    -6.989224    99.998964  0.030192924  0.031419667            3 
  277000    1.2094596   -7.0012325    100.42417  0.030211843  0.031405832            3 
  278000    1.2241546   -7.0141855    100.56299  0.030144781  0.031390979            3 
  279000     1.202332   -6.9851638    101.40157  0.030287208  0.031378493            1 
  280000    1.2106079   -6.9997242    101.75623  0.030284593  0.031365395            3 
  281000    1.2051205   -7.0304249     101.2444  0.030025029  0.031352653            8 
  282000    1.2121854   -6.9880558    102.03455  0.030152053   0.03133892            3 
  283000    1.2299957   -7.0045081    102.46809  0.030173173  0.031326287            5 
  284000    1.2093787   -6.9697309    102.87477  0.030186258  0.031313413            3 
  285000    1.2114463   -6.9754166    102.97421  0.030109418  0.031300839            1 
  286000    1.2225627   -7.0548281    102.84785  0.029967323  0.031285592            2 
  287000    1.2230881   -7.0173976    103.82234  0.030145859  0.031267986            2 
  288000    1.2174824   -6.9534737     103.6556  0.029992939   0.03125158            1 
  289000    1.1905223   -7.0377541    103.94643   0.02997302  0.031235882            3 
  290000    1.2217947   -6.9906274    104.24916  0.029956655  0.031218422            2 
  291000    1.2166182   -6.9989742     104.7029  0.029983647  0.031200276            4 
  292000    1.2069145   -6.9885628    105.04822  0.029979514  0.031183002            2 
  293000    1.1788429   -6.9936236    105.28708  0.029945132  0.031166726            2 
  294000    1.2170941   -7.0104167    105.53892   0.02991466  0.031152529            3 
  295000    1.2102734   -7.0264817    105.90099  0.029915535  0.031136156            2 
  296000    1.2219726   -6.9824505    106.55774  0.029999364  0.031119837            1 
  297000    1.1864696   -7.0376185    106.17412  0.029790718  0.031103242            5 
  298000    1.2273571   -6.9951072    106.42599  0.029761182  0.031087153            1 
  299000    1.1945582   -6.9947311    106.98514  0.029817485  0.031069988            2 
  300000    1.1981775   -7.0135436    107.13696  0.029760268  0.031052557            3 
  301000    1.2297372   -6.9845958    107.87115  0.029864661  0.031035438            3 
  302000    1.2110843   -6.9395497    108.50025  0.029939363  0.031019769            2 
  303000    1.2308148   -7.0194231    108.60942  0.029870576  0.031004233            2 
  304000    1.2116013   -7.0310707    108.68334  0.029792583  0.030988335            4 
  305000    1.1981898   -6.9829177    109.34123  0.029874653  0.030972469            3 
  306000    1.2077302   -7.0065901    109.59714  0.029846716  0.030956466            3 
  307000    1.2031259   -7.0508886    110.00855   0.02986117  0.030940352            3 
  308000     1.191652   -6.9899043    110.27906  0.029837408  0.030925209            2 
  309000    1.1959384   -7.0017644    110.51892  0.029805535  0.030910758            2 
  310000    1.2078588   -6.9725057    110.55469  0.029719004  0.030896428            2 
  311000     1.207411   -7.0441884    110.65117  0.029649294  0.030879237            3 
  312000    1.1837791   -7.0275299    111.27436  0.029720716  0.030862035            3 
  313000    1.1927273   -7.0461545    111.49463  0.029684407  0.030846418            3 
  314000    1.1942312   -7.0556758    111.95473  0.029711978  0.030831646            1 
  315000    1.2147338   -6.9746124    113.02707  0.029901341  0.030817509            2 
  316000    1.1859094   -7.0205162    112.50975  0.029670294  0.030802428            1 
  317000    1.2058509   -7.0023536    112.99291  0.029703708  0.030787151            2 
  318000    1.1799998   -7.0206649    113.20005  0.029664583  0.030772268            3 
  319000    1.2183553    -6.983178    113.85677  0.029743148  0.030757346            2 
  320000    1.1956431   -7.0141583    113.93046  0.029669391  0.030741176            1 
  321000    1.2065635   -7.0232359    114.32546  0.029679508  0.030724243            1 
  322000    1.1912965   -7.0522625    114.72464  0.029690641  0.030709324            2 
  323000    1.2130134   -7.0200587    114.79298  0.029616353  0.030693983            4 
  324000    1.2052327   -6.9996591    114.96269  0.029568594  0.030678072            4 
  325000    1.2085288   -7.0504782    115.30623  0.029565701  0.030661702            3 
  326000    1.2000057   -6.9963087    115.93631  0.029636072  0.030644617            4 
  327000      1.23417    -7.017278    116.13527  0.029596145  0.030628477            4 
  328000    1.2161027   -7.0529993    116.22238  0.029528043  0.030612605            3 
  329000     1.173448   -7.0184782    116.85223   0.02959783  0.030596568            2 
  330000    1.2030173   -7.0858631    116.85023  0.029507634  0.030580762            3 
  331000    1.2098553    -6.994064     117.9697  0.029700328  0.030565488            2 
  332000    1.2110776   -7.0043893    117.43308  0.029476174  0.030550515            3 
  333000    1.1870901   -7.0613893    117.62533  0.029435768  0.030534229            1 
  334000    1.1821873   -7.0218015    118.31784  0.029520418  0.030518034            2 
  335000    1.1924359   -7.0021459    118.85546  0.029566035  0.030503449            2 
  336000    1.1988908   -6.9813553    119.38129  0.029608454  0.030488738            4 
  337000    1.2042374    -7.034512    119.19904  0.029475529  0.030474112            4 
  338000     1.208112   -6.9986514    119.71133  0.029514627  0.030459887            1 
  339000    1.1912015   -6.9932958    120.59351  0.029644422  0.030446163            1 
  340000     1.224362   -7.0276723    120.70253  0.029583954  0.030433071            4 
  341000    1.1820663   -7.0058426    121.22885  0.029625818  0.030419707            3 
  342000    1.2045088   -7.0729854    121.32948  0.029563712  0.030406515            3 
  343000    1.2122542   -7.0675983    121.68654  0.029564271  0.030393511            3 
  344000    1.1745041   -6.9905596     122.2342  0.029610999  0.030381955            2 
  345000    1.2018604   -7.0354738     122.2264  0.029523286  0.030370548            2 
  346000    1.1735308   -7.0392153    122.30057  0.029455822  0.030358513            2 
  347000    1.1955336   -7.0612679     122.6065  0.029444404  0.030345604            2 
  348000    1.1801101    -7.060619    122.72978  0.029389316  0.030331145            1 
  349000     1.183452   -7.0264203    123.17069  0.029410384  0.030316607            3 
  350000     1.187788   -7.0340668    123.54881  0.029416383  0.030302072            2 
  351000     1.173441   -7.0489885    123.77543  0.029386379  0.030288103            3 
  352000    1.1792699   -7.0472677    123.82957  0.029315714  0.030274264            2 
  353000    1.1901243   -7.0335612    124.31505  0.029347273  0.030260355            4 
  354000    1.1908413   -7.0274226    124.56652  0.029323568  0.030245005            2 
  355000    1.1717957    -7.017365    124.82151  0.029300823  0.030230017            3 
  356000    1.2237414   -6.9861631    125.08355  0.029279858  0.030214814            2 
  357000    1.1894381   -7.0283423    125.87186  0.029381854  0.030200641            2 
  358000     1.198405   -7.0017074    125.97928  0.029324786  0.030185761            2 
  359000    1.2080473   -7.0209356    126.71921  0.029414858  0.030171953            3 
  360000    1.1925495   -7.0669969    126.05047  0.029178349  0.030158773            3 
  361000    1.2044251   -7.0424767    127.26922  0.029378861  0.030144868            5 
  362000     1.209092   -7.0432133    127.64131  0.029383359   0.03013216            4 
  363000    1.2064154   -7.0113119    127.98437  0.029381168  0.030120298            3 
  364000    1.2008299   -7.0351847    127.86434  0.029272971  0.030107842            2 
  365000    1.2043184   -7.0194296    128.24075  0.029278709  0.030094304            6 
  366000    1.1650278   -7.0368351    128.61777  0.029284555  0.030079583            1 
  367000    1.2118398   -7.0525648    128.47857  0.029173153  0.030065598            2 
  368000    1.1941735   -7.0414811    128.40788  0.029077872  0.030049195            3 
  369000    1.1880694   -7.0368471    128.90338  0.029110972  0.030033065            2 
  370000    1.2097625   -7.0254164    129.14834  0.029087464  0.030017694            4 
  371000    1.1736423   -7.0302773    129.34588  0.029053431  0.030002692            2 
  372000    1.2285279   -7.0464038    129.84122  0.029086295  0.029988046            2 
  373000    1.1881856   -7.0394888    130.46055  0.029146683  0.029973532            2 
  374000    1.2104899   -6.9744019    131.12867  0.029217618  0.029958948            3 
  375000    1.1915003   -7.0178492    131.14372  0.029143048  0.029945263            2 
  376000    1.1846364   -7.0271687    132.06496  0.029269716  0.029932155            4 
  377000    1.1944027   -7.0085243    131.86369  0.029147589  0.029919565            2 
  378000    1.1683343   -7.0483051    132.42968  0.029195256  0.029906183            3 
  379000    1.1779204   -7.0730754    132.05612  0.029036087  0.029893375            1 
  380000     1.198754   -7.0376463    132.65959  0.029092015  0.029879273            4 
  381000    1.1967197   -7.0181691    133.60799  0.029223095  0.029867091            1 
  382000    1.1725453   -7.0545034    133.19906  0.029057387  0.029855688            5 
  383000    1.1855688   -6.9836582    134.67128  0.029301845  0.029844781            2 
  384000    1.1719976   -7.0597673    134.49751  0.029187827  0.029833012            3 
  385000    1.2046982   -7.0131995    135.35391  0.029297384  0.029822639            3 
  386000    1.1767234   -7.0225588    135.36827  0.029224582  0.029811493            2 
  387000    1.2042825   -7.0100234    135.94704  0.029273696  0.029801238            2 
  388000    1.1603222   -7.0140685    136.29383   0.02927273    0.0297907            3 
  389000    1.1564984   -7.0524951     136.2156   0.02918072  0.029779305            2 
  390000    1.1853555     -7.07336    135.88882  0.029036072  0.029768401            3 
  391000    1.1776339   -7.0199427    137.73791  0.029355906  0.029757566            3 
  392000    1.1873507   -7.0381522    137.48573  0.029227409  0.029748085            2 
  393000    1.1899765   -7.0656448    137.65757  0.029189476  0.029739089            2 
  394000    1.1863816   -7.0617332    137.94523  0.029176234  0.029730394            2 
  395000    1.1661804   -7.0507546     138.5384  0.029227511  0.029722174            4 
  396000    1.2204928   -7.0718153    138.80345  0.029209481   0.02971337            1 
  397000    1.1944141   -7.0562921    139.35285  0.029251228  0.029705384            2 
  398000    1.2059264   -7.0377088    139.96881  0.029306702  0.029697976            3 
  399000    1.2134899   -7.0434832    140.20447   0.02928247  0.029689784            4 
  400000    1.1903873   -7.0413234     140.4616  0.029262832  0.029681778            3 
  401000    1.2079554   -7.0624442    140.77097   0.02925415  0.029674093            2 
  402000    1.2055202   -7.0641816    141.31788  0.029294751  0.029666443            2 
  403000    1.2119023   -7.0208616    141.43688  0.029246666  0.029659172            3 
  404000    1.2038695   -7.0546958    141.49337  0.029185927  0.029651303            4 
  405000    1.2114602    -7.066833    141.89454  0.029196407  0.029642646            2 
  406000    1.2016543   -7.0610924     142.2938  0.029206444  0.029634593            3 
  407000    1.2096889   -7.0422105    142.60548  0.029198501  0.029626845            2 
  408000     1.190584   -7.0349996    143.48139  0.029305839  0.029618985            1 
  409000    1.1912075   -7.0603764    142.90286  0.029116312  0.029610785            1 
  410000    1.1819001   -7.0410513     144.0049  0.029269288  0.029602553            2 
  411000    1.1708526   -7.0503171    144.32924  0.029263836  0.029594349            3 
  412000    1.1826563   -7.0591576    144.55388  0.029238245  0.029586936            1 
  413000     1.195755   -7.0484898    144.65242  0.029187333  0.029579825            2 
  414000    1.1610033   -7.0569527    144.81455  0.029149466  0.029571682            2 
  415000    1.1905423   -7.0599487    145.34045  0.029184828   0.02956319            4 
  416000    1.1936486   -7.0790381    145.70023  0.029186745  0.029555022            1 
  417000    1.1757798   -7.0412949    146.27487  0.029231588  0.029546614            4 
  418000     1.196066   -7.0502586    145.90461  0.029087841  0.029538602            1 
  419000    1.1768231   -7.0028348    147.38275    0.0293124  0.029531627            4 
  420000    1.1670187   -7.0393808    147.11401  0.029189288  0.029524582            3 
  421000    1.1974245    -7.062377    147.29258    0.0291553  0.029516994            6 
  422000    1.1946942   -7.0494799    147.66675    0.0291601  0.029508834            4 
  423000    1.2003499   -7.0564615    148.16978  0.029190265  0.029501889            2 
  424000    1.1627163   -7.0710826    148.48714  0.029183793  0.029495405            4 
  425000    1.1625275   -7.0308936    149.15095  0.029245284    0.0294887            2 
  426000    1.1858275   -7.0018434    149.93793  0.029330581  0.029482286            1 
  427000    1.1602035   -7.0643291    149.21952  0.029121686  0.029474989            3 
  428000    1.1615691   -7.0207469    149.98612  0.029202905  0.029468098            3 
  429000    1.1935334   -7.0938621    150.02738  0.029142848  0.029460936            2 
  430000    1.1667289   -7.0195844    150.50233  0.029167119    0.0294547            2 
  431000    1.1667666   -7.0866739    151.40855  0.029274662  0.029448483            2 
  432000    1.1752439   -7.0554283     151.4686   0.02921848  0.029442531            2 
  433000    1.1683014   -7.1053235    151.43458  0.029144453  0.029437187            2 
  434000    1.1778159   -7.0627811    152.11373  0.029207705  0.029431943            3 
  435000     1.185612   -7.0574688    152.42605  0.029200393  0.029425826            2 
  436000    1.1611924   -7.1131454    152.43974  0.029136036    0.0294194            4 
  437000    1.1846689   -7.0624815    152.47009  0.029075151  0.029413251            3 
  438000    1.1702973   -7.0478176    153.48337  0.029201555  0.029407267            3 
  439000    1.1919834   -7.0699419    153.96546  0.029226548  0.029401315            1 
  440000     1.167694   -7.1141266    154.00148  0.029166946  0.029395813            3 
  441000    1.1865403   -7.1117586    154.44843  0.029185266  0.029390921            3 
  442000    1.1835164   -7.0780333    155.18684  0.029258454  0.029386559            5 
  443000    1.2031598   -7.0568648    155.23907  0.029202234  0.029381823            1 
  444000    1.1429174   -7.0545665    156.66196  0.029403521  0.029378085            3 
  445000    1.1800238   -7.0491997    156.88977  0.029380107  0.029374838            1 
  446000    1.1506035   -7.0560471    157.55012  0.029437616  0.029372082            2 
  447000    1.1762455   -7.0993523    157.41853  0.029347227    0.0293699            2 
  448000    1.1579143   -7.1228048    156.86351  0.029178481  0.029366499            3 
  449000    1.1748427   -7.0964518    157.67779  0.029264623  0.029362641            1 
  450000    1.1811704   -7.0411702    158.55852  0.029362689  0.029359196            3 
  451000    1.1932289   -7.0871736    158.32262  0.029253995  0.029355354            3 
  452000    1.1784983   -7.0569848     158.7955  0.029276457  0.029351914            3 
  453000    1.2041566   -7.0389023    159.45725  0.029333563  0.029349232            4 
  454000    1.1829743   -7.0637791    159.93101  0.029355912   0.02934639            1 
  455000     1.183286   -7.0451286    160.74628  0.029440711  0.029344486            3 
  456000    1.2122181   -7.0815778    161.10846  0.029442336  0.029342988            3 
  457000    1.1680842   -7.0136485    161.54939  0.029458313  0.029342059            1 
  458000    1.1878583   -7.0811858    161.29662  0.029348002  0.029340513            1 
  459000    1.1916673     -7.01649    162.21841  0.029451418  0.029338883            4 
  460000    1.1727213    -7.096207    161.74185  0.029301061  0.029337179            1 
  461000    1.1823624   -7.0780326    162.40482  0.029357343  0.029335409            4 
  462000      1.18807   -7.0587259    163.40376  0.029473982  0.029333932            4 
  463000    1.1937011   -7.0925477    163.08825  0.029353536   0.02933145            4 
  464000    1.1596171   -7.0871014    163.90089  0.029436222  0.029329279            2 
  465000    1.1527571   -7.0812908    164.02128  0.029394494   0.02932673            3 
  466000    1.1605835   -7.0849256     164.5921  0.029433494  0.029323994            3 
  467000    1.1833133   -7.1098121    164.55591   0.02936401   0.02932162            2 
  468000    1.2182904    -7.081252     165.1073  0.029399449  0.029319245            2 
  469000    1.2075861    -7.083643    165.91795  0.029480802  0.029317938            3 
  470000    1.1834478   -7.0752493    166.02509  0.029437073  0.029316989            7 
  471000    1.1736365   -7.1147592    166.12676  0.029392562  0.029315926            1 
  472000    1.1973818   -7.1011226    165.68848  0.029252909  0.029314968            2 
  473000    1.1747137   -7.0402605    167.15426  0.029449306  0.029313553            3 
  474000    1.2007194    -7.035138    166.89628  0.029341822    0.0293121            3 
  475000    1.1669252   -7.0323048    167.72232  0.029424969  0.029310697            2 
  476000     1.152076   -7.0937638    167.40241  0.029307145  0.029310074            2 
  477000    1.1645338   -7.0466932    168.32485  0.029406858  0.029308826            4 
  478000    1.1417335   -7.0857878    169.13891  0.029487257  0.029307347            1 
  479000    1.1713658    -7.105131    168.24973  0.029271003  0.029304872            5 
  480000    1.1583316   -7.1396282    168.17651   0.02919731  0.029302274            4 
  481000     1.184968   -7.0989564    169.00345  0.029279876  0.029299187            4 
  482000    1.1505894   -7.0356538    169.75555  0.029349162  0.029296844            1 
  483000    1.1708759   -7.0809742    169.68858  0.029276842  0.029293652            4 
  484000    1.1731861   -7.1133066    169.65635  0.029210803  0.029290237            2 
  485000    1.1607337   -7.0870787    170.41534  0.029280986  0.029286764            1 
  486000    1.1773425    -7.089559    170.39297  0.029216902  0.029283854            2 
  487000    1.1696453   -7.0684829    171.92092  0.029418364  0.029281505            5 
  488000    1.1803533   -7.0941248    171.61661  0.029306116  0.029278787            2 
  489000    1.1727214    -7.098312    172.56058  0.029407052  0.029277365            2 
  490000    1.1587207   -7.0929627    172.48085  0.029333479  0.029275754            2 
  491000    1.1995427    -7.084941    172.24421  0.029233573  0.029273547            2 
  492000    1.1829136   -7.1232399    172.83515  0.029274246  0.029271166            4 
  493000    1.1830888   -7.0858729    173.04295  0.029249992  0.029268643            2 
  494000    1.1682873   -7.0665267    173.88054  0.029332076  0.029266338            1 
  495000    1.1608314   -7.0614891    174.30145  0.029343678  0.029264621            2 
  496000    1.1737674   -7.1256672     174.2097  0.029269103  0.029262373            2 
  497000    1.1471223   -7.1199616    174.52275  0.029262702  0.029259924            8 
  498000    1.1600694   -7.1242352    175.39586  0.029350044   0.02925779            3 
  499000    1.1614482   -7.1080419    175.53522  0.029314499  0.029255829            3 
  500000    1.1511514   -7.0721929    176.00199  0.029333665  0.029253944            3 
  501000    1.1864847   -7.1017492    175.54691  0.029199419  0.029252127            2 
  502000    1.1714522   -7.1249759    176.55136  0.029307994  0.029250293            6 
  503000    1.1719127   -7.0946865    176.80322  0.029291455  0.029248528            7 
  504000    1.1769413    -7.080918    177.96636  0.029425655  0.029247116            6 
  505000    1.1892361   -7.1106957    177.97944  0.029369544  0.029245159            2 
  506000    1.2040547   -7.0792277    176.90625  0.029134758  0.029242622            5 
  507000    1.1646724   -7.0999018     177.9529  0.029249326  0.029240052            4 
  508000    1.1708504   -7.1076045    178.01542  0.029202005  0.029237196            3 
  509000    1.1618191   -7.0647953    179.05957  0.029315581    0.0292353            4 
  510000    1.2011465   -7.0893528    178.62576  0.029187216  0.029232971            3 
  511000    1.1595881   -7.1166618    178.62649  0.029130217  0.029230892            5 
  512000    1.1444812   -7.0878803    179.87621  0.029276728  0.029227932            2 
  513000    1.1837133   -7.1136415    179.77671  0.029203495  0.029225474            5 
  514000    1.1667189   -7.0159217    180.91965  0.029331979  0.029223144            7 
  515000    1.1716168   -7.0766626    181.04055  0.029294587  0.029221047            6 
  516000    1.1818072   -7.0536882    181.33739  0.029285755  0.029217954            2 
  517000    1.1519016   -7.0375849    181.87533  0.029315817  0.029215745            4 
  518000    1.1687607   -7.1048043    181.19071  0.029149084    0.0292135            5 
  519000    1.1595193   -7.1017705    181.86772  0.029201624  0.029211352            2 
  520000    1.1761327   -7.0972928    182.65181  0.029271124  0.029208475            3 
  521000    1.1472602   -7.0805425    183.02428  0.029274517  0.029206337            4 
  522000    1.1494039   -7.0771686    182.95371   0.02920717  0.029204795            2 
  523000    1.1470951   -7.0774473    183.78301  0.029283463  0.029202261            3 
  524000    1.1749578   -7.1392298    183.69317  0.029213291  0.029199998            2 
  525000    1.1708107    -7.126994    183.86909  0.029185569  0.029197557            3 
  526000    1.1594342   -7.1568759    183.45245  0.029064077  0.029195077            3 
  527000    1.1826513    -7.152631    183.91094  0.029081426  0.029192123            2 
  528000    1.1765141   -7.0786784    185.58093  0.029289919  0.029189299            3 
  529000    1.1332576   -7.0666682    186.15115  0.029324378  0.029187131            2 
  530000    1.1744247   -7.0745664    186.50672  0.029324956  0.029185287            2 
  531000    1.1885384   -7.1162723    186.14938   0.02921365    0.0291833            2 
  532000    1.1719038   -7.1037805    186.72298  0.029248587  0.029181204            3 
  533000    1.1771182   -7.1052692    186.69832  0.029189855  0.029179399            2 
  534000     1.173307   -7.0740224    187.34045  0.029235402  0.029177844            1 
  535000    1.1630252   -7.0913534    187.55487  0.029214154  0.029175999            2 
  536000    1.1468472   -7.0763466    188.44034  0.029297317  0.029174188            3 
  537000    1.1619489   -7.1142336    188.50832  0.029253309   0.02917299            4 
  538000    1.1676856   -7.1092782    189.21593   0.02930854  0.029172021            7 
  539000    1.1837385   -7.1373635    189.37788  0.029279202  0.029170692            7 
  540000    1.1832058   -7.0909773    189.91709  0.029308193  0.029169052            2 
  541000    1.1819745   -7.1008482    190.42351  0.029332026  0.029167583            4 
  542000    1.1374483   -7.1199687    190.21415  0.029245719  0.029166054            4 
  543000    1.1477769   -7.0798104    190.75194  0.029274392  0.029164178            4 
  544000    1.1560142   -7.0789111    190.43694  0.029172326  0.029162378            1 
  545000    1.1891106   -7.0915493    190.99999  0.029204891  0.029159858            5 
  546000    1.1689814   -7.1353319    191.22117  0.029185161  0.029157755            3 
  547000     1.157618   -7.1279096    191.37413  0.029155108  0.029155367            3 
  548000    1.1564172   -7.1050459    191.98767  0.029195206  0.029152726            3 
  549000    1.1747972   -7.1126429    191.72728  0.029102502  0.029150171            3 
  550000    1.1746941   -7.0973696    192.93485  0.029232554  0.029147902            3 
  551000    1.1357281   -7.1169268    192.59252  0.029127725  0.029145417            2 
  552000    1.1559915   -7.1276046    192.42998  0.029050419  0.029142111            5 
  553000    1.1799373   -7.1062734    193.18898  0.029112264  0.029139137            2 
  554000    1.1866002   -7.1054499    193.21347  0.029063398  0.029135903            2 
  555000    1.1818287   -7.0918961    193.82099  0.029102251  0.029132777            2 
  556000    1.1820895   -7.1002012    194.44426  0.029143324  0.029129357            6 
  557000    1.1530952   -7.1447031    193.79784  0.028994291  0.029125286            3 
  558000    1.1307581   -7.1155687    194.02576  0.028976368  0.029121207            5 
  559000    1.1764604   -7.1401413    194.16881  0.028945857  0.029116907            4 
  560000    1.1793193   -7.1211052    194.65647  0.028966737  0.029113322            3 
  561000    1.1691389   -7.1192165    195.72576  0.029073939  0.029108955            4 
  562000    1.1615549   -7.1401483    195.43261  0.028978738  0.029105065            3 
  563000    1.1767305    -7.132178    195.11136  0.028879716  0.029099995            2 
  564000    1.1698046   -7.1551686    195.31806  0.028859052  0.029095204            2 
  565000    1.1392778   -7.0923562    196.28731   0.02895093  0.029090554            2 
  566000    1.1589868   -7.1445378    195.86442  0.028837517  0.029085747            3 
  567000    1.1690344   -7.0797608    197.25719  0.028991357  0.029081264            3 
  568000    1.1589549   -7.1038366     197.3278  0.028950675  0.029077029            2 
  569000    1.1668567   -7.1085301    198.09783   0.02901257  0.029072886            3 
  570000    1.1905081   -7.0970802     197.6697  0.028899078  0.029068711            1 
  571000    1.1641466   -7.1138477    198.65697  0.028992553  0.029065064            2 
  572000    1.1523882   -7.1529137    198.01721  0.028848662   0.02906101            3 
  573000    1.1536288   -7.1165304    198.75573  0.028905719  0.029056727            3 
  574000    1.1429873   -7.1313813    199.50969  0.028964822    0.0290527            3 
  575000    1.1719753   -7.0957799    199.89508  0.028970301  0.029048958            2 
  576000    1.1668745    -7.133398    199.66329  0.028886471  0.029045269            1 
  577000    1.1641008   -7.1387827    199.78548  0.028854056  0.029041373            5 
  578000    1.1613842   -7.1329156     200.6157  0.028923832  0.029036647            6 
  579000    1.1543611    -7.131019    201.07831  0.028940459  0.029032695            3 
  580000    1.1654621   -7.1783835    200.48003  0.028804601  0.029027783            3 
  581000    1.1623408   -7.1226376    201.08994  0.028842504  0.029022904            3 
  582000    1.1542351   -7.1591425    201.63654  0.028871211  0.029018099            2 
  583000    1.1591059   -7.1064885    202.20442  0.028902861  0.029013937            2 
  584000    1.1776708   -7.1255637    202.81775  0.028940888  0.029010008            2 
  585000    1.1270274   -7.1223337    202.83089  0.028893289  0.029005728            2 
  586000    1.1602171   -7.1090992    203.49092  0.028937845  0.029002184            1 
  587000    1.1412661   -7.1197938    203.44632  0.028882214  0.028997933            3 
  588000    1.1316458   -7.1159743    203.79063  0.028881891  0.028993638            3 
  589000    1.1409345   -7.1784493    203.44299  0.028783672  0.028989687            2 
  590000    1.1766434   -7.1571001    203.68961  0.028769719  0.028985305            2 
  591000    1.1301756   -7.1094626    204.95185   0.02889902  0.028981631            2 
  592000    1.1649843   -7.1098752     205.5572  0.028935417  0.028977986            3 
  593000    1.1376755   -7.0951321    206.00526  0.028949587   0.02897447            4 
  594000    1.1364604   -7.1726226    205.11109  0.028775405  0.028970361            4 
  595000    1.1775863   -7.1261776     205.8823  0.028835057  0.028966446            2 
  596000    1.1465641   -7.1233286    206.46704  0.028868434  0.028962173            2 
  597000    1.1538111   -7.1892728    206.23362  0.028787496   0.02895814            3 
  598000    1.1423175   -7.1372109    206.73795  0.028809637  0.028953645            2 
  599000    1.1447504   -7.1235254    207.21322  0.028827659  0.028949575            2 
  600000    1.1531349    -7.110003    208.28066  0.028927869  0.028946146            2 
  601000    1.1297518   -7.1276684    208.64726  0.028930569  0.028942619            3 
  602000    1.1375799   -7.1364672    208.61254  0.028877705   0.02893924            4 
  603000    1.1476098   -7.1428427    208.39729  0.028800068  0.028935811            3 
  604000    1.1379012   -7.1751886    208.55917  0.028774719  0.028931689            2 
  605000    1.1237644   -7.1389798    209.24069  0.028821032  0.028928114            4 
  606000    1.1528975   -7.1274681    209.97448  0.028874378  0.028924526            3 
  607000    1.1710259   -7.1574416    210.37002  0.028881113  0.028920837            1 
  608000    1.1629343   -7.0878764    210.87841   0.02890329  0.028917322            3 
  609000    1.1702148   -7.1355619    210.95986  0.028866975  0.028913584            1 
  610000    1.1466394   -7.1402571    210.71043  0.028785578  0.028910106            2 
  611000    1.1279676   -7.1083131    211.36162   0.02882728  0.028906662            4 
  612000    1.1640568   -7.0883014    212.18356  0.028892097  0.028902937            4 
  613000    1.1620542   -7.1388935    212.51594   0.02889015  0.028899525            2 
  614000     1.151776   -7.1283301    211.88746  0.028757799  0.028895655            3 
  615000    1.1511479    -7.137934    213.09272  0.028874352  0.028891934            3 
  616000    1.1644697   -7.1215558    213.34444  0.028861532  0.028888763            1 
  617000    1.1585943     -7.15591    213.56764  0.028844901  0.028884921            2 
  618000       1.1531   -7.1649618    213.37361  0.028772062  0.028881079            8 
  619000    1.1573394   -7.1433906    213.80673   0.02878389  0.028877274            5 
  620000     1.139813   -7.1402533    213.76245  0.028731512  0.028873137            2 
  621000    1.1338359   -7.1370684     214.5525  0.028791264  0.028868715            2 
  622000     1.167287   -7.1577124    214.87687  0.028788433  0.028864703            1 
  623000    1.1413748   -7.1534937     215.6598  0.028846951  0.028860924            1 
  624000    1.1550012   -7.1641728    215.44391  0.028771889  0.028856962            4 
  625000    1.1345866   -7.1278394    216.00978  0.028801304  0.028853241            4 
  626000    1.1554708   -7.1411107     215.8029  0.028727756  0.028848722            1 
  627000    1.1544649   -7.1022593    216.96952  0.028836991  0.028845127            2 
  628000     1.173508   -7.1407353    216.70245  0.028755633  0.028841652            2 
  629000     1.155277   -7.1419175    216.21589  0.028645455  0.028837911            1 
  630000    1.1603691   -7.0726099    218.15638  0.028856664   0.02883414            3 
  631000    1.1308913   -7.1489687    217.15576  0.028678784  0.028830127            2 
  632000    1.1562064   -7.1172385    217.86206  0.028726537   0.02882572            4 
  633000     1.158329   -7.1564313    217.66391  0.028655069  0.028821203            2 
  634000    1.1642345   -7.1470709    217.84199   0.02863328  0.028817157            4 
  635000    1.1220506   -7.1550373    219.63475  0.028823458  0.028813265            2 
  636000    1.1569531   -7.2008821    218.27931  0.028600539  0.028808636            3 
  637000    1.1437624   -7.1578215    219.15053  0.028669614  0.028804573            1 
  638000    1.1400235   -7.1424268    220.53638  0.028805692  0.028800456            3 
  639000    1.1386081   -7.0881643    220.66171  0.028776958  0.028796454            2 
  640000    1.1300692   -7.1171785    221.43857  0.028833147  0.028792758            2 
  641000    1.1264916    -7.201724    220.40353  0.028653605   0.02878889            1 
  642000    1.1710365   -7.1175748    221.57255  0.028760715  0.028784237            3 
  643000    1.1527769   -7.1662427    220.84741  0.028622007  0.028780349            4 
  644000    1.1263107   -7.1273563    221.57601  0.028671845    0.0287764            3 
  645000    1.1393305   -7.1191775     222.1028  0.028695452  0.028772097            7 
  646000    1.1543331   -7.1588906    222.26362  0.028671777  0.028768717            9 
  647000    1.1655496   -7.1525477    222.97382  0.028718936    0.0287652            2 
  648000    1.1536239   -7.1551786    222.77137  0.028648582  0.028761381            2 
  649000    1.1620385   -7.1445626    223.75082  0.028730203  0.028757429            2 
  650000    1.1576142   -7.1519419    223.57851  0.028663912  0.028753562            5 
  651000     1.156069   -7.1543868    223.81884  0.028650645  0.028750368            3 
  652000    1.1350641   -7.1436749    225.07783  0.028767616  0.028747077            2 
  653000    1.1537933   -7.1657797    224.26975  0.028620438  0.028743759            3 
  654000      1.14425   -7.1955557    225.00606  0.028670497  0.028740053            2 
  655000    1.1386987    -7.136272     224.9843  0.028623957  0.028736408            2 
  656000    1.1536022   -7.1619981    225.86775  0.028692549  0.028733082            2 
  657000    1.1430526   -7.1466731    225.82328  0.028643236  0.028729555            5 
  658000    1.1613186   -7.1535062    226.46519  0.028681001  0.028726235            5 
  659000    1.1383688   -7.1752731    226.29085  0.028615433  0.028722685            3 
  660000    1.1383633    -7.139526    227.32342  0.028702452  0.028719561            1 
  661000    1.1571697   -7.1511839    227.90388  0.028732209   0.02871671            4 
  662000    1.1463305   -7.1660276    228.60287  0.028776797   0.02871399            3 
  663000    1.1354975   -7.1097468    229.04999  0.028789592  0.028711106            4 
  664000    1.1461125   -7.1760589    227.76703  0.028585219  0.028707888            6 
  665000    1.1451535   -7.1318304     229.6149  0.028773797   0.02870486            6 
  666000    1.2031041   -7.1721281    228.99361  0.028652854  0.028701745            5 
  667000    1.1633226   -7.2266913    228.74467  0.028578795  0.028698377            3 
  668000    1.1640865   -7.1840033    229.39526  0.028617174   0.02869472            4 
  669000    1.1357219   -7.1536706    230.17811  0.028671911  0.028691686            3 
  670000    1.1388386    -7.133646    230.63492  0.028685935  0.028688441            2 
  671000    1.1346896   -7.1505974    230.51756  0.028628609  0.028685038            2 
  672000    1.1356004   -7.1664771     231.4983  0.028707626  0.028681995            5 
  673000    1.1470797   -7.1553352    231.49948  0.028665117  0.028679133            1 
  674000    1.1459924   -7.1810475    231.93968  0.028677013  0.028676474            3 
  675000    1.1564826   -7.1593798    232.70765   0.02872934    0.0286731            3 
  676000    1.1790123   -7.1422975    232.31554  0.028638504  0.028669762            2 
  677000    1.1656468   -7.1715355    232.73969  0.028648411  0.028666657            3 
  678000    1.1391113   -7.1313164    233.59045  0.028710724  0.028663733            6 
  679000    1.1225235   -7.1843814    233.57227  0.028666208   0.02866081            8 
  680000    1.1278699   -7.1504853    234.16438  0.028696615  0.028657761            2 
  681000    1.1363871   -7.2093457    233.90561  0.028622811  0.028654875            2 
  682000    1.1470381   -7.1731714    235.24229   0.02874417  0.028652061            2 
  683000    1.1445545   -7.1364432    235.66016   0.02875307  0.028649466            1 
  684000    1.1436865   -7.1336893    235.20224  0.028655243  0.028646266            4 
  685000    1.1324092   -7.1237094    235.86056  0.028693499  0.028643223            1 
  686000    1.1183481   -7.1728873    235.65976  0.028627279  0.028640138            1 
  687000    1.1592874   -7.2019612    235.52255  0.028568966   0.02863696            5 
  688000    1.1066626   -7.1529441    236.74474  0.028675478  0.028633911            2 
  689000    1.1288583   -7.1476495    236.39974  0.028592131  0.028630861            2 
  690000    1.1601371   -7.1424813    236.88754  0.028609607  0.028628139            3 
  691000    1.1412637   -7.2145707    236.76093  0.028552934  0.028625341            3 
  692000     1.152671   -7.1801812    237.28479  0.028574758  0.028621808            6 
  693000    1.1456983   -7.1834437    238.24683   0.02864921  0.028618789            4 
  694000    1.1479075   -7.1244778    239.03581  0.028702667  0.028616141            2 
  695000    1.1252112   -7.1838608    238.55981  0.028604293  0.028613087            1 
  696000     1.161049   -7.1707426    239.29507  0.028651229  0.028610554            2 
  697000    1.1256536   -7.1604687    239.43449  0.028626793  0.028607783            2 
  698000    1.1596945    -7.194457    239.27825  0.028567126  0.028604618            2 
  699000    1.1427289   -7.1575434    239.66621   0.02857251  0.028601537            2 
  700000    1.1482491   -7.1465777    240.47184    0.0286276  0.028598434            2 
  701000    1.1611846   -7.2144741    239.97025  0.028527134  0.028595562            3 
  702000    1.1401004   -7.1509059    241.47961  0.028665671  0.028592597            3 
  703000    1.1427419   -7.1679204    241.22984  0.028595286  0.028589729            2 
  704000    1.1367903   -7.1801205    242.08148  0.028655479  0.028586448            1 
  705000    1.1401977   -7.1421537    242.90397  0.028712053  0.028583793            5 
  706000    1.1573406   -7.1241086    243.20327  0.028706713  0.028581172            2 
  707000    1.1278208   -7.1805042     242.4646  0.028579043  0.028578042            2 
  708000    1.1370176   -7.2182578    242.53704  0.028547204  0.028574653            2 
  709000    1.1449965   -7.1832318    243.07489  0.028570156  0.028571475            3 
  710000    1.1462486   -7.1605221    243.65071  0.028597502  0.028568942            2 
  711000    1.1433834   -7.1924826    243.76968  0.028571223  0.028566565           10 
  712000    1.1339564   -7.1802703    244.02638   0.02856114  0.028564067            4 
  713000     1.152865   -7.1572595    245.10334  0.028646954  0.028561563            8 
  714000     1.145978   -7.1526303    244.67695  0.028557067  0.028558952            1 
  715000    1.1460112   -7.1774855    245.27404  0.028586717   0.02855639            2 
  716000    1.1305865   -7.1949459    245.75561  0.028602841  0.028553848            4 
  717000    1.1356264   -7.1446081    246.62928   0.02866449  0.028551619            2 
  718000    1.1461294   -7.1566799    246.47735  0.028606934  0.028549449            5 
  719000    1.1014097   -7.1572987    246.84842  0.028610156  0.028546578            2 
  720000    1.1246682   -7.1800662    246.97321  0.028584862  0.028543506            2 
  721000    1.1361956   -7.1918416    247.17985    0.0285691  0.028540538            3 
  722000    1.1319197   -7.1835624     246.9617  0.028504351   0.02853735            5 
  723000    1.1419225   -7.1164671    248.74025  0.028669922  0.028534241            2 
  724000    1.1275124   -7.2015223    247.05016  0.028435792  0.028531058            1 
  725000    1.1322192   -7.1945259    247.57378  0.028456757  0.028527491            5 
  726000    1.1471502    -7.225871    247.00031  0.028351734  0.028524002            3 
  727000    1.1353465   -7.1629151     248.3209  0.028464111   0.02852036            4 
  728000    1.1549649   -7.1588694    248.98375  0.028500887  0.028516664            1 
  729000    1.1257373   -7.2148967    247.83709  0.028330714  0.028512382            6 
  730000    1.1225827   -7.1951785    248.78188  0.028399758  0.028508029            5 
  731000    1.1104801   -7.2026826    248.67736  0.028348992  0.028503875            3 
  732000    1.1443691   -7.1993289     249.3162  0.028382992  0.028499857            2 
  733000    1.1153899   -7.1721594    250.46434  0.028474799  0.028495987            6 
  734000    1.1316002   -7.1926995    250.30893  0.028418362   0.02849236            6 
  735000    1.1407608   -7.2197796    250.09984  0.028355991  0.028488366            4 
  736000    1.1361401   -7.1987443    250.62788  0.028377251  0.028484034            3 
  737000    1.1355553   -7.2279846     250.4883  0.028322965  0.028479996            3 
  738000    1.1366321   -7.1331039    251.71881  0.028423533    0.0284761            2 
  739000    1.1226065   -7.2206961    251.17306  0.028323529  0.028472063            3 
  740000    1.1355482   -7.1405317    251.73704  0.028348766  0.028468003            2 
  741000    1.1360098   -7.1772498    251.85567   0.02832385  0.028463745            9 
  742000    1.1462723   -7.1784833    252.29524  0.028335044  0.028459283            3 
  743000    1.1289956   -7.1892798    251.73186  0.028233721  0.028454834            5 
  744000    1.1284861   -7.1628784    253.09638  0.028348609  0.028450309            2 
  745000    1.1389703   -7.1826383    253.94246  0.028405197  0.028445995            7 
  746000      1.11769   -7.1460207    254.52513  0.028432208  0.028441813            4 
  747000    1.1220543   -7.2127631    253.40799  0.028269522  0.028437659            3 
  748000    1.1273205   -7.2094252     254.3983  0.028342056  0.028433482            3 
  749000    1.1324103   -7.2006734    254.59036  0.028325586  0.028429504            6 
  750000    1.1349266    -7.173842     254.4372    0.0282708  0.028425622            2 
  751000    1.1058505   -7.2156502    254.52809  0.028243241  0.028421471            2 
  752000    1.1338879   -7.1728719    255.39681  0.028301952  0.028417338            5 
  753000    1.1321869    -7.185249    255.15353  0.028237442   0.02841333            2 
  754000    1.1267923   -7.1749992    256.41727  0.028339663  0.028409082            3 
  755000    1.1169234   -7.1520017    257.03196  0.028369974  0.028404907            1 
  756000    1.1316439   -7.2023882    256.88542  0.028316294  0.028401155            1 
  757000    1.1546614   -7.1821807    256.77098   0.02826629  0.028397173            2 
  758000    1.1561465   -7.1948789    256.12741  0.028158247  0.028393005            3 
  759000    1.1478204    -7.179918    256.78707  0.028193574  0.028388365            4 
  760000    1.1663515   -7.2071526    256.73786  0.028151081  0.028383597            4 
  761000    1.1440314   -7.2379484    257.08345  0.028151933  0.028378911            2 
  762000    1.1470501    -7.196528    258.06147  0.028221946  0.028374316            4 
  763000    1.1320485    -7.221279    258.56892   0.02824038  0.028369598            2 
  764000    1.1111051   -7.2314744    258.39594  0.028184549  0.028365014            2 
  765000    1.1310152   -7.2047689    258.74128  0.028185325  0.028360585            3 
  766000    1.1112398   -7.1636968     260.1505  0.028301838  0.028356357            1 
  767000    1.1158709   -7.1961911    259.71952  0.028218114  0.028352353            4 
  768000    1.1100467   -7.2071428    259.73167   0.02818269  0.028348212            4 
  769000    1.1013887   -7.2203711     259.6534   0.02813756  0.028343989            2 
  770000    1.1208039   -7.2281251    259.56737  0.028091706  0.028339574            2 
  771000    1.1227192   -7.1968533    261.02118  0.028212406  0.028334899            2 
  772000    1.1261259   -7.1658077     261.0757  0.028181746  0.028330492            2 
  773000    1.1407729   -7.1748851    261.94292   0.02823878  0.028326192            2 
  774000    1.1061754   -7.1430918    262.27383  0.028237923   0.02832196            2 
  775000    1.1404433   -7.2412852    261.73809   0.02814388  0.028317372            2 
  776000    1.1370431   -7.2305892    261.64233  0.028097329  0.028312996            2 
  777000    1.1302598   -7.1885704    262.67323  0.028171732  0.028308619            3 
  778000     1.111171   -7.1734414    262.71245  0.028139723  0.028304294            2 
  779000    1.1295762   -7.2061912    263.43019   0.02818038   0.02829985            2 
  780000    1.1196417   -7.2195172    262.16242  0.028008806  0.028295009            3 
  781000     1.138797   -7.2293218    262.67547  0.028027685  0.028290102            8 
  782000    1.1145244   -7.2044853    262.73824  0.027998533  0.028285241            5 
  783000    1.0971854   -7.2133085    262.97216  0.027987671  0.028279979            3 
  784000    1.1371385   -7.1566569    263.91188  0.028051858   0.02827457            2 
  785000    1.1113606   -7.1891325    264.14431  0.028040797   0.02826939            3 
  786000    1.1111727    -7.180311    264.66981  0.028060837  0.028264012            5 
  787000    1.1032203   -7.1934959    264.68675  0.028026975  0.028258674            4 
  788000    1.1203995   -7.2218438    264.83366  0.028006944  0.028253347            4 
  789000    1.1202856   -7.1801408    265.51218  0.028043112  0.028247788            4 
  790000    1.1123523   -7.1749885    265.94022  0.028052766  0.028242807            7 
  791000    1.1472261   -7.2163415    265.90326  0.028013407  0.028237668            3 
  792000    1.1584762   -7.2218974    266.12915  0.028001804  0.028232666            4 
  793000     1.125139    -7.186907    267.42788  0.028102971  0.028227871            2 
  794000    1.1178044   -7.2366371    267.04414  0.028027303   0.02822304            5 
  795000    1.1228542   -7.2290139     266.7496  0.027961174  0.028217846            3 
  796000    1.1289996   -7.1687748     267.8879  0.028045215  0.028212932            3 
  797000    1.1216653   -7.2161952    267.75427  0.027996055  0.028207899            4 
  798000    1.1001567   -7.2380673     266.9885  0.027881004  0.028202562            3 
  799000    1.1518934   -7.2147992    267.97132  0.027948615  0.028196932            3 
  800000    1.1125212    -7.222075    268.78639  0.027998583  0.028191412            6 
  801000    1.1235261   -7.2219798    267.78178  0.027859111   0.02818572            3 
  802000    1.1372694   -7.2129834    268.57079  0.027906358  0.028180746            3 
  803000    1.1238285    -7.180234    269.73267  0.027992182  0.028175593            2 
  804000     1.111616      -7.2099    270.22113  0.028007994  0.028170418            3 
  805000    1.1189778   -7.2114688    270.23986  0.027975141  0.028165324            2 
  806000    1.1078719   -7.2216577    270.04255  0.027920032  0.028160024            1 
  807000     1.089941   -7.2231868    269.75361  0.027855597  0.028154547            3 
  808000    1.1077433   -7.2108052    270.20385  0.027867559  0.028149164            2 
[...]
 4800000   0.48645099    -9.480158    462.15079 0.0080234512 0.0058614087         3922 
 4801000   0.47575317   -9.4788534    462.19137 0.0080224844 0.0058591555         3953 
 4802000    0.4776735   -9.4981789      462.622 0.0080282868  0.005856903         3940 
 4803000   0.48428878   -9.4926123    462.94419 0.0080322054 0.0058546533         3934 
 4804000    0.4875828   -9.4788289    462.56079 0.0080238828 0.0058524035         3928 
 4805000   0.48304949   -9.4813477    462.54429 0.0080219266  0.005850155         3933 
 4806000   0.48850958   -9.4864295     462.8325 0.0080252548 0.0058479085         3958 
 4807000   0.47557766   -9.4855719    462.33708 0.0080149968 0.0058456631         3941 
 4808000   0.48044091   -9.4805561     462.7843 0.0080210812 0.0058434183         3943 
 4809000   0.49193474   -9.4886906    461.97232 0.0080053428 0.0058411744         3956 
 4810000   0.47543096   -9.4957931    462.50175 0.0080128508 0.0058389336         3939 
 4811000   0.48612366   -9.4980761    463.59845 0.0080301817 0.0058366924         3929 
 4812000   0.48227696   -9.4866056    462.96691 0.0080175761 0.0058344525         3945 
 4813000   0.46809232   -9.4833815    462.62288 0.0080099536 0.0058322129         3944 
 4814000   0.48309504    -9.476573    463.21821 0.0080185952 0.0058299759         3947 
 4815000   0.48983093   -9.4750315    462.51534 0.0080047654   0.00582774         3925 
 4816000    0.4867979   -9.4963931    461.75469 0.0079899414 0.0058255036         3937 
 4817000   0.47438181   -9.4846772    462.88773  0.008007884 0.0058232699         3936 
 4818000   0.48339093   -9.4883556    462.70314 0.0080030293 0.0058210376         3949 
 4819000   0.48364073   -9.4896153    463.23288 0.0080105292 0.0058188057         3934 
 4820000   0.48521596   -9.5034444    462.97492 0.0080044073  0.005816574         3956 
 4821000   0.48347821   -9.4877765    463.21871  0.008006961 0.0058143461         3948 
 4822000   0.48560071   -9.4876317    462.77692 0.0079976656 0.0058121175         3933 
 4823000   0.48580108   -9.4928287    462.30794 0.0079879041 0.0058098906         3931 
 4824000   0.47909715    -9.487427    462.13423 0.0079832475 0.0058076649         3938 
 4825000   0.47292214   -9.5005468    462.14053 0.0079817018 0.0058054392         3948 
 4826000   0.47686944   -9.4881311    462.44945 0.0079853822  0.005803214         3933 
 4827000    0.4765944   -9.5104052    462.27117   0.00798065  0.005800991         3942 
 4828000   0.48125977   -9.4892562    462.31167  0.007979696 0.0057987686         3936 
 4829000   0.48152427   -9.5003032    462.70629 0.0079848535 0.0057965486         3928 
 4830000   0.47977449    -9.481309    462.26901 0.0079756558 0.0057943296         3930 
 4831000   0.48233214   -9.5054593    462.60398  0.007979783 0.0057921118         3934 
 4832000   0.48039765   -9.4858072    462.61684 0.0079783533 0.0057898952         3921 
 4833000   0.48509506   -9.4844621    462.24281 0.0079702533 0.0057876812         3941 
 4834000   0.48280036   -9.5013987    462.36964 0.0079707909 0.0057854675         3928 
 4835000   0.47204142   -9.4930192    461.95424 0.0079619828  0.005783255         3940 
 4836000   0.47487998    -9.490553     462.3855 0.0079677678 0.0057810423         3936 
 4837000   0.47467402     -9.49237    462.76512 0.0079726608 0.0057788327         3935 
 4838000   0.49026779   -9.4975659    462.42487 0.0079651521  0.005776622         3942 
 4839000   0.47379234   -9.5158933    462.72692 0.0079687077 0.0057744148         3936 
 4840000   0.47885456   -9.5024756    462.19372 0.0079578809 0.0057722067         3931 
 4841000   0.47445265   -9.5220959    462.91319  0.007968622 0.0057700007         3934 
 4842000     0.480602   -9.4871872    462.63537 0.0079621948 0.0057677956         3938 
 4843000   0.47985755   -9.5079636    463.19439 0.0079701699 0.0057655918         3935 
 4844000   0.46956217   -9.5034798    462.65115 0.0079591788 0.0057633887         3947 
 4845000   0.46916375   -9.4991182     462.3553 0.0079524476 0.0057611876         3939 
 4846000   0.48128225   -9.4939273    462.36566 0.0079509846 0.0057589871         3919 
 4847000   0.47255317   -9.4916893    462.67386 0.0079546431 0.0057567862         3926 
 4848000   0.46303467    -9.501514    461.71907 0.0079365901 0.0057545883         3957 
 4849000   0.48677959   -9.4964495    463.12652 0.0079591414 0.0057523915         3943 
 4850000   0.47444638    -9.495317    462.63613 0.0079490743 0.0057501956         3926 
 4851000   0.47068866   -9.4982199    462.27418 0.0079412179 0.0057479997         3936 
 4852000    0.4860696   -9.4878733    461.80414 0.0079315082 0.0057458049         3935 
 4853000   0.47705281   -9.4936785    462.15551 0.0079359075 0.0057436124         3957 
 4854000   0.46903714   -9.4937712    462.73629 0.0079442434 0.0057414216         3944 
 4855000     0.488044   -9.4941111    461.86743 0.0079276936 0.0057392312         3952 
 4856000   0.47020861   -9.5036729    462.74517 0.0079411239 0.0057370413         3942 
 4857000   0.47962687   -9.5048748     462.5288 0.0079357765 0.0057348531         3948 
 4858000   0.47773148   -9.5103839    462.00191 0.0079251048 0.0057326662         3941 
 4859000   0.47076523   -9.4981481     462.5815 0.0079334139 0.0057304801         3940 
 4860000   0.46658944   -9.4996536    462.69521 0.0079337313 0.0057282974         3945 
 4861000   0.46812383   -9.4860305    461.89915 0.0079184522 0.0057261144         3943 
 4862000   0.46317045   -9.4995707    462.39893 0.0079253895 0.0057239316         3922 
 4863000   0.47085137   -9.4917108    462.27498 0.0079216358  0.005721752         3945 
 4864000    0.4798964   -9.4865019    461.82289 0.0079122617 0.0057195705         3924 
 4865000   0.47183105   -9.4957101    462.04797 0.0079144908 0.0057173912         3941 
 4866000   0.47593007   -9.5016542     462.6517 0.0079232035 0.0057152131         3935 
 4867000   0.47503534   -9.5031167    462.50503 0.0079190643 0.0057130367         3932 
 4868000   0.47575564    -9.511109    462.34981 0.0079147803  0.005710861         3934 
 4869000   0.47631381   -9.5103768     462.4853 0.0079154738 0.0057086859         3937 
 4870000   0.46673781   -9.4966749    462.55926  0.007915114 0.0057065133         3939 
 4871000   0.46198573   -9.5112381    462.68805 0.0079156924 0.0057043405         3933 
 4872000   0.46090032   -9.4980362    462.64577 0.0079133445 0.0057021683         3936 
 4873000   0.48259021    -9.503872    462.21328 0.0079043246 0.0056999988         3953 
 4874000   0.46628352   -9.4938537    462.51967 0.0079079413 0.0056978299         3945 
 4875000   0.47111302   -9.5026491    463.04104 0.0079152314 0.0056956628         3941 
 4876000   0.46436139   -9.5086538    462.25485 0.0079001718 0.0056934954         3933 
 4877000   0.47230712   -9.5088147     461.4397 0.0078846234 0.0056913285         3951 
 4878000   0.47406391   -9.5163646    462.17064 0.0078954941 0.0056891638         3941 
 4879000   0.47109882   -9.5072969    462.52367 0.0078999056 0.0056870004         3944 
 4880000   0.46339464   -9.4822093    462.26195 0.0078938175 0.0056848378         3934 
 4881000   0.45946894   -9.4926062    462.07418 0.0078889943 0.0056826752         3944 
 4882000    0.4703335   -9.5091116    462.64258 0.0078970808 0.0056805153         3930 
 4883000   0.46609891   -9.5014547    462.70525 0.0078965331 0.0056783569         3955 
 4884000   0.46869669   -9.5071872    462.44417 0.0078904616 0.0056761993         3949 
 4885000   0.47218904   -9.5179132    462.35063 0.0078872505 0.0056740425         3941 
 4886000   0.45507979   -9.4951047    461.76007  0.007875564 0.0056718872         3944 
 4887000   0.47445115   -9.5092854    462.20276 0.0078815013  0.005669732         3950 
 4888000   0.46461449   -9.5058841    461.84768 0.0078738352 0.0056675783         3949 
 4889000    0.4663624   -9.5130639    462.56255 0.0078844098 0.0056654261         3943 
 4890000   0.48261176    -9.504827    462.01949 0.0078735428 0.0056632753         3947 
 4891000   0.47509266   -9.5027828    462.23243  0.007875561  0.005661126         3937 
 4892000   0.46878622   -9.5018465    462.56368 0.0078795939 0.0056589779         3944 
 4893000   0.47940574   -9.5078402    462.06845 0.0078695492 0.0056568298         3936 
 4894000   0.47160048   -9.5160703    462.68534 0.0078784454 0.0056546847         3943 
 4895000   0.47273374   -9.5013846    462.63107  0.007875912  0.005652539         3930 
 4896000   0.45085456   -9.5288653    462.81553  0.007877443 0.0056503942         3944 
 4897000   0.46647721   -9.5100145    462.35898 0.0078680651  0.005648249         3938 
 4898000   0.46665292   -9.5088729    461.83665 0.0078575719 0.0056461079         3947 
 4899000   0.46813205   -9.5248603     461.8984 0.0078570184 0.0056439657         3942 
 4900000   0.47958073   -9.5220572    461.97454 0.0078567098  0.005641825         3930 
 4901000   0.46244185   -9.5127276    462.42498 0.0078627657 0.0056396865         3929 
 4902000   0.46808574   -9.5050015    461.85005 0.0078513881  0.005637548         3943 
 4903000   0.46928739   -9.5083694    462.60602 0.0078626355 0.0056354107         3925 
 4904000   0.46821844   -9.5192277     462.1838 0.0078538574 0.0056332763         3941 
 4905000   0.46745267   -9.5193042    462.14782 0.0078516449 0.0056311421         3945 
 4906000   0.46762901   -9.5052417    462.23553 0.0078515343 0.0056290089         3952 
 4907000   0.46275029   -9.5134563    462.44862  0.007853553 0.0056268742         3934 
 4908000   0.46481494   -9.4938331    462.12876 0.0078465221 0.0056247438         3927 
 4909000   0.46540148   -9.5062741    462.10193 0.0078444681 0.0056226144         3939 
 4910000   0.46150056   -9.4960956     461.9778 0.0078407637 0.0056204849         3935 
 4911000   0.46933558   -9.4950538    462.18287 0.0078426469 0.0056183567         3932 
 4912000    0.4643203   -9.5106359    462.58029 0.0078477927 0.0056162286         3936 
 4913000   0.46385931   -9.5182064    461.50701 0.0078279906 0.0056141006         3949 
 4914000   0.46696656    -9.501837    462.13073 0.0078369748  0.005611975         3940 
 4915000   0.47025325   -9.5148595    462.30189 0.0078382823 0.0056098502         3948 
 4916000   0.46483468   -9.5088174    461.77763 0.0078278008 0.0056077271         3921 
 4917000   0.47456905    -9.510978    462.00679 0.0078300927 0.0056056047         3927 
 4918000   0.45671187   -9.5035092    461.85008 0.0078258453 0.0056034849         3938 
 4919000   0.45715945   -9.5156956    462.48556   0.00783502 0.0056013645         3939 
 4920000   0.46893766   -9.5093792    461.64031  0.007819111 0.0055992462         3937 
 4921000   0.45070792   -9.5212781    462.83895   0.00783782 0.0055971271         3931 
 4922000   0.47490783   -9.5132158    461.76936 0.0078181187 0.0055950104         3937 
 4923000   0.46304156   -9.5051564    462.26504 0.0078249211 0.0055928952         3951 
 4924000   0.46829598   -9.5172937    462.35973 0.0078249345 0.0055907795         3954 
 4925000   0.46403107   -9.5168501    462.14661 0.0078197396 0.0055886659         3934 
 4926000   0.47206339   -9.5281618    461.86354 0.0078133635 0.0055865533         3952 
 4927000   0.45789589   -9.5097167    462.07767 0.0078153994 0.0055844426         3943 
 4928000   0.47486672   -9.5142992     461.6699  0.007806918 0.0055823333         3948 
 4929000   0.47155198   -9.5263969    461.86307    0.0078086 0.0055802253         3944 
 4930000   0.46144052   -9.5062528    462.47893 0.0078174262 0.0055781174         3935 
 4931000    0.4620285   -9.5129194    462.19649 0.0078110676 0.0055760113         3929 
 4932000    0.4646533   -9.5133456    463.13299 0.0078253074  0.005573906         3932 
 4933000   0.45226491   -9.5082569    461.88295 0.0078026041 0.0055718025         3945 
 4934000   0.46783943   -9.5162938    461.76944 0.0077991055 0.0055697008         3957 
 4935000   0.46983649   -9.5157103    461.91203 0.0077999329 0.0055675969         3941 
 4936000   0.44901108   -9.5276822    461.73836 0.0077954207 0.0055654956         3949 
 4937000   0.46715037   -9.5038261    462.16853 0.0078011028 0.0055633965         3929 
 4938000   0.46754416   -9.5167386    461.95984 0.0077960011 0.0055612981         3936 
 4939000   0.46564354   -9.5010233    462.47743 0.0078031556 0.0055592002         3932 
 4940000   0.46003864   -9.5170246     462.2019 0.0077969282 0.0055571039         3923 
 4941000   0.47117311   -9.5109337    461.98377 0.0077916712 0.0055550087         3933 
 4942000   0.46579553   -9.5104056    461.84279 0.0077877174  0.005552914         3937 
 4943000   0.46044829   -9.5196778     462.2943 0.0077937537   0.00555082         3933 
 4944000   0.46844712   -9.5062781    462.42749 0.0077944223 0.0055487283         3943 
 4945000   0.46078347   -9.5162188    461.37414 0.0077750951 0.0055466363         3945 
 4946000   0.45303429   -9.5224302    462.35091 0.0077899802 0.0055445464         3939 
 4947000   0.46017553   -9.5215285    461.67306  0.007776987 0.0055424579         3946 
 4948000   0.45942397   -9.5192443    462.18422 0.0077840241  0.005540369         3938 
 4949000    0.4590985   -9.5312053    462.04889 0.0077801726 0.0055382812         3942 
 4950000   0.45992287   -9.5232386    462.48053 0.0077858675 0.0055361967         3944 
 4951000   0.46059024   -9.5186221    461.61821 0.0077697807 0.0055341122         3927 
 4952000   0.44865054   -9.5222035    462.42184 0.0077817354 0.0055320277         3928 
 4953000   0.45785749   -9.5102463    462.12536  0.007775176 0.0055299448         3930 
 4954000   0.45996314   -9.5171108    461.44883 0.0077622263 0.0055278635         3936 
 4955000   0.45374985   -9.5090618    462.06194 0.0077709711 0.0055257816         3943 
 4956000   0.45648194   -9.5218843    461.95827 0.0077676599 0.0055237035         3940 
 4957000   0.46551323    -9.535154    461.89873  0.007765092 0.0055216261         3939 
 4958000   0.45600428   -9.5213403    462.06157 0.0077662628 0.0055195494         3937 
 4959000   0.45514726   -9.5284976    461.93841  0.007762627  0.005517474         3934 
 4960000    0.4562745     -9.53394    462.46646 0.0077699339 0.0055153994         3927 
 4961000   0.45964851   -9.5165994     462.2906 0.0077654135 0.0055133262         3953 
 4962000   0.46668039   -9.5242739    461.95139 0.0077581517 0.0055112538         3946 
 4963000   0.46021473   -9.5218044    461.38107 0.0077470124 0.0055091822         3942 
 4964000   0.45457787   -9.5296974    462.21529 0.0077594562 0.0055071114         3943 
 4965000   0.45525545   -9.5155995    462.11507 0.0077562113 0.0055050417         3927 
 4966000   0.45159706   -9.5387848     461.8764 0.0077506444  0.005502972         3928 
 4967000   0.45144295   -9.5187636    462.11939 0.0077531606 0.0055009034         3932 
 4968000   0.44026712   -9.5233226    460.73007 0.0077282956 0.0054988357         3942 
 4969000   0.44657004   -9.5219578    462.88279 0.0077628428 0.0054967679         3938 
 4970000   0.44679207   -9.5399974    461.73866 0.0077420969 0.0054947033         3943 
 4971000   0.44376258    -9.528919    461.65081 0.0077390667 0.0054926392         3948 
 4972000    0.4628091   -9.5121031    461.62713 0.0077371134 0.0054905772         3941 
 4973000   0.46134306    -9.522616    462.40878 0.0077486557 0.0054885157         3928 
 4974000   0.44955762    -9.534375     461.6838 0.0077349518 0.0054864555         3937 
 4975000   0.45348199   -9.5383878    461.79605 0.0077352772 0.0054843967         3934 
 4976000   0.45002023   -9.5380492    462.41216 0.0077440407 0.0054823389         3939 
 4977000   0.45428225   -9.5118073    461.71282 0.0077307752 0.0054802817         3938 
 4978000   0.46158661   -9.5270461    462.24703 0.0077381651 0.0054782264         3942 
 4979000   0.45361272   -9.5210032    462.65202 0.0077433893 0.0054761711         3952 
 4980000   0.45584249   -9.5229138    461.84314 0.0077282988 0.0054741165         3950 
 4981000   0.45457166   -9.5273867    462.11835 0.0077313516 0.0054720636         3946 
 4982000   0.45721987   -9.5370087    461.62155 0.0077214899 0.0054700108         3932 
 4983000   0.44901713   -9.5335359    462.38339 0.0077326809 0.0054679608         3937 
 4984000   0.44985838   -9.5268697    461.74319 0.0077204252 0.0054659116         3945 
 4985000   0.46190921   -9.5365346     461.7171 0.0077184403 0.0054638627         3938 
 4986000   0.45720271   -9.5307513    461.93639 0.0077205575 0.0054618168         3942 
 4987000   0.46329261   -9.5261945    461.19953 0.0077066963 0.0054597697         3949 
 4988000   0.44939312    -9.533516    462.13853 0.0077208388 0.0054577239         3942 
 4989000   0.45339469    -9.528133    461.65246 0.0077111723 0.0054556792         3932 
 4990000   0.44741087    -9.529195    462.19641  0.007718711 0.0054536367         3939 
 4991000   0.46510569   -9.5510795    461.84409 0.0077112818 0.0054515949         3933 
 4992000   0.45239334   -9.5280262    462.10057 0.0077140187 0.0054495549         3945 
 4993000   0.45894015   -9.5202472    461.77561   0.00770705 0.0054475149         3947 
 4994000   0.44657021   -9.5385559    461.81088 0.0077060954 0.0054454758         3942 
 4995000   0.45259903   -9.5249317    461.70775  0.007702832 0.0054434373         3935 
 4996000   0.45106362    -9.530662    462.34048 0.0077118442 0.0054413997         3953 
 4997000   0.44627231   -9.5311846    461.36487 0.0076940309 0.0054393625         3942 
 4998000   0.45270753   -9.5221139    462.05168 0.0077039428 0.0054373286         3951 
 4999000   0.46236344   -9.5324975    461.79024 0.0076980436 0.0054352959         3943 
 5000000   0.44905807   -9.5300507    461.45537 0.0076909229 0.0054332618         3947 
 5001000   0.44604388   -9.5331967    461.92549 0.0076972187 0.0054312304         3927 
 5002000   0.46110081   -9.5260398     461.8438 0.0076943189 0.0054291992         3945 
 5003000   0.44360674   -9.5280808    460.90077 0.0076770733 0.0054271681         3954 
 5004000    0.4462079   -9.5263687    461.27804 0.0076818219 0.0054251383         3935 
 5005000   0.45491136   -9.5308853    462.02347 0.0076926984 0.0054231103         3933 
 5006000   0.44517259   -9.5352783    460.92891  0.007672941 0.0054210836         3935 
 5007000   0.45694018   -9.5219466    461.96246 0.0076886102 0.0054190571         3949 
 5008000    0.4509657   -9.5214216     461.4892    0.0076792 0.0054170317         3942 
 5009000   0.45941203    -9.532041    462.03348 0.0076867218 0.0054150077         3948 
 5010000   0.44768396   -9.5376862    461.91131 0.0076831554 0.0054129836         3947 
 5011000   0.44503491   -9.5293392    462.09728 0.0076847149 0.0054109611         3940 
 5012000   0.45092521   -9.5259302    461.05137 0.0076657917 0.0054089411         3939 
Loop time of 13236.5 on 48 procs for 5000000 steps with 4000 atoms

Performance: 65274.281 tau/day, 377.745 timesteps/s
99.4% CPU use with 48 MPI tasks x no OpenMP threads

MPI task timing breakdown:
Section |  min time  |  avg time  |  max time  |%varavg| %total
---------------------------------------------------------------
Pair    | 954.53     | 1063.4     | 1198.1     | 186.0 |  8.03
Neigh   | 92.314     | 98.542     | 104.46     |  25.4 |  0.74
Comm    | 824.4      | 982.45     | 1114.1     | 213.5 |  7.42
Output  | 18.777     | 18.782     | 18.892     |   0.4 |  0.14
Modify  | 10892      | 10943      | 10994      |  24.1 | 82.68
Other   |            | 129.9      |            |       |  0.98

Nlocal:        83.3333 ave          89 max          76 min
Histogram: 2 1 4 7 2 8 13 5 0 6
Nghost:        2457.15 ave        2481 max        2437 min
Histogram: 1 4 7 12 8 4 2 5 3 2
Neighs:        17023.2 ave       20070 max       14039 min
Histogram: 3 1 3 12 8 6 6 5 2 2
FullNghs:      34048.6 ave       36975 max       30482 min
Histogram: 2 2 4 4 5 10 8 8 1 4

Total # of neighbors = 1634333
Ave neighs/atom = 408.58325
Neighbor list builds = 265781
Dangerous builds = 2

#clear
#
#next RN
#
#jump SELF
Total wall time: 3:40:40
