
units lj                  # Use reduced LJ style units
atom_style atomic         # Uncharged point particles
atom_modify map hash      # Needed for indexing of clusters etc
                          # Used to be able to find where atoms are in relation to each other.

lattice fcc 1.0 spacing 1 1 1
Lattice spacing in x,y,z = 1.5874011 1.5874011 1.5874011
region box block 0 10 0 10 0 10 units lattice
create_box 2 box
Created orthogonal box = (0.0000000 0.0000000 0.0000000) to (15.874011 15.874011 15.874011)
  3 by 4 by 4 MPI processor grid
create_atoms 1 box
Created 4000 atoms
  using lattice units in orthogonal box = (0.0000000 0.0000000 0.0000000) to (15.874011 15.874011 15.874011)
  create_atoms CPU = 0.003 seconds
set type 1 type/fraction 2 0.32 78393
Setting atom values ...
  1310 settings made for type/fraction
mass 1 1.0
mass 2 1.0
pair_style lj/cut  3.5
pair_modify tail  yes
pair_coeff 1  1  1.0  1.0   # Intearaction between 1 and 1 set with epsilon = 1 and sigma = 1
pair_coeff 1  2  1.5  0.8
pair_coeff 2  2  0.5  0.88

write_data data.0
System init for write_data ...
Neighbor list info ...
  update every 1 steps, delay 10 steps, check yes
  max neighbors/atom: 2000, page size: 100000
  master list distance cutoff = 3.8
  ghost atom cutoff = 3.8
  binsize = 1.9, bins = 9 9 9
  1 neighbor lists, perpetual/occasional/extra = 1 0 0
  (1) pair lj/cut, perpetual
      attributes: half, newton on
      pair build: half/bin/atomonly/newton
      stencil: half/bin/3d
      bin: standard
WARNING: Not all mixed pair coeffs generated from mixing. Use write_data with 'pair ij' option to store all pair coeffs. (../write_data.cpp:312)


#############################
#   M E L T   S Y S T E M   #
#############################

velocity all create 2.4 1741580 mom yes dist gaussian # Assign velocities
                                                    # Temperature 2.4, random number seed, zero linear momentum
                                                                                # Gaussian distribution

timestep 0.002   # simulation timestep
thermo 1000       # output thermodynamic data every 1000 steps bf 100

# Define a fix  in this case with index 1 applied to all
# particles in the simulation. This fix is for simulations
# in the anisotropic NPT ensemble. Note that we use the MTK
# correction.
fix 1 all npt temp 2.4 2.4 0.1 iso 5.68 5.68 0.5 mtk yes tchain 5 pchain 5 # Use NPT ensemble
                                                                         # Set temperature and pressure and damping
                                                                         # Numbers of thermostats in chain and in barostat
run 10000          # run for 10000 steps
Per MPI rank memory allocation (min/avg/max) = 3.642 | 3.644 | 3.648 Mbytes
Step Temp E_pair E_mol TotEng Press Volume 
       0          2.4   -6.3097323            0   -2.7106323   -4.0355096         4000 
    1000    2.3840016   -4.9912317            0   -1.4161233    5.6668411    4098.7572 
    2000    2.3891963   -4.9648202            0   -1.3819217     5.320418    4145.6716 
    3000     2.369262   -5.0280203            0   -1.4750157    6.0882946    4040.9202 
    4000    2.3914541   -5.0554924            0    -1.469208    5.4372935    4089.3013 
    5000    2.3898289    -4.924134            0   -1.3402867    5.8458804    4122.6431 
    6000    2.3794218   -4.9651814            0   -1.3969411    5.2733088    4143.7578 
    7000    2.3720939   -5.0029204            0   -1.4456692    5.6295273    4092.4966 
    8000    2.4396612   -4.9906678            0    -1.332091    5.7888835    4097.9529 
    9000     2.382714   -5.0413779            0   -1.4682004    5.6881788    4076.4366 
   10000    2.3426107   -4.9569449            0   -1.4439073    5.4834751    4121.9346 
Loop time of 2.44713 on 48 procs for 10000 steps with 4000 atoms

Performance: 706133.378 tau/day, 4086.420 timesteps/s
99.6% CPU use with 48 MPI tasks x no OpenMP threads

MPI task timing breakdown:
Section |  min time  |  avg time  |  max time  |%varavg| %total
---------------------------------------------------------------
Pair    | 1.0666     | 1.1258     | 1.2731     |   3.3 | 46.01
Neigh   | 0.20472    | 0.21322    | 0.23646    |   1.2 |  8.71
Comm    | 0.71147    | 0.84684    | 0.94417    |   5.2 | 34.61
Output  | 0.000243   | 0.00024806 | 0.00031331 |   0.0 |  0.01
Modify  | 0.21061    | 0.24613    | 0.29585    |   4.9 | 10.06
Other   |            | 0.01486    |            |       |  0.61

Nlocal:        83.3333 ave          95 max          75 min
Histogram: 4 5 2 7 9 13 3 3 1 1
Nghost:        1601.69 ave        1626 max        1577 min
Histogram: 2 3 1 10 7 8 8 6 1 2
Neighs:        9255.77 ave       10514 max        8210 min
Histogram: 4 4 5 7 4 13 4 2 3 2

Total # of neighbors = 444277
Ave neighs/atom = 111.06925
Neighbor list builds = 912
Dangerous builds = 239

# Equilibrate just above the melting temperature to avoid step fn in T

fix 1 all npt temp 1.25 1.25 0.1 iso 5.68 5.68 0.5 mtk yes tchain 5 pchain 5
run 2000
Per MPI rank memory allocation (min/avg/max) = 3.643 | 3.645 | 3.649 Mbytes
Step Temp E_pair E_mol TotEng Press Volume 
   10000    2.3426107   -4.9569449            0   -1.4439073    5.4834751    4121.9346 
   11000     1.232537   -6.8586902            0   -5.0103469     5.613334    3302.1562 
   12000    1.2478827   -6.9504475            0   -5.0790913    5.5470335    3276.0957 
Loop time of 0.581914 on 48 procs for 2000 steps with 4000 atoms

Performance: 593902.202 tau/day, 3436.934 timesteps/s
99.6% CPU use with 48 MPI tasks x no OpenMP threads

MPI task timing breakdown:
Section |  min time  |  avg time  |  max time  |%varavg| %total
---------------------------------------------------------------
Pair    | 0.24759    | 0.27525    | 0.31237    |   2.8 | 47.30
Neigh   | 0.036871   | 0.03975    | 0.044805   |   0.8 |  6.83
Comm    | 0.17618    | 0.21964    | 0.25041    |   3.4 | 37.74
Output  | 4.9708e-05 | 6.1216e-05 | 8.2673e-05 |   0.0 |  0.01
Modify  | 0.039583   | 0.04257    | 0.045129   |   0.7 |  7.32
Other   |            | 0.004644   |            |       |  0.80

Nlocal:        83.3333 ave          91 max          74 min
Histogram: 1 3 2 2 11 10 4 10 3 2
Nghost:        1885.23 ave        1908 max        1858 min
Histogram: 2 3 1 5 6 9 11 5 3 3
Neighs:        11662.5 ave       12704 max       10150 min
Histogram: 1 2 3 7 3 8 6 8 3 7

Total # of neighbors = 559801
Ave neighs/atom = 139.95025
Neighbor list builds = 142
Dangerous builds = 7

#############################
# L I N E A R  Q U E N C H  #
#############################

# Define solid atoms. This closely follows ten Wolde  Ruiz-Montero and Frenkel  Faraday Discuss  1996  104  93-110
# Compute components of the per-atom q6 vector
compute q6 all orientorder/atom degrees 1 6 components 6 nnn NULL cutoff 1.3 # compute the Q6 parameter.
                                                                             # Use all neighbours within 1.3 unit cell.

# get number of connections
compute coord_number all coord/atom orientorder q6 0.5

# An atom is solid if it has 8 or more connections (of a possible 14)
variable is_solid atom c_coord_number>=8
group solid dynamic all var is_solid    # Must be dynamic to update
dynamic group solid defined

# do clustering
compute cluster solid cluster/atom 1.3 # Create a cluster where all atoms within are solid and max 1.3 units from another member

# define chunks one chunk per cluster
compute clus_chunks solid chunk/atom c_cluster nchunk every compress yes  # Says which atoms are in which chunk

# count the size of each chunk
compute size_chunks solid property/chunk clus_chunks count


# Find the maximum entry in the vector of chunk sizes
variable max_n equal max(c_size_chunks)


# Thermo style which includes this variable
# thermo_style custom step temp pe vol v_max_n

thermo ${N}  # Print the thermo information every 100 steps
thermo 1000  

# Reset the npt fix at a lower temperature (below freezing)
fix 1  all npt temp  ${temp} ${temp}  0.1  iso  5.68  5.68  0.5  mtk yes tchain  5  pchain  5
fix 1  all npt temp  0.45 ${temp}  0.1  iso  5.68  5.68  0.5  mtk yes tchain  5  pchain  5
fix 1  all npt temp  0.45 0.45  0.1  iso  5.68  5.68  0.5  mtk yes tchain  5  pchain  5

dump dmp2 all dcd ${N} traj.dcd
dump dmp2 all dcd 1000 traj.dcd


compute msd all msd com yes
variable twopoint equal c_msd[4]/6/(step*dt+1.0e-6)
fix 9 all vector 10 c_msd[4]
variable fit equal slope(f_9)/6/(10*dt)
thermo_style custom step temp pe c_msd[4] v_twopoint v_fit v_max_n

fix 1 all npt temp 1.25 ${temp} 0.1 iso 5.68 5.68 0.5 mtk yes tchain 5 pchain 5
fix 1 all npt temp 1.25 0.45 0.1 iso 5.68 5.68 0.5 mtk yes tchain 5 pchain 5
run 5000000 # 5000000  # Run for this many steps
Neighbor list info ...
  update every 1 steps, delay 10 steps, check yes
  max neighbors/atom: 2000, page size: 100000
  master list distance cutoff = 3.8
  ghost atom cutoff = 3.8
  binsize = 1.9, bins = 8 8 8
  4 neighbor lists, perpetual/occasional/extra = 1 3 0
  (1) pair lj/cut, perpetual
      attributes: half, newton on
      pair build: half/bin/atomonly/newton
      stencil: half/bin/3d
      bin: standard
  (2) compute orientorder/atom, occasional
      attributes: full, newton on
      pair build: full/bin/atomonly
      stencil: full/bin/3d
      bin: standard
  (3) compute coord/atom, occasional
      attributes: full, newton on
      pair build: full/bin/atomonly
      stencil: full/bin/3d
      bin: standard
  (4) compute cluster/atom, occasional
      attributes: full, newton on
      pair build: full/bin/atomonly
      stencil: full/bin/3d
      bin: standard
Per MPI rank memory allocation (min/avg/max) = 9.815 | 9.819 | 9.824 Mbytes
Step Temp PotEng c_msd[4] v_twopoint v_fit v_max_n 
   12000    1.2478827   -6.9504475 3.0095044e-30 2.0899335e-32 8.3333333e+20            1 
   13000    1.2517976     -6.91726    0.4820044 0.0030897717  0.039515374            2 
   14000    1.2567616   -6.9466731   0.95822996 0.0057037495  0.039168659            1 
   15000    1.2512668   -6.9362809    1.4265564 0.0079253131  0.039270747            2 
   16000    1.2283676   -6.9059784     1.887681 0.0098316715   0.03910807            1 
   17000    1.2508505   -6.9562249    2.3573364   0.01155557  0.039048819            1 
   18000    1.2159312    -6.999867     2.797489  0.012951337  0.038815048            1 
   19000    1.2901426   -6.9330604    3.2269928  0.014153477  0.038544549            1 
   20000    1.2500586   -6.9469224    3.6380804  0.015158668  0.038099077            1 
   21000    1.2351726   -6.9454027    4.1109492   0.01631329  0.037784889            3 
   22000    1.2605368    -6.936888    4.6202421  0.017500917  0.037758272            1 
   23000    1.2310129   -6.9133631    5.0854092  0.018425395  0.037823907            1 
   24000    1.2370486   -6.9399622    5.5528461  0.019280715  0.037944514            2 
   25000    1.2302326   -6.9772318    5.9629469  0.019876489  0.037948013            2 
   26000    1.2701893     -6.95961    6.5093853  0.020863414  0.038110423            2 
   27000    1.2296589   -6.9267105    6.9533602  0.021460988   0.03819192            4 
   28000    1.2448192   -6.9176357     7.408888  0.022050262  0.038259444            1 
   29000    1.2368062   -6.9510454    7.8218055  0.022476452   0.03831726            1 
   30000    1.2551483   -6.9256707    8.4473107  0.023464752  0.038419706            2 
   31000    1.2411317   -6.9584175    9.0840122  0.024419387  0.038683092            1 
   32000    1.2568249   -6.9655772    9.5112721  0.024768937  0.038962188            2 
   33000    1.2440835   -6.9139739    9.9376461  0.025095065   0.03907547            1 
   34000    1.2487578   -6.9230702      10.3803  0.025441912  0.039156178            1 
   35000    1.2310305   -6.9239567    10.733941  0.025557002  0.039191775            1 
   36000    1.2495217   -6.9593865    11.111335  0.025720683  0.039135981            1 
   37000    1.2281498   -6.9628451    11.445017  0.025777064  0.038974265            1 
   38000    1.2324152   -6.9045778    11.965998  0.026241224  0.038834301            1 
   39000    1.2369218   -6.9354945    12.429574  0.026558919   0.03871871            2 
   40000    1.2654161   -6.9292742    12.991624  0.027065883  0.038640414            1 
   41000    1.2466225   -6.9438941    13.470983  0.027380046  0.038642847            1 
   42000    1.2510866   -6.9830436     13.88068  0.027541032  0.038653636            3 
   43000    1.2543585   -6.9380734    14.403538  0.027913834  0.038645189            1 
   44000    1.2735877    -6.940542    14.918152  0.028254075  0.038658852            1 
   45000    1.2586051   -6.9523191    15.244777  0.028231068  0.038664137            1 
   46000    1.2590887   -6.9919343    15.737794  0.028510497  0.038648086            4 
   47000    1.2335481   -6.9269204    16.205863  0.028733799  0.038639845            1 
   48000    1.2390812   -6.9598737    16.637165  0.028883967  0.038612835            2 
   49000    1.2145232    -6.901306    17.117264  0.029110993  0.038590436            1 
   50000    1.2212013    -6.954575    17.463859  0.029106432  0.038554054            1 
   51000    1.2231544   -6.9485632     17.95688  0.029341306  0.038508418            1 
   52000    1.2332332    -6.924673    18.495761  0.029640642  0.038482137            1 
   53000    1.2551619   -6.9407891    18.853146   0.02964331  0.038454001            2 
   54000     1.255558   -6.9113275    19.426784  0.029979604  0.038427861            1 
   55000    1.2531687   -6.9521568    20.077421  0.030420335  0.038447284            2 
   56000    1.2416452   -6.9583153    20.611831  0.030672367  0.038501865            1 
   57000    1.2313862   -6.9247677     21.13014  0.030892017  0.038566761            2 
   58000    1.2472454   -6.9767317    21.486082  0.030870807  0.038607336            2 
   59000    1.2209056   -6.9080735    22.063364  0.031162943  0.038637386            2 
   60000    1.2412256   -6.9297662    22.513954  0.031269381   0.03867711            2 
   61000    1.2028385   -6.9375617    22.949893  0.031352312  0.038717522            1 
   62000    1.2285926   -6.9486227    23.346418  0.031379594  0.038746452            1 
   63000    1.2235352   -6.9293348    23.877399   0.03158386  0.038761896            1 
   64000     1.247559   -6.9449365    24.352262  0.031708674  0.038773247            3 
   65000    1.2454821   -6.9497985     24.82714  0.031829666  0.038796247            1 
   66000     1.231058   -6.9364071    25.391098  0.032059467  0.038818493            2 
   67000    1.2626317   -6.9332512    26.118478  0.032485669  0.038862478            1 
   68000    1.2872625   -6.9743797     26.34014  0.032279583  0.038922271            2 
   69000    1.2413779   -6.9530684    27.179339  0.032825288  0.038994073            1 
   70000     1.254569   -6.9280924    27.721252   0.03300149  0.039088227            3 
   71000    1.2339804   -6.9765553    28.154867  0.033045619  0.039175618            1 
   72000      1.25543   -6.9418836    28.596032  0.033097259  0.039258076            3 
   73000    1.2711453   -6.9107165    29.166082  0.033294614  0.039312717            1 
   74000    1.2668639   -6.9364135    29.632103  0.033369486  0.039370765            1 
   75000    1.2171463   -6.9708186    30.087321  0.033430356  0.039429174            2 
   76000    1.2113008   -6.9169388    30.511184  0.033455245  0.039477072            2 
   77000    1.2469494   -6.9479947    30.934038  0.033478396  0.039521142            3 
   78000    1.2394954   -6.9652866    31.186892  0.033319329  0.039539472            2 
   79000    1.2463801   -6.9278626    31.763123  0.033505404  0.039550901            1 
   80000    1.2197977   -6.9656081    32.330301  0.033677397  0.039567395            1 
   81000    1.2328436   -6.9858176    32.714279  0.033656666  0.039581352            2 
   82000    1.2370674    -6.945578    33.236232  0.033776659  0.039598062            4 
   83000    1.2297594   -6.9458434     33.83855  0.033974448  0.039615225            2 
   84000    1.2444007   -6.9647701    34.168038  0.033896863  0.039631439            2 
   85000    1.2320078   -6.9760492    34.630444  0.033951416  0.039647955            1 
   86000    1.2428728   -6.9545456    35.083525  0.033995664  0.039661477            1 
   87000    1.2536965   -6.9324252    35.736509  0.034230372  0.039679293            1 
   88000    1.2126151   -6.9215298    35.956961  0.034050152  0.039695188            3 
   89000    1.2346233   -6.9733294    36.452785  0.034131821  0.039701777            3 
   90000    1.2547114    -6.982187    36.700006  0.033981487  0.039691248            2 
   91000    1.2725546   -6.9623753    37.208316  0.034073549  0.039678696            3 
   92000     1.264332   -6.9789909    37.670807  0.034122108  0.039663227            1 
   93000    1.2741485   -6.9388656    38.249078  0.034273367  0.039651141            1 
   94000    1.2426493   -6.9817606    38.610976  0.034229588  0.039639903            1 
   95000    1.2446555   -6.9970097    39.129059  0.034323735  0.039635898            1 
   96000    1.2306444   -6.9333967    39.693368  0.034456048  0.039630219            1 
   97000    1.2577091    -6.974117     40.06655  0.034421435  0.039631576            1 
   98000    1.2637009   -6.9992288    40.488598   0.03442908  0.039626328            1 
   99000    1.2419181   -6.9413675    41.103055  0.034598531  0.039621875            1 
  100000     1.238187   -6.9451129    41.633772   0.03469481  0.039617682            2 
  101000    1.2182648   -6.9524413    42.214422  0.034830381  0.039616765            1 
  102000    1.2047524   -6.9636289    42.687289  0.034875236  0.039621199            2 
  103000    1.2207009   -6.9404552    43.245855  0.034988555  0.039629532            1 
  104000    1.2546744   -6.9704107    43.681883  0.035001509  0.039639325            3 
  105000    1.2117776   -7.0093297    44.065949  0.034972975  0.039652509            2 
  106000    1.2506585   -7.0209507    44.374283  0.034885443  0.039659691            1 
  107000    1.2285542   -6.9416004    44.912954  0.034978936  0.039654533            2 
  108000    1.2444629   -6.9660844    45.234379   0.03490307  0.039643966            1 
  109000     1.222288   -6.9728643    45.777656  0.034998208  0.039634058            2 
  110000    1.2521929   -6.9545413    46.169406  0.034976822  0.039623136            1 
  111000    1.2339624   -6.9616636    46.534076  0.034935492  0.039608191            2 
  112000    1.2522598   -6.9690754    46.969636  0.034947646  0.039591129            2 
  113000    1.2245487   -6.9179557    47.350769  0.034919446  0.039571861            1 
  114000    1.2375898    -6.986937    47.887642  0.035005586  0.039555996            1 
  115000    1.2255501    -6.972703    48.281687   0.03498673  0.039535468            2 
  116000    1.2422485    -6.994188    48.778658  0.035042139  0.039519019            2 
  117000    1.2190356   -6.9360599    49.368322  0.035162623  0.039504581            1 
  118000    1.2314696   -6.9396467     49.75719  0.035139258  0.039488081            1 
  119000     1.219696    -6.939252    49.971983  0.034994386  0.039469039            1 
  120000    1.2223551   -6.9409315    50.459425  0.035041267  0.039440041            3 
  121000    1.2279973   -6.9540517    50.638578  0.034875054  0.039412076            1 
  122000    1.2274966    -6.954507    51.254227  0.035009717  0.039378975            1 
  123000    1.2264623    -6.959573    51.557009  0.034930223  0.039348229            1 
  124000    1.2135741   -6.9905131    51.873829  0.034861444   0.03931925            1 
  125000    1.2424276   -6.9592379    52.370058  0.034913372  0.039294282            1 
  126000    1.2227876   -6.9607508    52.848297  0.034952577  0.039261578            2 
  127000    1.2148376   -6.9773742    53.310528  0.034980661  0.039234929            3 
  128000    1.2592929   -6.9440489      53.6871  0.034952539  0.039206489            1 
  129000    1.2248636   -6.9705539    54.359305   0.03511583  0.039178311            1 
  130000    1.2228361   -6.9985921     54.57601  0.034984621  0.039151686            2 
  131000    1.2114803   -6.9862441    55.388922  0.035234683    0.0391286            2 
  132000    1.2236076   -6.9883254    55.814407  0.035236368  0.039112667            2 
  133000    1.2083229   -6.9380883    56.354478  0.035309823  0.039094819            2 
  134000    1.2164513   -6.9914988    56.645832  0.035227507  0.039077815            1 
  135000    1.2518638   -6.9575588    57.355922   0.03540489   0.03906024            1 
  136000    1.2308845   -6.9943218    57.567659  0.035274301  0.039042525            1 
  137000    1.2597177   -6.9518237    57.866562  0.035198638  0.039021896            4 
  138000    1.2434641   -6.9929525    58.294538  0.035202016  0.038998409            1 
  139000    1.2249752   -6.9905712    58.317102  0.034962291  0.038966891            1 
  140000    1.2354145   -6.9526981    58.840491  0.035024102  0.038932905            1 
  141000    1.2074951   -6.9742807    59.130433  0.034947064  0.038898939            1 
  142000    1.2540079   -7.0025203    59.417979  0.034869706   0.03886154            1 
  143000    1.2650101   -6.9556615    59.889479  0.034900629  0.038822119            2 
  144000    1.2206312   -7.0226327    60.102703  0.034781657  0.038784431            1 
  145000    1.2397195   -6.9719012    60.818575  0.034953204  0.038745936            1 
  146000     1.219652    -7.002077    60.950494  0.034789094  0.038712205            1 
  147000    1.2378951   -7.0220004    61.519515  0.034875009  0.038678467            1 
  148000    1.2156503   -6.9853582    61.935773  0.034873746  0.038642094            2 
  149000    1.2292262   -6.9662499     62.41086  0.034905403  0.038610296            1 
  150000    1.2014264    -6.959945    62.897512  0.034943062  0.038575622            3 
  151000    1.2094991   -6.9781759    63.233852  0.034897269  0.038537368            1 
  152000    1.2313881   -6.9971472     63.45299  0.034787823  0.038498559            1 
  153000    1.2348454   -7.0088683    63.788817  0.034743364  0.038458897            1 
  154000    1.2168512   -6.9574239    64.703546  0.035012741  0.038424345            1 
  155000    1.1945537   -6.9677215    65.206548  0.035057284  0.038394804            1 
  156000    1.2392429   -7.0051381    65.433937  0.034954026  0.038365425            1 
  157000     1.220223   -6.9860488    65.674862  0.034859269  0.038335868            5 
  158000    1.2177939   -6.9718082    66.341918  0.034990463  0.038305035            1 
  159000    1.2435735    -6.950792    67.014535  0.035122922  0.038277627            2 
  160000    1.2446947   -7.0204125    67.026565  0.034909669  0.038247705            3 
  161000    1.2062616   -6.9890584    67.516235  0.034946291  0.038220188            3 
  162000    1.1822778   -7.0406391    67.699637  0.034824916  0.038189485            1 
  163000    1.2172228   -6.9982036    68.438261  0.034988886  0.038158832            2 
  164000     1.227586   -7.0336996    68.638019  0.034877042  0.038130791            1 
  165000    1.2214529   -6.9943895    69.353585  0.035027063  0.038103328            1 
  166000     1.241976   -6.9487743    69.949215  0.035115068  0.038077734            3 
  167000      1.23424   -6.9402494    70.003192  0.034931733  0.038052528            2 
  168000    1.2383855     -6.98274    70.331335  0.034886575  0.038021797            1 
  169000    1.2385447   -6.9562699    70.751263   0.03488721  0.037990958            1 
  170000    1.2360699   -6.9951955    71.376179  0.034988323  0.037963528            1 
  171000    1.1972263   -7.0134003    71.851818  0.035015506  0.037941896            1 
  172000    1.2009231   -6.9776919    72.408382   0.03508158  0.037920751            2 
  173000     1.197597   -6.9988567    72.622427  0.034981901  0.037894696            2 
  174000    1.2098728   -7.0072814    72.713797  0.034824616  0.037867132            1 
  175000     1.220497   -6.9613743    73.424075  0.034963845  0.037835408            1 
  176000    1.1889467   -6.9981052    73.505851  0.034803907  0.037805985            3 
  177000    1.2339063   -6.9976276    73.797469  0.034744571  0.037774554            1 
  178000    1.2061261   -7.0347612    74.141741  0.034710553  0.037744224            2 
  179000    1.2192657   -6.9750255    75.113371  0.034968981  0.037715769            1 
  180000    1.2222489   -6.9751602    75.348309  0.034883476  0.037688352            3 
  181000    1.2275494   -7.0292634    75.414849  0.034721385  0.037660355            2 
  182000    1.2346456   -6.9661827    76.034238  0.034814211   0.03763195            1 
  183000    1.2131995   -6.9914358    76.681569  0.034918747  0.037604937            2 
  184000    1.2506974   -6.9738514    77.199733  0.034963647  0.037581682            2 
  185000    1.2084024   -7.0033892      77.5827  0.034947162  0.037559358            2 
  186000    1.2318132   -7.0245152    78.118994  0.034999549  0.037539486            1 
  187000    1.2305667   -7.0160375    78.512056  0.034987547  0.037520575            2 
  188000    1.2473106   -7.0035926    78.960198  0.035000088  0.037500778            2 
  189000    1.2375192   -6.9687398    79.156062  0.034901262  0.037480095            4 
  190000      1.24464   -6.9958697    79.639484  0.034929598  0.037457874            1 
  191000      1.21585    -7.031965    79.874738  0.034849362  0.037433281            4 
  192000    1.2130667   -6.9939503     80.52825  0.034951497  0.037411267            1 
  193000    1.2221735   -7.0253588    80.804226  0.034889562  0.037389611            1 
  194000    1.2280173   -6.9839791    81.073692  0.034825469  0.037367192            4 
  195000    1.2106094     -6.97982    81.117132  0.034665441   0.03734295            1 
  196000      1.22329   -6.9661155    82.152191  0.034928653   0.03731669            1 
  197000     1.250606   -6.9786932    82.249553  0.034792535  0.037291965            1 
  198000     1.205448   -6.9534386    82.473445  0.034711046  0.037264204            1 
  199000    1.2448348   -7.0247034    82.369394  0.034493046  0.037234394            1 
  200000    1.2252302    -6.985803    83.250941  0.034687892  0.037204247            2 
  201000     1.232501   -7.0138058    83.219966  0.034502473  0.037174006            1 
  202000    1.2314271    -7.018239    83.269078   0.03435193  0.037139136            1 
  203000    1.2399253   -7.0118207     83.61562  0.034324967  0.037103759            4 
  204000    1.2364485   -7.0228291    84.339282  0.034452321  0.037068034            2 
  205000    1.2245832   -6.9927299    84.648524  0.034409969  0.037034067            1 
  206000    1.2498654   -6.9962763    84.888578  0.034340039  0.037001174            1 
  207000    1.1714659   -7.0161515     85.49358  0.034417705  0.036969201            2 
  208000    1.2284057   -6.9929203     86.47658  0.034646066  0.036940933            1 
  209000    1.2081877   -6.9727079    86.598938  0.034529082  0.036915103            1 
  210000    1.2085916   -7.0075139    87.196283    0.0346017  0.036887303            1 
  211000    1.2143801    -6.994526    87.320114  0.034486617  0.036860638            2 
  212000    1.1893381   -6.9998888    87.861683  0.034536825  0.036833338            1 
  213000    1.2175038   -7.0327842    88.019117  0.034436274  0.036806061            2 
  214000    1.2069517   -6.9600042    88.691231  0.034537084  0.036780354            2 
  215000    1.2445927   -7.0357436    88.548279  0.034321038  0.036756309            1 
  216000    1.2051506   -7.0628889      89.1466  0.034392978  0.036731655            2 
  217000    1.2150539   -7.0273314    89.600164  0.034408665  0.036707178            1 
  218000    1.2229064   -7.0072265    90.662161  0.034656789    0.0366834            2 
  219000    1.2208235   -6.9448669    91.136638  0.034679086  0.036661923            2 
  220000    1.2256751    -6.967181    91.524562  0.034668395  0.036640161            3 
  221000    1.2162953   -6.9940353    91.488935   0.03449809  0.036616821            1 
  222000     1.209246   -6.9892913    91.710147  0.034425731  0.036593686            2 
  223000    1.2555694   -7.0114627    92.173598  0.034444543   0.03657148            3 
  224000    1.2140715   -7.0415904    92.593101  0.034446838  0.036547593            1 
  225000    1.2274216   -7.0052026    93.549118  0.034647821  0.036529078            2 
  226000    1.2003985   -6.9834713    94.034997  0.034673671  0.036511897            2 
  227000    1.2074734   -7.0237738    94.406758    0.0346574  0.036498721            2 
  228000    1.2057006   -7.0023871    94.970961  0.034711608  0.036485962            3 
  229000    1.2452117   -7.0513824    95.628463  0.034799295  0.036472732            2 
  230000    1.2175421   -7.0107633     96.05021  0.034800801  0.036461602            1 
  231000    1.2265595   -7.0058092    96.612833  0.034853114  0.036448352            1 
  232000    1.2096414   -7.0582712    96.275045  0.034581554  0.036435246            1 
  233000    1.2185867   -7.0257962     96.90651  0.034658981  0.036419618            2 
  234000    1.2171039   -7.0233859    97.139138   0.03459371  0.036403418            2 
  235000    1.2319661   -6.9994529    97.334872  0.034515912  0.036386243            1 
  236000    1.1987746   -6.9971536    98.156975  0.034659949  0.036368659            2 
  237000    1.1972102   -6.9840499    98.328129  0.034573885  0.036352442            2 
  238000    1.2228034   -7.0228467    99.161329  0.034720353  0.036338408            2 
  239000    1.2178231   -6.9819227    99.686544  0.034758209  0.036324708            2 
  240000    1.2317207   -7.0044744    100.03942  0.034735909  0.036311866            2 
  241000    1.2202925   -7.0439546    100.18313  0.034641471  0.036299398            2 
  242000    1.2162882   -7.0221284    100.86279  0.034732367  0.036287184            2 
  243000    1.2188687   -7.0433349    100.95166  0.034619909  0.036274782            2 
  244000    1.2057232   -7.0478573     101.3648  0.034619124  0.036261857            1 
  245000    1.2158507   -7.0323203    101.90629  0.034662004   0.03624692            1 
  246000    1.2007388   -7.0233473    102.13263  0.034597773  0.036231141            2 
  247000    1.1887134   -6.9969181    102.73394  0.034660573  0.036216787            2 
  248000    1.2268584   -7.0349686    103.15355  0.034661812  0.036202935            1 
  249000    1.1958341   -7.0116123    103.32245  0.034579134  0.036188375            1 
  250000    1.2007915   -7.0195034     103.5996  0.034533201  0.036172224            1 
  251000    1.2332645   -7.0167768    104.04302  0.034542837  0.036158116            2 
  252000    1.2363849   -7.0085983    104.73854  0.034635761  0.036144843            6 
  253000    1.2139212   -6.9801407    105.44729  0.034732309  0.036133158            1 
  254000    1.2285014   -7.0197502    105.79629  0.034710069  0.036123645            1 
  255000    1.2084156   -6.9702705    106.42829  0.034780488  0.036113076            3 
  256000    1.2165808   -7.0281574    106.69567  0.034731663  0.036103815            1 
  257000    1.2093915   -7.0139515    107.21808  0.034765914  0.036094531            1 
  258000    1.2406565    -7.012716    108.17475  0.034940165  0.036088272            2 
  259000    1.2058224    -7.002879    108.03096  0.034758995   0.03607989            3 
  260000    1.2179821    -7.029319    108.03635  0.034627034  0.036070534            1 
  261000    1.2059528   -7.0731175    108.20868  0.034549385  0.036057656            1 
  262000    1.2130085   -7.0110949    108.64515  0.034556345  0.036043171            1 
  263000    1.2071543   -7.0785117    108.40948  0.034350279  0.036028432            2 
  264000    1.2044363   -6.9793944    109.11096  0.034441592  0.036013309            1 
  265000    1.2237737   -6.9922984     110.0432  0.034604781  0.036000237            1 
  266000    1.2143303   -7.0311053    110.03917  0.034473423  0.035987684            3 
  267000    1.2129755   -7.0353293    111.07373  0.034667205  0.035977792            1 
  268000    1.2062537   -7.0321835    111.44933  0.034654642  0.035969544            1 
  269000    1.2050645   -7.0390148    111.71662  0.034608619  0.035960216            3 
  270000    1.2002444   -7.0162286    112.51899  0.034728083  0.035951233            3 
  271000    1.2056862   -7.0149554    112.96212  0.034736198  0.035942057            1 
  272000    1.1807282   -7.0301187    112.77539  0.034551283  0.035931589            3 
  273000    1.1997115   -7.0342415    113.10749  0.034526097  0.035920274            1 
  274000    1.2380576   -7.0740086    112.91776  0.034342386  0.035909008            1 
  275000    1.2372561   -7.0354075    113.90226  0.034515837  0.035896834            3 
  276000    1.2100598   -7.0087607    114.87061  0.034683154  0.035884345            2 
  277000    1.2177412    -7.032292    114.63532  0.034487159  0.035874919            1 
  278000    1.1770476   -7.0204942    115.47983  0.034616256  0.035863216            2 
  279000    1.2156023   -7.0603862    115.42225  0.034474986  0.035851081            1 
  280000    1.1873857   -7.0323591    116.14911  0.034568188  0.035839334            1 
  281000    1.2334483   -6.9980796    116.85005  0.034653039  0.035830323            3 
  282000    1.2014949    -7.001143    117.53801  0.034733455  0.035822777            1 
  283000    1.1971612   -7.0395063    117.90212  0.034717938  0.035815596            3 
  284000    1.2312329   -7.0581856    118.21299  0.034686911  0.035806474            1 
  285000    1.2254502   -7.0214213    118.31211  0.034594184  0.035798813            1 
  286000    1.1976257     -7.03389    119.37362  0.034782522  0.035791284            1 
  287000    1.1638373   -7.0374674    119.50352  0.034699048  0.035784043            1 
  288000    1.1975921   -7.0507893    119.97498  0.034714984  0.035777066            2 
  289000     1.220397   -7.0334538    120.73092  0.034812837  0.035771533            1 
  290000    1.2098132   -7.0594738    120.78416  0.034708093  0.035766875            5 
  291000    1.1962674    -7.006429    121.75843  0.034867822  0.035763255            4 
  292000    1.1946148   -6.9975591    122.70752   0.03501927  0.035762409            2 
  293000    1.2236986   -7.0151391    123.14855  0.035025184  0.035762839            3 
  294000    1.1964733   -7.0575085    122.96835  0.034854973  0.035763392            1 
  295000    1.2298857   -7.0432574    124.05777  0.035044566  0.035762936            1 
  296000    1.2577351   -7.0409658    124.27647  0.034987746  0.035763787            1 
  297000    1.2138174   -7.0006503    125.00386  0.035074035  0.035764675            1 
  298000    1.2182202   -6.9949146    125.61204   0.03512641  0.035766451            2 
  299000    1.2049269   -7.0520253    125.68264  0.035028605  0.035767608            2 
  300000    1.1933187   -7.0754946    126.07939  0.035022052   0.03576889            2 
  301000    1.2049068    -7.052976    126.69966  0.035077426  0.035771858            2 
  302000    1.1954051   -7.0424805    127.85708  0.035280652  0.035774547            4 
  303000    1.2173173   -7.0085592    127.90703  0.035177951  0.035777553            3 
  304000    1.2062868   -7.0282512    128.41421  0.035201263  0.035779407            1 
  305000    1.2021011   -7.0101887    128.07196   0.03499234  0.035780713            1 
  306000    1.2053294   -7.0242155    129.62634   0.03530129   0.03578216            2 
  307000    1.2042532   -7.0316412    129.08041  0.035038112  0.035783247            1 
  308000    1.1873436   -7.0454549    129.22014  0.034962158  0.035782941            1 
  309000     1.197022   -7.0347633     129.5747  0.034944634  0.035782503            2 
  310000    1.1870902   -7.0256892    130.15299  0.034987363  0.035781574            1 
  311000    1.2095624   -6.9943441    131.07027  0.035120651  0.035781637            1 
  312000    1.2243209   -7.0228573    131.20814  0.035044908  0.035781269            3 
  313000    1.2167657   -7.0451485    131.15256  0.034918148  0.035779885            2 
  314000    1.2176789   -7.0156756    131.65043  0.034939074  0.035777492            4 
  315000    1.1948167   -7.0659453    132.00719  0.034922537  0.035775583            2 
  316000    1.2156262   -7.0247666    132.78395  0.035016865   0.03577327            3 
  317000    1.1881289     -7.07881    132.94057  0.034947572  0.035770299            1 
  318000    1.1886166   -7.0379505    133.21441  0.034909438  0.035766733            3 
  319000    1.2285115   -7.0495549    133.42992  0.034856302  0.035763003            2 
  320000     1.188794   -7.0691654    133.56168  0.034781688  0.035759362            1 
  321000    1.1949154   -7.0571121    134.39568  0.034889843  0.035756893            4 
  322000    1.1975722   -7.0655514    135.01645  0.034942144  0.035755842            2 
  323000    1.2075926   -7.0411451    135.35603  0.034921575  0.035754492            1 
  324000    1.1589092   -7.0241933    135.98121  0.034974591  0.035752267            2 
  325000    1.1891459   -7.0412195    136.72737    0.0350583  0.035751186            2 
  326000    1.1759226   -7.0490974     136.6847  0.034939853  0.035749612            1 
  327000    1.1752381   -7.1023836    136.89073  0.034885507  0.035747745            1 
  328000    1.2110336    -7.043026    137.24562  0.034869314  0.035744868            1 
  329000    1.1897602   -7.0459505    137.51102  0.034830553  0.035741184            4 
  330000    1.1729124   -7.0132301    137.76468  0.034789059  0.035736883            2 
  331000    1.1980872   -7.0855982    138.19513  0.034792329  0.035732137            1 
  332000    1.1781326   -7.0434869     139.6689  0.035057456  0.035729108            1 
  333000    1.2085305   -7.0636858    139.53954  0.034919805  0.035726786            1 
  334000    1.2078551   -7.0669731    139.88464  0.034901356  0.035723798            1 
  335000    1.1943861   -7.0424282    140.32308  0.034906238  0.035720592            2 
  336000    1.1917002   -7.0425429    140.57262  0.034864242  0.035716763            4 
  337000    1.1845192   -7.0623083    141.29508  0.034939436  0.035714392            1 
  338000    1.2069119   -6.9864521    142.36606  0.035100114  0.035713572            1 
  339000    1.2030599   -7.0489076    141.76878  0.034849749   0.03571106            2 
  340000    1.2176571   -7.0781113    142.57578  0.034945044  0.035708181            1 
  341000    1.2106442   -7.0515986    143.32928  0.035026706  0.035705644            1 
  342000    1.2008658   -7.0383976    143.27912  0.034912065  0.035703741            2 
  343000    1.1847995   -7.0206049    144.17967  0.035029075  0.035700857            2 
  344000    1.1874148   -7.0746788    143.90864   0.03486159  0.035697878            1 
  345000    1.2050385   -7.0742457     144.7969  0.034975097  0.035694465            2 
  346000    1.1980571   -7.0836633    144.93878  0.034908184  0.035692106            1 
  347000    1.2051805   -7.0617813    145.16846  0.034862742  0.035688751            1 
  348000    1.2131395   -7.0630059    145.83054  0.034921106  0.035686096            1 
  349000    1.1732587   -7.0475861    146.16137  0.034900041  0.035683875            1 
  350000    1.1952905   -7.0812382    146.13262  0.034793482  0.035680742            2 
  351000    1.1915826   -7.0475101    146.25893  0.034724342  0.035676509            2 
  352000    1.2191405   -7.0611445    147.03515  0.034809459  0.035672058            1 
  353000    1.1962868   -7.0442794    147.60937  0.034846405  0.035667447            2 
  354000    1.1981033   -7.0792332     147.2581  0.034665279  0.035662086            2 
  355000    1.1994429   -7.0194215    148.14926  0.034776821  0.035656278            1 
  356000    1.2002317   -7.0721829    148.11042  0.034670043  0.035649551            3 
  357000    1.1763757   -7.0175765     148.9969  0.034779856  0.035644297            2 
  358000    1.2023719   -7.0930351    149.03632  0.034691881  0.035639007            1 
  359000    1.2009287   -7.0598871    149.48627  0.034699691  0.035633066            1 
  360000    1.2061899   -7.0511651    150.41013  0.034817161  0.035629093            1 
  361000    1.1843653   -7.0525523    150.37139  0.034711771  0.035625571            2 
  362000    1.1812439   -7.0814706    150.84034  0.034723835  0.035620679            2 
  363000    1.1843593     -7.04051    152.34043   0.03497255  0.035617086            2 
  364000     1.198744   -7.0515751    151.77684  0.034747445  0.035613379            2 
  365000    1.1941982   -7.0650325    152.54464  0.034827543  0.035610066            3 
  366000    1.1978076   -7.0970076    152.53124  0.034729334  0.035605551            2 
  367000     1.204602   -7.0470132    152.61971  0.034654794  0.035600511            2 
  368000    1.1726001   -7.0740746    153.68975  0.034802932  0.035595379            1 
  369000    1.1997554   -7.0238753    153.68334  0.034707167  0.035590519            1 
  370000    1.1962378   -7.0348797    154.63236  0.034827108  0.035586025            2 
  371000    1.1929546    -7.062025    154.59338  0.034724478  0.035581847            1 
  372000    1.1767259   -7.0503586    155.76516   0.03489363  0.035577431            1 
  373000    1.2030829    -7.078524    155.12513  0.034657089  0.035573163            2 
  374000    1.1957369    -7.059719    156.07431  0.034775917  0.035568686            1 
  375000    1.1717385   -7.0763896     156.2117   0.03471371   0.03556493            1 
  376000    1.2214843   -7.0656039    157.31636  0.034866215  0.035560943            1 
  377000     1.210928   -7.0625594    157.27901  0.034765475  0.035557066            3 
  378000    1.1838461   -7.0204391    157.89399  0.034809081   0.03555287            1 
  379000    1.2177148   -7.0388266    158.49483  0.034849347  0.035548205            2 
  380000    1.1956623   -7.0334076    158.62421  0.034786011    0.0355439            2 
  381000    1.2316615     -7.02773    158.78691  0.034730295  0.035539741            1 
  382000    1.1761358   -7.0657636    159.37701  0.034768109   0.03553479            1 
  383000    1.1905611   -7.0243996    159.96969  0.034806285  0.035529035            1 
  384000    1.1857918   -7.0447559      159.682  0.034653211  0.035523786            1 
  385000    1.2062657   -7.0606433    160.11436  0.034656789  0.035518273            3 
  386000    1.2064945    -7.055158    160.57488  0.034666426   0.03551292            1 
  387000    1.2073153   -7.0689864    160.81019  0.034627516  0.035506902            2 
  388000    1.2108177   -7.0725588    161.06347  0.034592669  0.035499548            1 
  389000    1.1921963   -7.0348535    161.47814  0.034592575  0.035492138            2 
  390000    1.2104339   -7.0600333    162.32514  0.034684858   0.03548465            2 
  391000    1.2145351     -7.06285    162.12766  0.034554062  0.035477637            1 
  392000    1.1681827   -7.0375072    162.44369  0.034533097  0.035469924            2 
  393000    1.1980942   -7.0695516    162.18246  0.034389835  0.035461844            2 
  394000     1.199013   -7.1325276      162.288  0.034324873  0.035452762            1 
  395000    1.1790834    -7.064274     163.3356  0.034458987  0.035443437            2 
  396000    1.2162635   -7.0311828    163.77828  0.034465126  0.035435502            1 
  397000    1.1696483    -7.082067    164.11597  0.034449197  0.035426668            1 
  398000    1.1576228   -7.0680757    164.11783  0.034363031  0.035417703            2 
  399000    1.1750829   -7.0687456    164.49218  0.034355093  0.035408934            2 
  400000    1.2160444   -7.1105905    164.82285  0.034338093  0.035399595            2 
  401000    1.1896238   -7.0836593    165.33666   0.03435924  0.035390366            1 
  402000    1.1742761    -7.048277    166.18313   0.03444924  0.035380934            3 
  403000    1.1937718   -7.1234127    165.80147  0.034284836  0.035370541            1 
  404000    1.2180883   -7.0830931    166.28816  0.034300362  0.035359506            1 
  405000    1.1915102   -7.0946585    166.45978  0.034250985  0.035348766            1 
  406000    1.1932302   -7.0377953    166.99427  0.034276327  0.035338756            2 
  407000    1.1789075   -7.0452401    167.40766  0.034276753   0.03532836            1 
  408000    1.1754127   -7.0814643    167.88102  0.034289425  0.035317925            2 
  409000    1.1880334   -7.0967216    167.97907  0.034225565  0.035308076            3 
  410000    1.1944216   -7.1059358    167.79217    0.0341041  0.035297763            2 
  411000    1.2121422   -7.0439954    169.13816   0.03429403  0.035287319            3 
  412000    1.1806681    -7.082864    169.38505   0.03426073  0.035276805            2 
  413000    1.1582298   -7.0490927    169.58004  0.034217118  0.035266385            2 
  414000    1.2057476    -7.033172    169.63439  0.034145408  0.035254961            1 
  415000    1.2042375   -7.0466942    169.95554  0.034127618  0.035244046            2 
  416000     1.196351   -7.0877342    170.85304  0.034225368  0.035233708            1 
  417000    1.2182647   -7.1097798    171.62358  0.034297279  0.035224002            1 
  418000    1.1708706   -7.0562529    172.13226   0.03431664  0.035214669            2 
  419000    1.1862489   -7.0480817    172.03691  0.034215775  0.035204621            2 
  420000    1.1927357   -7.0719552    172.00909  0.034128789   0.03519389            1 
  421000    1.1624292   -7.0759957    172.01282  0.034048461  0.035182808            3 
  422000    1.1756959   -7.0374757    172.97229  0.034157246   0.03517242            2 
  423000    1.1778599   -7.0738079    172.89404  0.034061079  0.035161604            1 
  424000    1.1624842    -7.086438    173.31276  0.034063043  0.035151143            1 
  425000    1.2013674   -7.0461881    173.69197  0.034057248  0.035140067            2 
  426000    1.1793234   -7.0725766    173.89874   0.03401775  0.035128608            2 
  427000    1.1929465   -7.0875524    174.65321  0.034085326  0.035117065            3 
  428000     1.188074   -7.0527376    174.59525  0.033994403  0.035105537            2 
  429000    1.1590871   -7.0447392    175.39625  0.034070756  0.035094452            4 
  430000    1.1877131   -7.1159513    175.33212  0.033979092  0.035083115            2 
  431000    1.1824317   -7.0924115    176.10102  0.034048921  0.035072121            1 
  432000    1.1692074   -7.0686726    176.00611  0.033951796   0.03506111            1 
  433000    1.1719992   -7.1266176    176.08482  0.033888533   0.03504935            1 
  434000    1.1860844    -7.053936    176.70318  0.033929182  0.035038171            1 
  435000     1.179313   -7.1104768    177.16972  0.033940559  0.035026498            1 
  436000     1.197248   -7.0652444    177.98112  0.034017798  0.035014005            1 
  437000    1.1747962   -7.0880992    178.34718   0.03400976  0.035003241            2 
  438000    1.1869768   -7.0668165    178.49056  0.033959391  0.034992426            2 
  439000    1.1635319   -7.1049569    178.88709  0.033957306  0.034981238            1 
  440000    1.1876478    -7.065301    179.24686   0.03394827   0.03497058            1 
  441000    1.1657908   -7.1302102    179.80532  0.033976818  0.034960183            1 
  442000     1.180498   -7.0510895     180.8688  0.034100452  0.034950116            1 
  443000    1.1806135   -7.1141449    180.86252  0.034022295  0.034940126            2 
  444000    1.1603616   -7.0783137    181.55306  0.034075275  0.034931213            2 
  445000    1.1722199   -7.0940478    182.11919  0.034104716  0.034923056            2 
  446000    1.1959842   -7.0711032    182.81716  0.034158663  0.034914847            2 
  447000     1.187589   -7.0674117    183.16932  0.034147898  0.034906605            1 
  448000    1.1855696   -7.1029355    183.61338  0.034154275   0.03489888            1 
  449000     1.176866   -7.0846608    183.81895   0.03411636  0.034891383            1 
  450000    1.1615749   -7.1039985    183.93205  0.034061491  0.034883602            2 
  451000    1.1931797   -7.0681154    184.52702  0.034095901  0.034875266            3 
  452000    1.1761658   -7.0887548    185.16576  0.034138231   0.03486765            2 
  453000    1.1780608   -7.0917353     185.0015  0.034032652  0.034859982            1 
  454000    1.1775589   -7.0941202    186.52089  0.034236579  0.034852717            1 
  455000    1.1654767   -7.0830983    186.46697   0.03415146  0.034845732            1 
  456000    1.1660406   -7.0938016    186.33463  0.034052381  0.034838896            3 
  457000    1.1699724   -7.0669141    186.99275  0.034097876  0.034832082            2 
  458000    1.1699487   -7.0533285    188.20374  0.034243767  0.034825818            1 
  459000    1.1803795   -7.0829837    188.49423  0.034221902  0.034819765            2 
  460000    1.1778809   -7.0872606    189.05681  0.034249422  0.034813737            2 
  461000    1.1928242   -7.0546814    189.33521  0.034225453  0.034808091            1 
  462000    1.1709688    -7.086124    189.32832  0.034150129  0.034801842            2 
  463000    1.1744693    -7.088306    189.65417   0.03413502  0.034796236            1 
  464000    1.1769204   -7.1077684    190.45072  0.034204511  0.034790396            1 
  465000    1.1779668   -7.0908303    191.29232  0.034281778   0.03478471            2 
  466000     1.194135   -7.0987588    191.08263  0.034170713  0.034779245            2 
  467000    1.2179544   -7.1189341    190.99583  0.034082054  0.034773437            1 
  468000    1.1874416   -7.0959535    191.84631  0.034160668  0.034767261            3 
  469000    1.1674544   -7.0434388    192.36503  0.034179999  0.034761046            2 
  470000    1.1679425   -7.0545018    192.69058  0.034164997  0.034754842            1 
  471000     1.169334   -7.0836215    192.59205  0.034075027  0.034748452            1 
  472000    1.1780847   -7.0497106    193.12154  0.034096317  0.034741417            1 
  473000    1.1532084   -7.1276749    193.32886  0.034060758  0.034734748            3 
  474000    1.1700197   -7.0716875    193.85021  0.034080557  0.034727214            3 
  475000     1.148314    -7.102408      193.523  0.033951404  0.034719832            1 
  476000    1.1652166   -7.0764553     194.3295   0.03402127  0.034711985            1 
  477000    1.1814723   -7.1123401    194.45527   0.03397192  0.034704779            1 
  478000    1.1879601   -7.1358363    194.95683   0.03398829  0.034697142            1 
  479000    1.1710663   -7.0941156    195.81995  0.034067493  0.034690074            1 
  480000    1.1658399   -7.0815154    196.19877  0.034062286  0.034682987            2 
  481000    1.1760564   -7.0788151    196.67943  0.034074745   0.03467742            1 
  482000    1.1729759   -7.0914047    197.18017  0.034090624  0.034671813            1 
  483000    1.1605553    -7.120182    197.58111  0.034089219  0.034665544            2 
  484000    1.1837616   -7.0818503    197.95696  0.034083498  0.034659618            1 
  485000    1.1777642   -7.0881765    198.16421  0.034048833  0.034653738            2 
  486000     1.188807   -7.0925562    197.88067  0.033930157  0.034647517            1 
  487000      1.17887   -7.1223337    197.63561   0.03381855  0.034639657            1 
  488000    1.1853146   -7.0955586    198.23747  0.033852027  0.034631152            2 
  489000    1.1622476    -7.135849    198.68662  0.033859342  0.034622753            6 
  490000    1.2078209   -7.1436201     198.8235  0.033813521  0.034614579            1 
  491000    1.1461001   -7.1174288    199.73297   0.03389901  0.034606539            1 
  492000    1.1273592   -7.0978582    200.10538  0.033893188  0.034598515            2 
  493000    1.1644976   -7.0937588    200.84364  0.033949228  0.034590552            1 
  494000    1.1710895    -7.087782    201.45062  0.033982899  0.034583145            2 
  495000    1.1726716   -7.1029983    201.18431  0.033869412  0.034575581            2 
  496000    1.1751297   -7.0888091    201.78196   0.03390154  0.034568526            1 
  497000    1.2059414   -7.0887377    202.45838  0.033946744  0.034561436            3 
  498000    1.1781549   -7.1480281    202.29019  0.033850433   0.03455372            1 
  499000    1.1501887   -7.0755085    202.99751  0.033900721  0.034546156            1 
  500000    1.1959753   -7.0988014    203.12603  0.033854338  0.034538608            3 
  501000    1.1814404   -7.0766316    204.15693  0.033958238  0.034531958            1 
  502000    1.1907382   -7.0952226    203.86922  0.033842831  0.034525093            2 
  503000     1.155282   -7.1253167    204.53499  0.033885851  0.034518231            1 
  504000    1.1824372   -7.0322695    206.25626  0.034103218  0.034512203            1 
  505000     1.186563   -7.0961444    205.63578  0.033933298  0.034505844            3 
  506000    1.1546877   -7.0683877    205.57376   0.03385602  0.034499001            1 
  507000    1.1808952   -7.1175313    206.82507  0.033994916  0.034492633            1 
  508000    1.1769639   -7.0934004    207.29683  0.034005386  0.034486034            1 
  509000    1.1797493   -7.0704874    207.85809  0.034030467  0.034479962            2 
  510000    1.1672308   -7.1154384    207.70376  0.033938523  0.034473788            2 
  511000    1.1883616    -7.125879    208.19468  0.033952165  0.034468272            1 
  512000    1.1825225    -7.110825    209.17586   0.03404555  0.034463364            2 
  513000    1.1720769   -7.0978845    209.02405  0.033954524  0.034457897            1 
  514000    1.1639196   -7.0761294    209.68406   0.03399547  0.034452418            1 
  515000    1.1615351   -7.1084198    209.48986  0.033898036  0.034446484            1 
  516000    1.1757401   -7.1305972    209.90165  0.033898845   0.03444056            1 
  517000    1.1732829   -7.0874902    210.62689  0.033950176  0.034434592            1 
  518000    1.1699258   -7.1323694    211.06595  0.033955268  0.034429468            1 
  519000    1.1508062   -7.0786506    212.01726  0.034042592  0.034423968            1 
  520000    1.1648152   -7.0918087    211.98896   0.03397259  0.034418396            2 
  521000    1.1480143    -7.062532      212.203  0.033941619  0.034412623            2 
  522000    1.1631557   -7.1010592    212.81025  0.033973539  0.034406824            1 
  523000    1.1736544   -7.0980876    212.81938  0.033910035  0.034401306            1 
  524000     1.173388   -7.0935671    213.69208   0.03398411  0.034395869            1 
  525000    1.1701242   -7.0651708    214.75493  0.034088084  0.034390532            2 
  526000    1.1748267   -7.0952764    214.38208  0.033964209  0.034385668            1 
  527000    1.1779065    -7.103402    213.92405  0.033827332   0.03438091            3 
  528000    1.1790366   -7.0868533    213.82014  0.033746865    0.0343748            1 
  529000    1.1702445    -7.088793    214.89409  0.033852251  0.034368802            1 
  530000    1.1488948   -7.1194289    215.97185  0.033957838  0.034363509            2 
  531000    1.1584578   -7.1392778    216.12427  0.033917808  0.034358374            2 
  532000    1.1678561    -7.073232    216.90013  0.033975584  0.034353087            1 
  533000     1.193114   -7.1032642    216.94292  0.033918531  0.034348363            1 
  534000    1.1643361   -7.1157838    217.38505   0.03392401  0.034343808            2 
  535000    1.1604054   -7.1035558     217.6294  0.033898661   0.03433935            1 
  536000    1.1596189   -7.1357025     218.1549  0.033917118  0.034334287            1 
  537000    1.1567892   -7.0879942    218.91753  0.033972305  0.034329046            2 
  538000    1.1645916    -7.130033     218.6809  0.033872505  0.034324286            1 
  539000    1.1484416   -7.1353685    219.28864  0.033903624  0.034319238            3 
  540000    1.1298236   -7.1368024    219.05693  0.033805082    0.0343146            3 
  541000     1.166304   -7.1266219    220.04781  0.033895226  0.034309162            1 
  542000    1.1766894   -7.1529228    219.43171  0.033737962  0.034303619            2 
  543000     1.177522   -7.1320079    220.46258  0.033834036  0.034298155            1 
  544000    1.1853159   -7.1037956    221.19076  0.033883389  0.034292227            2 
  545000    1.1787701   -7.0922176    221.04449  0.033798851  0.034286623            1 
  546000    1.1839873   -7.1491075    220.18033  0.033605056    0.0342804            1 
  547000    1.1595154   -7.1294223    221.31221  0.033716058  0.034273965            1 
  548000    1.1689482   -7.0996456    222.61691  0.033852936  0.034267812            1 
  549000    1.1818262   -7.1018523    222.20387  0.033728578  0.034261357            1 
  550000    1.1616715   -7.1181896    222.99931  0.033787774  0.034255965            2 
  551000    1.1691404   -7.1198584    223.46849  0.033797412  0.034250324            1 
  552000     1.170547    -7.143944    223.11962  0.033683517  0.034244301            1 
  553000    1.1433066   -7.1466324    223.42248  0.033668246  0.034238518            1 
  554000    1.1856847   -7.1163848    223.87493  0.033675532  0.034233051            1 
  555000     1.175036   -7.1495255    224.67316  0.033734708  0.034227209            2 
  556000    1.1374734   -7.1038062    224.85689  0.033701572  0.034221152            3 
  557000    1.1695765   -7.1433308    225.65139  0.033759932  0.034215631            2 
  558000    1.1436584   -7.1288726    225.64384  0.033698304  0.034210133            3 
  559000    1.1573117   -7.1057705    227.10794  0.033856283   0.03420484            1 
  560000    1.1630765   -7.0783015      227.488  0.033852381  0.034200294       -1e+20 
  561000    1.1629354   -7.1045898    227.88009   0.03385028  0.034195683            1 
  562000     1.160032   -7.1679527    227.35481  0.033712161  0.034190839            1 
  563000    1.1299235   -7.1438223    228.57087  0.033832278  0.034186219            1 
  564000    1.1573535   -7.1419916    229.14933  0.033857762  0.034181979            1 
  565000    1.1441592    -7.126946    229.43685  0.033840244  0.034177927            1 
  566000    1.1665677   -7.1218338    228.69255  0.033670871   0.03417325            2 
  567000    1.1853091   -7.1532377    229.04459  0.033663225  0.034167413            3 
  568000    1.1623377   -7.1479326    230.20347  0.033773983   0.03416167            1 
  569000     1.165054   -7.0964299    230.08843  0.033697779  0.034155943            1 
  570000    1.1605372     -7.13584    230.99517  0.033771224  0.034150386            2 
  571000    1.1550953   -7.1598906    229.91979  0.033555136  0.034144896            1 
  572000    1.1578617   -7.0964449    230.99332  0.033652872  0.034139475            1 
  573000    1.1354672   -7.1387246    231.51118  0.033669456  0.034134268            1 
  574000    1.1709434    -7.153207    231.37026  0.033590339  0.034128311            1 
  575000    1.1658338   -7.1310423    231.61372  0.033567206  0.034122599            1 
  576000    1.1639269   -7.1291972    232.75574  0.033674153  0.034116938            2 
  577000    1.1566219   -7.1645513    231.75501  0.033471261  0.034111119            2 
  578000    1.1895547   -7.1312174    232.19365  0.033476593  0.034104274            1 
  579000    1.1759246   -7.1396207    233.06983   0.03354488  0.034097431            1 
  580000    1.1754287    -7.090045    234.24299  0.033655602  0.034090767            1 
  581000    1.1508823   -7.0959008    233.90005  0.033548487  0.034083862            1 
  582000    1.1683951   -7.1312648    234.12515  0.033523074  0.034077118            1 
  583000     1.177045   -7.1330983    234.19914  0.033476149  0.034070163            1 
  584000    1.1654668   -7.1393364    235.31011  0.033577355  0.034062788            1 
  585000    1.1658033   -7.1287629    235.09762  0.033489689  0.034055393            1 
  586000    1.1394353   -7.1657617    235.06509  0.033427914  0.034047529            1 
  587000    1.1585696   -7.1872784    234.38963  0.033275075  0.034039364            1 
  588000    1.1465041   -7.1530401    235.79412  0.033417534  0.034031556            2 
  589000    1.1720939   -7.1286977    237.07173  0.033541557  0.034024301            1 
  590000     1.187096   -7.1690748    236.70259  0.033432569  0.034016928            2 
  591000    1.1439796    -7.118032    237.22738  0.033449998  0.034009556            1 
  592000    1.1611391    -7.129035    238.04945  0.033509213   0.03400238            1 
  593000    1.1597556    -7.139083    237.92782  0.033435613  0.033994956            1 
  594000    1.1522864   -7.1603114     237.3895  0.033303802  0.033987531            1 
  595000      1.13815   -7.1553094    238.44463  0.033395606   0.03398018            3 
  596000    1.1685354   -7.1257686    238.56848  0.033356891  0.033972788            1 
  597000    1.1368291   -7.1591182    238.78022  0.033330572  0.033965266            2 
  598000    1.1355054   -7.1061474    239.33289  0.033351852  0.033957745            1 
  599000    1.1232613   -7.1851743    239.58344  0.033331029  0.033950186            1 
  600000    1.1345252   -7.1654981    239.83894  0.033310964  0.033942467            2 
  601000    1.1392425    -7.124023    240.51568  0.033349373  0.033934706            2 
  602000    1.1607178   -7.1337259    240.90221  0.033347482  0.033926966            2 
  603000    1.1671023   -7.1832526    240.83485  0.033282871  0.033919125            1 
  604000    1.1739389    -7.128348    241.36024  0.033300254  0.033910824            1 
  605000    1.1386449   -7.1455025    240.86951  0.033177618  0.033902663            1 
  606000    1.1774024   -7.1407251    241.81252  0.033252547  0.033894532            1 
  607000    1.1725169    -7.125385    241.65211  0.033175743  0.033885939            1 
  608000    1.1538926   -7.1101097    242.03006  0.033172979  0.033877496            4 
  609000    1.1306644   -7.1104451    242.45965  0.033177292  0.033868747            2 
  610000    1.1776174    -7.135389    242.74135  0.033161387  0.033860056            3 
  611000    1.1220557   -7.1414381    242.51406  0.033076113  0.033851141            6 
  612000    1.1513588   -7.1385964      242.956  0.033082245  0.033841484            2 
  613000     1.175647   -7.1770755    242.21841  0.032928005  0.033831647            1 
  614000    1.1596274   -7.1295108    243.11359  0.032995872  0.033821446            1 
  615000    1.1319474   -7.1586978    243.05836  0.032934737  0.033810942            1 
  616000    1.1665878   -7.1854389    243.26384  0.032909069  0.033800961            2 
  617000    1.1314515   -7.1461593     244.1123  0.032970327  0.033790814            2 
  618000    1.1444587   -7.1155039    245.79259  0.033143553  0.033781311            2 
  619000    1.1567462   -7.1192353    247.00021  0.033252586  0.033772928            2 
  620000    1.1535136   -7.1080334    246.67208   0.03315485  0.033764485            1 
  621000    1.1650289   -7.1057083    246.84707  0.033124942  0.033756188            1 
  622000    1.1472606   -7.1298473    246.78292  0.033063093  0.033747688            2 
  623000    1.1470562   -7.1557311    246.37507  0.032955467  0.033738949            4 
  624000    1.1356027   -7.1921364    246.68418  0.032943934   0.03373024            1 
  625000     1.177544   -7.1272887    248.28862  0.033105149  0.033721427            1 
  626000    1.1555829   -7.1119199    249.43257  0.033204549  0.033713556            1 
  627000    1.1421425   -7.1620887    249.29058   0.03313272  0.033705814            5 
  628000    1.1478286   -7.2031296    248.63945  0.032993558  0.033697707            5 
  629000     1.116772   -7.1446026    249.88634  0.033106299  0.033689344            1 
  630000    1.1522961   -7.1623834    249.90211  0.033055835  0.033681264            1 
  631000    1.1545308   -7.0670307    250.03713   0.03302128  0.033672909            2 
  632000     1.138357   -7.1774216    250.95438  0.033089977   0.03366492            2 
  633000    1.1679195    -7.166737     250.8548  0.033024591  0.033656954            2 
  634000    1.1449032   -7.1230602    251.28515  0.033029068  0.033649109            1 
  635000    1.1463784   -7.1619535    251.48121  0.033002784  0.033641416            2 
  636000    1.1451688   -7.1672936    252.42784  0.033074927  0.033633817            1 
  637000    1.1510464   -7.1538277    252.74522  0.033064524  0.033626258            1 
  638000    1.1490781   -7.1883694     252.5701  0.032989825  0.033618462            1 
  639000    1.1589543   -7.1304151    254.12762  0.033141317  0.033611509            2 
  640000    1.1623716   -7.1341327     254.5148  0.033139948  0.033604601            1 
  641000    1.1540016   -7.1275532     253.8521  0.033002092   0.03359693            1 
  642000    1.1545789    -7.195021     253.2898    0.0328777  0.033588932            2 
  643000    1.1556541   -7.1327687    254.51517  0.032985377  0.033580607            1 
  644000     1.145873   -7.2141046    253.28847  0.032775423  0.033571799            2 
  645000     1.164782   -7.1528732     254.7859  0.032918075  0.033563361            1 
  646000    1.1321879   -7.1261207    256.26148  0.033057466   0.03355554            2 
  647000    1.1529855   -7.1228231    256.01415  0.032974517  0.033547518            1 
  648000    1.1380879   -7.1859797    255.96304  0.032917058  0.033539113            2 
  649000     1.141567   -7.1715484    256.41844  0.032924813  0.033531077            1 
  650000     1.130961   -7.1665162    256.70869  0.032911371  0.033522622            1 
  651000    1.1752041   -7.1599284    256.65298  0.032853683  0.033515045            1 
  652000    1.1455663   -7.1571503    258.24279  0.033006492  0.033507767            2 
  653000    1.1449647   -7.1411574    259.01078  0.033053953  0.033500848            3 
  654000    1.1466657   -7.1637954    259.48547  0.033063898  0.033493796            1 
  655000     1.144198   -7.0998847    259.36267  0.032997795  0.033486717            2 
  656000    1.1663437   -7.1821532    259.50145  0.032965123  0.033479488            1 
  657000    1.1371188   -7.1506478    260.27981  0.033013675  0.033471947            2 
  658000    1.1275298   -7.1278189    260.94925  0.033048283  0.033464696       -1e+20 
  659000    1.1220044   -7.1097294    260.39977  0.032928651  0.033457312            1 
  660000    1.1426448   -7.1085922    261.43869  0.033009935  0.033449669            1 
  661000    1.1348546   -7.1813393    260.84801  0.032885528  0.033442063            1 
  662000    1.1626206   -7.1662333    261.67594  0.032940073  0.033434895            2 
  663000    1.1653752   -7.1650544    262.70815   0.03302013  0.033427946            2 
  664000     1.133644   -7.1685241    262.49114  0.032943165  0.033421119            1 
  665000    1.1281249   -7.1629526    262.99954  0.032957335  0.033413862            2 
  666000    1.1506922   -7.1934419    263.27688  0.032942552  0.033406616            1 
  667000    1.1327663   -7.1296549    264.10279  0.032996351  0.033399804            5 
  668000    1.1481184   -7.1998083     263.1637  0.032829803  0.033392605            2 
  669000     1.165078    -7.174131    264.28548  0.032920464  0.033385189            1 
  670000    1.1436748   -7.1376009    264.61467  0.032912273  0.033378376            2 
  671000    1.1400112   -7.1896338    264.71841  0.032876107   0.03337137            1 
  672000    1.1324257   -7.2057869    264.95411  0.032856413  0.033364224            3 
  673000    1.1387164   -7.1483537    266.47789  0.032996272  0.033357261            1 
  674000    1.1504182    -7.174498    266.74248   0.03298003  0.033350724            1 
  675000    1.1274521   -7.1029083    266.66213  0.032921251  0.033343927            2 
  676000    1.1523025   -7.1356401    267.32951  0.032954821   0.03333694            2 
  677000    1.1235023   -7.1764856    267.00669  0.032866407  0.033329902            1 
  678000    1.1564325   -7.2044177    266.37621  0.032740439  0.033322714            1 
  679000    1.1840816   -7.2013821    267.35931  0.032812875  0.033315349            2 
  680000    1.1341391   -7.1815709    266.80229  0.032696359  0.033308236            1 
  681000    1.1482928   -7.1159695    268.31603  0.032833582  0.033301091            1 
  682000    1.1415099   -7.1474148    268.97257  0.032865661  0.033294272            1 
  683000    1.1256842   -7.1499419    269.10823  0.032834093  0.033287303            3 
  684000    1.1265167   -7.1779699    268.98463  0.032771032  0.033279667            3 
  685000    1.1352966   -7.1708569    269.71256  0.032811747   0.03327229            1 
  686000    1.1384466   -7.1674927    269.54422  0.032743468  0.033264629            4 
  687000    1.1668978   -7.1763066     270.2248   0.03277836  0.033256825            1 
  688000     1.126257   -7.1794995    269.97382  0.032700317  0.033249031            6 
  689000    1.1302566   -7.1555326    271.05488  0.032783609  0.033241757            1 
  690000    1.1304063    -7.195053    270.21089  0.032634165   0.03323477            2 
  691000    1.1482661   -7.1518657    271.54949  0.032748371  0.033227021            2 
  692000    1.1374241   -7.1766421    271.87422  0.032740152    0.0332195            1 
  693000    1.1367626   -7.1386942    271.45548  0.032642554  0.033211773            3 
  694000    1.1355075   -7.1515871    271.75604  0.032631609   0.03320393            1 
  695000    1.1254234   -7.1714409    272.12406  0.032628784  0.033195828            3 
  696000     1.148836   -7.1921049    272.54216  0.032631964  0.033188081            4 
  697000    1.1447408   -7.1721481     273.7869  0.032733967  0.033180191            1 
  698000    1.1225159   -7.1466764    272.79174  0.032568259  0.033171997            1 
  699000    1.1558311   -7.1457739    274.32825  0.032704847  0.033164274            1 
  700000    1.1507145   -7.1400363    273.95027  0.032613127  0.033156355            2 
  701000    1.1259707   -7.2004104    273.76203  0.032544226  0.033148124            2 
  702000    1.1434459   -7.1368727     275.1985  0.032668388  0.033140383            1 
  703000     1.146742   -7.1691258    274.75938  0.032569865  0.033132169            1 
  704000     1.139433   -7.1605914    275.64465  0.032628391   0.03312467            3 
  705000    1.1337506   -7.1632281    275.73938  0.032593308   0.03311711            1 
  706000    1.1300262   -7.1488801    276.88071  0.032681859  0.033109623            1 
  707000    1.1357745   -7.1753193    276.71555  0.032616165  0.033101961            1 
  708000    1.1459848   -7.1500599    277.78587  0.032696077  0.033094365            3 
  709000    1.1268406   -7.1787473    277.25139   0.03258714  0.033086921            2 
  710000    1.1167587   -7.1588276    277.90928  0.032618461  0.033079186            2 
  711000    1.1375606   -7.2066514    277.05685  0.032472674  0.033071322            1 
  712000    1.1433642   -7.1933577    277.23528   0.03244795  0.033063254            3 
  713000    1.1588263   -7.2006656    277.35336  0.032416241  0.033055513            3 
  714000    1.1207477    -7.192686    279.01116  0.032564328  0.033047922            1 
  715000    1.1319872   -7.1744857    279.38799  0.032562703  0.033040185            1 
  716000    1.1270878   -7.1877699    278.62003  0.032427844  0.033031999            2 
  717000    1.1506367   -7.2348197    278.59721  0.032379964  0.033023423            1 
  718000    1.1111544    -7.195007    279.53865  0.032444132  0.033015332       -1e+20 
  719000    1.1439591   -7.2046071    279.75921  0.032424572  0.033007517            1 
  720000    1.1433921   -7.1945501    280.91805  0.032513663  0.032999892            2 
  721000    1.1355238   -7.2180347    280.73899  0.032447872   0.03299205            1 
  722000     1.152735   -7.2126093    280.42843  0.032367085  0.032983938            2 
  723000    1.1579375    -7.221014    281.64325  0.032462338  0.032975636            2 
  724000    1.1426547   -7.2033021    281.94879   0.03245267  0.032967427            3 
  725000    1.1235845   -7.1644834    282.28433  0.032446474  0.032959176            1 
  726000    1.1458767   -7.1919786    282.25876  0.032398847  0.032951014            3 
  727000    1.1232451   -7.2105197    282.77064  0.032412957  0.032942854            2 
  728000    1.1047544   -7.1749835    282.75179  0.032366276  0.032934637            2 
  729000    1.1412353   -7.1851146    283.66908  0.032426735  0.032926213            2 
  730000    1.1492573   -7.1590933     282.8889  0.032293253  0.032917848            1 
  731000    1.1326781   -7.1712643    283.95687  0.032370824  0.032909646            2 
  732000    1.1159185   -7.1581137     284.5794  0.032397473  0.032901719            2 
  733000    1.1165879    -7.188434    284.90836  0.032390673  0.032893985            1 
  734000    1.1357291   -7.1972874    284.65115  0.032317342  0.032886022            1 
  735000    1.1301863   -7.2087828    284.20355  0.032222624  0.032877463            2 
  736000    1.1406228   -7.1895989    286.25701  0.032411346  0.032869341            2 
  737000    1.1204631   -7.1716931    286.18034    0.0323587  0.032861419            1 
  738000    1.1164006   -7.1795111    285.46732  0.032234341  0.032853263            4 
  739000    1.1478338   -7.1687137    286.81635  0.032342845  0.032845113            2 
  740000    1.1339238   -7.1641074    287.03859  0.032324165  0.032837365            2 
  741000     1.131277   -7.1437304    286.83322  0.032257447  0.032829675            4 
  742000    1.1407699   -7.1894063    287.92647  0.032336756  0.032821726            1 
  743000    1.1385268   -7.1536483    289.01597   0.03241543   0.03281398       -1e+20 
  744000    1.1270023   -7.2125647    287.92214  0.032249344  0.032806193            1 
  745000    1.1170091   -7.1896195    288.69355  0.032292343  0.032798041            2 
  746000    1.1470467   -7.2118454    289.20348  0.032306019  0.032790035            2 
  747000    1.1484922   -7.2126122    288.67196  0.032203476  0.032781901            1 
  748000    1.1266413   -7.1984543    289.46257  0.032248504   0.03277416            2 
  749000    1.1144353    -7.205831    290.43235  0.032313345  0.032766569            1 
  750000    1.1351322   -7.1707768    290.66066  0.032295628  0.032758863            3 
  751000    1.1486799   -7.2132107    290.24289  0.032206268  0.032751138            2 
  752000    1.1328864   -7.1727825     291.4278  0.032294747  0.032743322            1 
  753000     1.113504    -7.200132    291.61575  0.032272659  0.032735787            1 
  754000     1.110897   -7.2005193    290.84205  0.032144347  0.032728033            2 
  755000    1.1437447   -7.2165497    292.23142  0.032255124  0.032719737            3 
  756000    1.1353531   -7.2026955    292.27308   0.03221705  0.032711535            1 
  757000    1.1278568   -7.1780027      293.143  0.032270256  0.032703622            1 
  758000    1.1489623   -7.1842963     293.3185  0.032246977  0.032696314            2 
  759000    1.1239602    -7.201464    293.83936  0.032261678  0.032688986            1 
  760000    1.1151321   -7.1713782     294.8226   0.03232704  0.032681551            2 
  761000    1.1340231   -7.2361321    294.59086  0.032259183  0.032674445            3 
  762000    1.1374339   -7.1753839      295.895   0.03235947  0.032667331            1 
  763000    1.1082739   -7.1894017    295.29544  0.032251577  0.032659868            1 
  764000    1.1303414   -7.2260524    294.63637  0.032137475   0.03265239            2 
  765000    1.1425975   -7.1838042    295.74405  0.032216128  0.032645146            1 
  766000    1.1393611   -7.1557117    296.31411  0.032236087  0.032637549            1 
  767000    1.1238367    -7.206159    295.99402  0.032159281  0.032630077            4 
  768000    1.1151993   -7.2050377     295.8444  0.032101172  0.032621914            1 
  769000    1.1293448   -7.2080589     295.7283  0.032046846  0.032613545            1 
  770000    1.1238005   -7.2145318    295.70611  0.032002825  0.032605266            2 
  771000    1.1240877   -7.2356928    296.05956   0.03199952  0.032596747            3 
  772000    1.1210775   -7.2133504    297.34884  0.032097241  0.032587981            1 
  773000    1.1230519    -7.187555    297.88106  0.032113094  0.032579673            2 
  774000    1.1157656   -7.1718722    297.82163  0.032065206  0.032571555            2 
  775000    1.1181329   -7.2120336    298.43858   0.03209017  0.032563603            2 
  776000    1.1309066   -7.2139701    299.60323  0.032173886  0.032555717            2 
  777000    1.1348347   -7.2096004    299.25998  0.032095665  0.032548363            2 
  778000    1.1299116   -7.2168619    298.98239  0.032024677  0.032540656            3 
  779000    1.1405205   -7.2104455    299.30579  0.032018164  0.032532951            2 
  780000    1.1039031    -7.224298    300.26679  0.032079785  0.032525437            1 
  781000    1.1171248   -7.2220545    300.46572  0.032059936   0.03251769            3 
  782000    1.1082278   -7.1754562    301.58465  0.032138177  0.032510065            1 
  783000    1.1196275    -7.212487    301.11557  0.032047208  0.032502537            2 
  784000    1.1136097    -7.229866    302.14869  0.032116145  0.032495242            2 
  785000     1.119271   -7.1930227    302.76069    0.0321402  0.032488238            4 
  786000    1.1286592   -7.2055773    302.84268  0.032108003  0.032481389            3 
  787000    1.1479096   -7.1920557    303.52197  0.032139132  0.032474203            1 
  788000    1.1069042   -7.2188081    302.91124   0.03203376  0.032466997            1 
  789000    1.1379343   -7.2236605    303.82406  0.032089571  0.032460144            2 
  790000    1.1362933   -7.2009966    304.97421  0.032170275  0.032453043            1 
  791000    1.1582549    -7.220853     304.6679  0.032097335  0.032446192            2 
  792000    1.1230833    -7.174278    305.95642  0.032192384  0.032439099            1 
  793000    1.1645069   -7.2176908    305.01592  0.032052955  0.032432137            1 
  794000    1.1207109   -7.2204192    305.47401  0.032060664   0.03242472            2 
  795000    1.1328315   -7.2141469    306.24574   0.03210123  0.032417298            2 
  796000    1.1244209   -7.2100539     305.2023  0.031951664  0.032409824            1 
  797000    1.1239023   -7.1885912    306.12016  0.032007545  0.032402459            2 
  798000    1.1375834   -7.2164711    306.21831  0.031977684  0.032394842            1 
  799000    1.1483098   -7.2167096    306.14338  0.031929848  0.032387596            3 
  800000    1.1530651   -7.2130512    307.45733  0.032026805  0.032380209            1 
  801000    1.1274956    -7.221086    307.96527  0.032039666  0.032373154            1 
  802000    1.1308588   -7.2407762    307.50585  0.031951979  0.032366064            1 
  803000    1.1230041   -7.2155015    308.11492  0.031975396  0.032358738            3 
  804000    1.1217515   -7.1801352    309.23054  0.032051259  0.032351497            1 
  805000     1.097621   -7.2017398     308.9228  0.031979586  0.032344331            1 
  806000    1.1379116   -7.2456112    308.23825  0.031869132   0.03233722            2 
  807000    1.1375228   -7.2391398    308.68181  0.031875445  0.032329967            2 
  808000    1.1320429   -7.2162897    310.03776  0.031975841   0.03232278            4 
[...]
 4800000    0.4868649   -8.7096748     640.8897  0.011126557 0.0094744168            1 
 4801000   0.48642366   -8.7128994    640.03893  0.011109472 0.0094712414            2 
 4802000   0.47567456   -8.7201515    640.33244  0.011112253 0.0094680684            1 
 4803000   0.48201595   -8.7229497    640.52676   0.01111331 0.0094648956            1 
 4804000   0.48532965   -8.7312061    640.86483  0.011116861 0.0094617265            2 
 4805000   0.48789102   -8.7191972    640.77152   0.01111293 0.0094585578            2 
 4806000   0.48857654   -8.7165974    640.76755  0.011110548 0.0094553898            2 
 4807000   0.48203559   -8.7039028    640.16935  0.011097867  0.009452223            1 
 4808000   0.47694502   -8.7073701    639.52999  0.011084477 0.0094490589            1 
 4809000   0.47237445    -8.710873    640.85505  0.011105134 0.0094458964            2 
 4810000   0.47653706   -8.7109639     640.9856  0.011105087 0.0094427344            1 
 4811000   0.48603568   -8.7189102    639.91462  0.011084227 0.0094395735            2 
 4812000   0.47583115   -8.7255766    640.82384   0.01109767 0.0094364134            1 
 4813000   0.48642426   -8.7193458    640.43872  0.011088696 0.0094332572            2 
 4814000   0.47863199   -8.7092106     640.7506  0.011091791 0.0094301032            1 
 4815000   0.47732226   -8.7024116      640.653  0.011087799 0.0094269485            1 
 4816000   0.48134776   -8.7167933     639.8942  0.011072366 0.0094237963            2 
 4817000   0.47197416    -8.713327    640.92868  0.011087964 0.0094206413            3 
 4818000   0.48027994   -8.7119767    640.92065  0.011085524 0.0094174893            3 
 4819000   0.48914291    -8.728676    641.21236  0.011088268  0.009414337            1 
 4820000   0.48909007   -8.7156169    640.04129  0.011065721 0.0094111875            3 
 4821000   0.47316309   -8.7226016    639.83835  0.011059918 0.0094080377            2 
 4822000   0.48115947   -8.7214592    640.04826  0.011061252 0.0094048911            2 
 4823000   0.47744213   -8.7118398    640.48272  0.011066465 0.0094017448            3 
 4824000   0.48252449   -8.7218265    640.02908  0.011056334 0.0093986016            2 
 4825000   0.48434581   -8.7054006    641.33329  0.011076568 0.0093954601            2 
 4826000   0.47967092   -8.7059044    640.59693  0.011061558 0.0093923185            1 
 4827000   0.49199529   -8.7192142    640.23018  0.011052934 0.0093891788            1 
 4828000   0.47955653   -8.7131516    640.72017  0.011059103 0.0093860399            2 
 4829000   0.48054842   -8.6999054    639.67822  0.011038832 0.0093829026            2 
 4830000   0.48108819    -8.724471    640.65213  0.011053349 0.0093797669            2 
 4831000   0.48029572   -8.7379408    640.15597  0.011042503 0.0093766329            1 
 4832000   0.46653863   -8.7281977    640.12745  0.011039726 0.0093734988            1 
 4833000   0.47348822   -8.7326913    640.18817  0.011038488 0.0093703677            1 
 4834000   0.48023097   -8.7062402    639.76495  0.011028909 0.0093672364            2 
 4835000   0.47303684   -8.7310667    640.72305  0.011043141 0.0093641077            2 
 4836000   0.48706179   -8.7161906    639.50056  0.011019792 0.0093609786            2 
 4837000   0.47999189    -8.729985    640.29543  0.011031208  0.009357848            1 
 4838000    0.4734551    -8.702195    639.88768  0.011021904 0.0093547208            2 
 4839000   0.47556617   -8.7165415    638.74525  0.010999953 0.0093515922            2 
 4840000   0.47106997   -8.7224364    640.40504  0.011026258  0.009348471            3 
 4841000   0.47423723   -8.7345839    640.35069  0.011023044 0.0093453466            5 
 4842000   0.48352096   -8.7372998    641.38552  0.011038578  0.009342228            1 
 4843000    0.4771211   -8.7308242    640.00147  0.011012483 0.0093391081            2 
 4844000   0.47297228    -8.725914    641.42505    0.0110347 0.0093359941            3 
 4845000   0.47544345   -8.7311104    640.30529  0.011013163 0.0093328808            2 
 4846000   0.47836425   -8.7111432    639.00845  0.010988589 0.0093297654            1 
 4847000   0.48253583   -8.7245041     640.7431  0.011016146  0.009326654            2 
 4848000   0.47750492   -8.7252541    641.33017  0.011023965 0.0093235449            1 
 4849000   0.46557354   -8.7416865    641.00059  0.011016027 0.0093204347            3 
 4850000   0.48274116    -8.723172    640.69355   0.01100848 0.0093173267            3 
 4851000   0.48035153   -8.7267722    639.35736  0.010983257 0.0093142164            2 
 4852000    0.4785705   -8.7239453      640.581  0.011002009 0.0093111127            2 
 4853000   0.48693704   -8.7243666    640.21779  0.010993505 0.0093080083            1 
 4854000   0.47364773   -8.7288781    639.76523  0.010983471 0.0093049047            3 
 4855000   0.48295311   -8.7351255    640.38795  0.010991898 0.0093018057            1 
 4856000   0.48201725   -8.7170402    639.99372  0.010982869 0.0092987037            1 
 4857000   0.48648793   -8.7290187    640.34829  0.010986691 0.0092956018            2 
 4858000   0.47129864   -8.7205751    639.77786  0.010974644 0.0092925026            2 
 4859000    0.4738978   -8.7488906    639.80168  0.010972794 0.0092894027            2 
 4860000   0.46626888   -8.7368356    639.65428  0.010968009 0.0092863063            2 
 4861000   0.46776849   -8.7085995    641.41515   0.01099594 0.0092832129            2 
 4862000   0.46233934   -8.7243035    639.77288   0.01096553 0.0092801204            2 
 4863000   0.47599163   -8.7209082    640.31507  0.010972566 0.0092770281            2 
 4864000   0.46897854   -8.7330373    640.71082   0.01097709 0.0092739357            2 
 4865000   0.47813934   -8.7154689    639.96296  0.010962024 0.0092708455            1 
 4866000    0.4793666   -8.7296195    639.15379  0.010945914  0.009267754            2 
 4867000   0.47564211   -8.7250609    640.98154   0.01097496 0.0092646668            2 
 4868000   0.46626953   -8.7215073    640.25065  0.010960193  0.009261579            2 
 4869000   0.48066533   -8.7206259    639.90586  0.010952041 0.0092584935            3 
 4870000   0.46905121   -8.7320138    640.78881  0.010964901 0.0092554098            1 
 4871000   0.47067768   -8.7308781    639.62092   0.01094267 0.0092523274            2 
 4872000   0.48061187   -8.7303735    640.04085  0.010947606 0.0092492455            2 
 4873000   0.47504776   -8.7319457    640.02652  0.010945115 0.0092461658            2 
 4874000    0.4764213   -8.7151389    639.92941  0.010941209 0.0092430862            1 
 4875000   0.47172393   -8.7455871    640.63709  0.010951061 0.0092400112            3 
 4876000   0.47813615   -8.7367852    639.91904  0.010936544 0.0092369349            3 
 4877000   0.47031747   -8.7339716    639.36788  0.010924883 0.0092338601            1 
 4878000   0.47658786   -8.7263361    640.03888  0.010934107 0.0092307864            1 
 4879000   0.47960046   -8.7520356    639.41224  0.010921163 0.0092277136            2 
 4880000   0.46858402   -8.7427436    639.47437  0.010919986 0.0092246416            2 
 4881000   0.47093582   -8.7318407    639.76944  0.010922786 0.0092215701            1 
 4882000   0.48400638   -8.7469957    639.87882  0.010922416 0.0092184995            1 
 4883000   0.48768559   -8.7311588    640.14865  0.010924784 0.0092154327            1 
 4884000   0.46680447    -8.735368    639.60686  0.010913303  0.009212365            3 
 4885000   0.47628368   -8.7151826    639.86888  0.010915539    0.0092093            2 
 4886000   0.46685545   -8.7416054    639.72904   0.01091092 0.0092062335            6 
 4887000   0.46927704   -8.7432521    640.02879  0.010913798 0.0092031691            2 
 4888000   0.47127656   -8.7334827    639.01467  0.010894276 0.0092001072            2 
 4889000   0.46517823   -8.7400699    639.92835  0.010907622 0.0091970467            2 
 4890000   0.47018026   -8.7478353     639.1345  0.010891863 0.0091939852            2 
 4891000   0.47466504    -8.728814    639.84256    0.0109017 0.0091909258            3 
 4892000   0.46808824   -8.7323446    639.34219  0.010890948 0.0091878673            3 
 4893000   0.47729307   -8.7523819    639.53946  0.010892081 0.0091848108            2 
 4894000   0.46986586   -8.7296303    639.98303  0.010897409 0.0091817557            1 
 4895000   0.46645385   -8.7538312     640.6039  0.010905753 0.0091787037            1 
 4896000   0.46600079   -8.7544187    640.48847   0.01090156 0.0091756508            1 
 4897000   0.47376099    -8.741857    638.81612  0.010870875 0.0091725982            1 
 4898000   0.47770405   -8.7466506    640.55593  0.010898257 0.0091695478            2 
 4899000   0.46156911   -8.7527461    640.31444  0.010891924 0.0091664986            2 
 4900000   0.47143377   -8.7439493    640.06252  0.010885417 0.0091634526            3 
 4901000   0.46143658   -8.7303279    640.72476  0.010894456 0.0091604065            1 
 4902000   0.46739441    -8.749948    639.96379  0.010879297 0.0091573632            3 
 4903000   0.46246221   -8.7285977    640.47252  0.010885725  0.009154322            2 
 4904000    0.4674824   -8.7409334    639.14304  0.010860914 0.0091512818            2 
 4905000   0.47949456   -8.7290423    640.34716  0.010879157 0.0091482434            5 
 4906000   0.46499705   -8.7563108    639.90516  0.010869431 0.0091452069            1 
 4907000   0.46428702   -8.7547378    639.80698  0.010865549 0.0091421676            2 
 4908000   0.46945983   -8.7344956     640.2322  0.010870555 0.0091391319            4 
 4909000   0.45757901   -8.7405953    639.64995  0.010858456 0.0091360965            2 
 4910000   0.46022311   -8.7418833    639.11088  0.010847096 0.0091330612            2 
 4911000   0.46538715   -8.7257895    640.08353  0.010861392 0.0091300274            3 
 4912000   0.46701849   -8.7390999    639.76491  0.010853775 0.0091269963            2 
 4913000   0.45879486   -8.7505702     640.3161  0.010860915 0.0091239656            1 
 4914000   0.45436882    -8.752836    638.94245   0.01083541 0.0091209354            4 
 4915000   0.46481991   -8.7437898    639.68487  0.010845793 0.0091179051            2 
 4916000   0.47001211   -8.7278313    639.55924  0.010841457 0.0091148775            3 
 4917000   0.46816496   -8.7565758    639.82477  0.010843752 0.0091118524            3 
 4918000   0.47240172   -8.7437844    639.92085  0.010843176 0.0091088268            3 
 4919000   0.46904492   -8.7336496    638.79749   0.01082194 0.0091058017            3 
 4920000   0.46960644   -8.7543581      639.576  0.010832927 0.0091027809            3 
 4921000    0.4548423   -8.7389959    639.07258    0.0108222 0.0090997622            3 
 4922000   0.47434113   -8.7428999    639.30822  0.010823991 0.0090967395            2 
 4923000   0.45865764   -8.7543007    639.53767  0.010825677 0.0090937194            2 
 4924000   0.45348254   -8.7491388    639.30882  0.010819605 0.0090907016            2 
 4925000    0.4665236   -8.7510624    639.63405  0.010822911 0.0090876839            1 
 4926000   0.46539454   -8.7534539    639.86705  0.010824656 0.0090846681            2 
 4927000   0.47296082   -8.7418201    640.38382  0.010831199 0.0090816533            3 
 4928000   0.46010796   -8.7468069    639.56469   0.01081515 0.0090786426            2 
 4929000   0.47423236   -8.7292128    639.07556  0.010804686 0.0090756309            1 
 4930000   0.46412922   -8.7548596    639.03928  0.010801881 0.0090726221            4 
 4931000   0.46167605   -8.7463492      638.962  0.010798384   0.00906961            1 
 4932000   0.46079847    -8.739624    639.29558  0.010801831 0.0090666005            1 
 4933000    0.4621699   -8.7367127    638.85371  0.010792177 0.0090635932            2 
 4934000   0.45126521   -8.7334318    639.55892    0.0108019 0.0090605878            3 
 4935000   0.46021977   -8.7472836    639.00511   0.01079036 0.0090575824            1 
 4936000   0.46083746   -8.7363926    639.24693  0.010792256 0.0090545788            1 
 4937000   0.46663493   -8.7596733    640.02155  0.010803146 0.0090515757            2 
 4938000   0.45970754   -8.7569555    638.54819  0.010776093 0.0090485746            2 
 4939000   0.45913163   -8.7510175    639.10032  0.010783227 0.0090455739            1 
 4940000   0.47134915   -8.7470324    639.50866  0.010787933 0.0090425759            2 
 4941000    0.4670113   -8.7466205    639.46373  0.010784992 0.0090395795            1 
 4942000   0.46401913   -8.7473055    639.11942  0.010777004 0.0090365838            3 
 4943000   0.45755377   -8.7438901    638.80669  0.010769551 0.0090335871            3 
 4944000   0.45759675   -8.7362386      639.754   0.01078334  0.009030593            1 
 4945000   0.46011991   -8.7580881    638.66468  0.010762802 0.0090276014            2 
 4946000   0.46258265   -8.7471691    638.76723  0.010762354 0.0090246134            2 
 4947000   0.46244076   -8.7497487    638.76094  0.010760072 0.0090216246            1 
 4948000   0.45655527   -8.7504578    638.85334  0.010759454 0.0090186373            3 
 4949000   0.45568972   -8.7622971    639.54114  0.010768861 0.0090156508            1 
 4950000   0.46113102   -8.7546956    639.97885  0.010774055 0.0090126663            2 
 4951000    0.4671846   -8.7607707    639.33954  0.010761118 0.0090096831            2 
 4952000   0.45694616   -8.7219778    639.04794  0.010754038 0.0090067036            2 
 4953000   0.44972462    -8.751639    639.32684  0.010756559 0.0090037214            3 
 4954000   0.45776526   -8.7327685    639.18795  0.010752051 0.0090007415            3 
 4955000   0.45491938   -8.7532098    638.98357  0.010746444 0.0089977646            1 
 4956000   0.46369685   -8.7500617    639.53024  0.010753468 0.0089947855            1 
 4957000   0.46560688   -8.7584372    638.48605  0.010733744  0.008991809            1 
 4958000   0.46338652   -8.7552605    639.52155  0.010748984 0.0089888318            3 
 4959000   0.45344642   -8.7498415    638.87313   0.01073592 0.0089858544            2 
 4960000   0.46514102   -8.7412617    639.02709  0.010736342 0.0089828802            1 
 4961000   0.47158592   -8.7480945    639.24466  0.010737833 0.0089799097            1 
 4962000   0.45517022   -8.7727432    639.37268  0.010737819 0.0089769378            3 
 4963000    0.4615534   -8.7671939    638.99888  0.010729379 0.0089739671            2 
 4964000   0.46580334   -8.7536276    639.22444  0.010731004 0.0089709962            1 
 4965000   0.45736334   -8.7339362    639.48328  0.010733187  0.008968028            1 
 4966000   0.45838218   -8.7526105    639.66034  0.010733997 0.0089650624            2 
 4967000   0.46286254   -8.7507713    638.86731  0.010718531 0.0089620971            3 
 4968000   0.45288178    -8.754008    638.08877  0.010703314 0.0089591334            4 
 4969000   0.45041091   -8.7537959    639.35753  0.010722438 0.0089561729            1 
 4970000   0.46650208     -8.76482     639.6286  0.010724826 0.0089532122            2 
 4971000   0.45244515   -8.7700108      638.882  0.010710152 0.0089502532            1 
 4972000   0.45773024   -8.7454318    638.43152  0.010700448  0.008947295            1 
 4973000   0.45297855    -8.754354     639.3684  0.010713996  0.008944338            2 
 4974000   0.43890778   -8.7460577    639.33347  0.010711256 0.0089413835            1 
 4975000   0.45828995   -8.7628363    638.50396  0.010695209 0.0089384304            1 
 4976000   0.44908624    -8.756422    637.95304  0.010683833 0.0089354794            2 
 4977000   0.44449724   -8.7651915    638.73258  0.010694739 0.0089325275            4 
 4978000   0.45578084    -8.749348     638.8839  0.010695124 0.0089295759            2 
 4979000   0.45488616   -8.7476723    639.68457  0.010706376 0.0089266277            1 
 4980000    0.4548237   -8.7509933    638.88415  0.010690832 0.0089236777            4 
 4981000   0.45563609   -8.7549238    639.48741  0.010698779 0.0089207304            1 
 4982000   0.45238599   -8.7460315    639.00558  0.010688572 0.0089177857            1 
 4983000    0.4539715   -8.7772528    638.42737  0.010676757 0.0089148412            2 
 4984000   0.44733781   -8.7656598    639.22066  0.010687879 0.0089118956            1 
 4985000   0.45730578   -8.7732799    639.30188  0.010687093 0.0089089527            3 
 4986000   0.45411346    -8.766343    639.10712  0.010681694 0.0089060104            2 
 4987000   0.46495482   -8.7668086    639.13728  0.010680056 0.0089030687            3 
 4988000   0.46013005   -8.7478063    639.16185  0.010678325 0.0089001301            2 
 4989000   0.45308173   -8.7683644    639.05508  0.010674402 0.0088971938            4 
 4990000   0.45045047   -8.7581702    639.60656  0.010681472 0.0088942602            2 
 4991000   0.45229989   -8.7546563    639.65265  0.010680102 0.0088913265            2 
 4992000   0.45854054   -8.7760835    638.44615  0.010657822 0.0088883926            1 
 4993000   0.45131352   -8.7693792    638.88812  0.010663064 0.0088854594            1 
 4994000   0.45536679   -8.7680832    638.67994  0.010657455  0.008882527            3 
 4995000   0.45923572   -8.7664957    638.64519  0.010654741 0.0088795979            1 
 4996000   0.45953139      -8.7622    638.92953  0.010657351 0.0088766693            2 
 4997000   0.44782553   -8.7667531    639.19232  0.010659601 0.0088737426            1 
 4998000   0.45118846   -8.7610511    638.58254  0.010647301 0.0088708191            1 
 4999000   0.45968842   -8.7625255    639.04616    0.0106529 0.0088678967            2 
 5000000   0.46386658    -8.773651    638.61295  0.010643549 0.0088649743            3 
 5001000   0.44987507   -8.7886153    639.34486  0.010653617 0.0088620536            4 
 5002000    0.4464501   -8.7660145    639.36265  0.010651783 0.0088591346            4 
 5003000   0.44791219   -8.7603811    639.26904  0.010648095 0.0088562164            2 
 5004000   0.44828549   -8.7655589    638.90108   0.01063984  0.008853296            2 
 5005000   0.44399253   -8.7584679    639.42745  0.010646478 0.0088503801            1 
 5006000    0.4531046   -8.7754007    638.18868  0.010623729 0.0088474647            1 
 5007000   0.45032378   -8.7824374    638.98558  0.010634871 0.0088445504            2 
 5008000   0.44911261   -8.7579829    639.14534  0.010635406 0.0088416381            2 
 5009000   0.45301745   -8.7652191    638.34028  0.010619889 0.0088387263            2 
 5010000   0.45785925    -8.766752    638.22041  0.010615775 0.0088358173            2 
 5011000   0.44852025   -8.7780133    638.66547  0.010621058 0.0088329104            1 
 5012000   0.45283399   -8.7564316    639.00342  0.010624558 0.0088300047            3 
Loop time of 12280 on 48 procs for 5000000 steps with 4000 atoms

Performance: 70358.286 tau/day, 407.166 timesteps/s
99.4% CPU use with 48 MPI tasks x no OpenMP threads

MPI task timing breakdown:
Section |  min time  |  avg time  |  max time  |%varavg| %total
---------------------------------------------------------------
Pair    | 777.45     | 828.57     | 872.33     |  85.2 |  6.75
Neigh   | 79.41      | 82.409     | 85.072     |  16.7 |  0.67
Comm    | 771.59     | 821.22     | 881.93     |  93.5 |  6.69
Output  | 13.797     | 13.802     | 13.88      |   0.3 |  0.11
Modify  | 10401      | 10424      | 10442      |   9.1 | 84.89
Other   |            | 109.9      |            |       |  0.89

Nlocal:        83.3333 ave          94 max          76 min
Histogram: 4 3 9 10 8 7 2 1 2 2
Nghost:        2088.23 ave        2109 max        2066 min
Histogram: 3 1 4 7 10 6 8 2 3 4
Neighs:        13660.3 ave       15185 max       12099 min
Histogram: 2 3 6 6 6 8 7 5 1 4
FullNghs:      27320.8 ave       30805 max       24741 min
Histogram: 4 2 8 10 10 6 2 2 0 4

Total # of neighbors = 1311400
Ave neighs/atom = 327.85000
Neighbor list builds = 267598
Dangerous builds = 1

#clear
#
#next RN
#
#jump SELF
Total wall time: 3:24:43
