
units lj                  # Use reduced LJ style units
atom_style atomic         # Uncharged point particles
atom_modify map hash      # Needed for indexing of clusters etc
                          # Used to be able to find where atoms are in relation to each other.

# Define a lattice with which to populate the simulation cell. With units
# set to 'lj' the second argument to the lattice command is the reduced
# density rho* and the spacings are multiples of that required to acheive
# that density. Also define a simulation cell called 'box' in lattice units
# and fill it with atoms. Here we're creating a box which is ten lattice
# constants in each direction.
lattice fcc 1.0 spacing 1 1 1                 # All equal sizes - gives the right reduced density.
Lattice spacing in x,y,z = 1.5874011 1.5874011 1.5874011

region box block 0 10 0 10 0 10 units lattice # Defines a region, "box", in lattice units
create_box 1 box                              # Creates a simulation box as specified above,
Created orthogonal box = (0.0000000 0.0000000 0.0000000) to (15.874011 15.874011 15.874011)
  2 by 3 by 3 MPI processor grid
                                              # with one type of atom
create_atoms 1 box                            # Creates particles on lattice points
Created 4000 atoms
  using lattice units in orthogonal box = (0.0000000 0.0000000 0.0000000) to (15.874011 15.874011 15.874011)
  create_atoms CPU = 0.001 seconds


# Set the mass of the first (and only) atom type.
mass 1 1.0

# Lennard-Jones interactions between particles, 3.5 sigma cut-off. Apply
# long range tail corrections to energy and pressure and set all coefficients
# to unity since we work in reduced units here. Note that this doesn't shift
# the potential such that it goes to zero at the cutoff. That would require
# pair_modify('shift', 'yes').
pair_style lj/cut  3.5      # non-GPU version
pair_modify tail  yes
pair_coeff 1  1  1.0  1.0   # Intearaction between 1 and 1 set with epsilon = 1 and sigma = 1

write_data data.*
System init for write_data ...
Neighbor list info ...
  update every 1 steps, delay 10 steps, check yes
  max neighbors/atom: 2000, page size: 100000
  master list distance cutoff = 3.8
  ghost atom cutoff = 3.8
  binsize = 1.9, bins = 9 9 9
  1 neighbor lists, perpetual/occasional/extra = 1 0 0
  (1) pair lj/cut, perpetual
      attributes: half, newton on
      pair build: half/bin/atomonly/newton
      stencil: half/bin/3d
      bin: standard

#############################
#   M E L T   S Y S T E M   #
#############################

velocity all create 2.4 6229865 mom yes dist gaussian # Assign velocities
                                                    # Temperature 2.4, random number seed, zero linear momentum
						                                                        # Gaussian distribution

timestep 0.002   # simulation timestep
thermo 100       # output thermodynamic data every 100 steps

# Define a fix  in this case with index 1 applied to all
# particles in the simulation. This fix is for simulations
# in the anisotropic NPT ensemble. Note that we use the MTK
# correction.
fix 1 all npt temp 2.4 2.4 0.1 iso 5.68 5.68 0.5 mtk yes tchain 5 pchain 5 # Use NPT ensemble
                                                                         # Set temperature and pressure and damping
                                                                         # Numbers of thermostats in chain and in barostat
run 1000         # run for 10000 steps
Per MPI rank memory allocation (min/avg/max) = 3.680 | 3.683 | 3.691 Mbytes
Step Temp E_pair E_mol TotEng Press Volume 
       0          2.4   -8.3859253            0   -4.7868253   -2.2405722         4000 
     100    1.2536957    -6.512639            0   -4.6325656     5.478955    4089.9923 
     200    1.4643499   -6.2844612            0   -4.0884856    6.2225923    4132.6721 
     300    1.5613501   -5.9933187            0    -3.651879    5.8912714    4272.8847 
     400    1.6731008   -5.7064704            0   -3.1974466    5.7980079    4409.8935 
     500    1.7993987   -5.4325725            0   -2.7341491    5.8329956     4543.536 
     600    1.8982906   -5.1495669            0   -2.3028429    5.9004247    4690.6414 
     700    1.9845076   -4.8772598            0   -1.9012426    5.8338611    4846.8673 
     800    2.1343222   -4.6883289            0   -1.4876459    5.9300075    4961.2015 
     900    2.2685415   -4.5564143            0   -1.1544528    5.7429537    5072.3143 
    1000    2.3671174   -4.4804745            0  -0.93068614    5.6609343    5154.7975 
Loop time of 0.556606 on 18 procs for 1000 steps with 4000 atoms

Performance: 310452.747 tau/day, 1796.602 timesteps/s
99.6% CPU use with 18 MPI tasks x no OpenMP threads

MPI task timing breakdown:
Section |  min time  |  avg time  |  max time  |%varavg| %total
---------------------------------------------------------------
Pair    | 0.31857    | 0.34216    | 0.36158    |   1.8 | 61.47
Neigh   | 0.062081   | 0.064644   | 0.067859   |   0.6 | 11.61
Comm    | 0.10261    | 0.1216     | 0.14461    |   2.9 | 21.85
Output  | 0.00022037 | 0.00022864 | 0.00029357 |   0.0 |  0.04
Modify  | 0.021772   | 0.025055   | 0.02858    |   1.3 |  4.50
Other   |            | 0.002925   |            |       |  0.53

Nlocal:        222.222 ave         231 max         210 min
Histogram: 3 0 0 2 1 3 2 2 2 3
Nghost:        2031.00 ave        2048 max        2016 min
Histogram: 5 0 1 2 1 2 2 0 3 2
Neighs:        19717.1 ave       21073 max       18338 min
Histogram: 2 1 0 3 2 3 4 0 2 1

Total # of neighbors = 354908
Ave neighs/atom = 88.727000
Neighbor list builds = 86
Dangerous builds = 21

# Equilibrate just above the melting temperature to avoid step fn in T

fix 1 all npt temp 1.25 1.25 0.1 iso 5.68 5.68 0.5 mtk yes tchain 5 pchain 5
run 1000
Per MPI rank memory allocation (min/avg/max) = 3.680 | 3.684 | 3.691 Mbytes
Step Temp E_pair E_mol TotEng Press Volume 
    1000    2.3671174   -4.4804745            0  -0.93068614    5.6609343    5154.7975 
    1100    1.9173858   -4.6307779            0   -1.7554183    5.8554728    4996.3129 
    1200    1.7477579   -4.9829542            0   -2.3619728    5.5796831    4810.9499 
    1300    1.5893104   -5.2408705            0   -2.8575008    5.3451318    4689.7353 
    1400    1.4556711   -5.4006503            0   -3.2176895    5.5642329    4570.8156 
    1500     1.383129   -5.5543358            0   -3.4801609    5.7098519    4482.8499 
    1600    1.3162446   -5.6665882            0    -3.692715    5.5319197    4440.3115 
    1700      1.25084   -5.7143969            0    -3.838606    5.6852524    4398.4145 
    1800    1.2626026   -5.7931589            0   -3.8997285    5.8005288    4354.9947 
    1900    1.2551594   -5.8434232            0   -3.9611548    5.6726084    4344.7346 
    2000    1.2750099   -5.8609224            0   -3.9488856     5.652703    4341.0224 
Loop time of 0.53917 on 18 procs for 1000 steps with 4000 atoms

Performance: 320492.605 tau/day, 1854.703 timesteps/s
99.7% CPU use with 18 MPI tasks x no OpenMP threads

MPI task timing breakdown:
Section |  min time  |  avg time  |  max time  |%varavg| %total
---------------------------------------------------------------
Pair    | 0.32489    | 0.34229    | 0.35508    |   1.4 | 63.48
Neigh   | 0.055365   | 0.057088   | 0.058595   |   0.4 | 10.59
Comm    | 0.099564   | 0.11082    | 0.1264     |   2.1 | 20.55
Output  | 0.00021912 | 0.00022746 | 0.00029498 |   0.0 |  0.04
Modify  | 0.023313   | 0.025475   | 0.02938    |   1.3 |  4.72
Other   |            | 0.003269   |            |       |  0.61

Nlocal:        222.222 ave         236 max         215 min
Histogram: 4 1 4 4 1 1 2 0 0 1
Nghost:        2242.33 ave        2259 max        2218 min
Histogram: 1 1 0 3 1 1 4 3 1 3
Neighs:        23367.4 ave       25065 max       22106 min
Histogram: 2 2 3 2 3 3 0 0 2 1

Total # of neighbors = 420613
Ave neighs/atom = 105.15325
Neighbor list builds = 75
Dangerous builds = 5


# Small amount of linear quench

fix 1 all npt temp 1.25 ${temp} 0.1 iso 5.68 5.68 0.5 mtk yes tchain 5 pchain 5
fix 1 all npt temp 1.25 0.01 0.1 iso 5.68 5.68 0.5 mtk yes tchain 5 pchain 5
run 2000
Per MPI rank memory allocation (min/avg/max) = 3.680 | 3.684 | 3.691 Mbytes
Step Temp E_pair E_mol TotEng Press Volume 
    2000    1.2750099   -5.8609224            0   -3.9488856     5.652703    4341.0224 
    2100    1.2108146   -5.8364012            0   -4.0206333    5.8528126    4328.7846 
    2200    1.1973438   -5.9096107            0   -4.1140439    5.8146661    4299.5002 
    2300    1.1297748    -5.954517            0   -4.2602784    5.7174372    4284.2105 
    2400    1.0810831   -6.0394024            0   -4.4181831    5.6780842    4250.6249 
    2500    1.0341646   -6.1182129            0   -4.5673538    5.6927043    4213.8941 
    2600    1.0022885   -6.2430674            0   -4.7400106    5.5765383    4171.0246 
    2700   0.90774136   -6.2870538            0   -4.9257821     5.652317    4143.4574 
    2800   0.87821909   -6.4127594            0   -5.0957601    5.5299165    4105.0954 
    2900   0.81051814   -6.4856713            0   -5.2701981    5.6133837    4067.4346 
    3000   0.75033821   -6.5744854            0   -5.4492595    5.6652314    4028.7359 
    3100   0.69909758   -6.6712876            0   -5.6229034    5.7359693    3987.4156 
    3200   0.64043772   -6.7591318            0   -5.7987154    5.7818124    3950.8278 
    3300   0.59326829    -6.858851            0    -5.969171    5.8608894    3911.0893 
    3400   0.51929261   -6.9422353            0   -6.1634912    5.6792484    3890.9339 
    3500   0.45970083   -7.0342202            0   -6.3448414     5.581193    3864.9542 
    3600   0.40778158   -7.1256351            0   -6.5141156    5.5861692    3833.0756 
    3700   0.34889036   -7.2075119            0   -6.6843072    5.6181556    3803.8737 
    3800   0.27861393   -7.2773887            0   -6.8595723    5.6029456    3780.0213 
    3900   0.22107708   -7.3628631            0   -7.0313304    5.6197317    3751.1018 
    4000   0.13903186   -7.4526067            0   -7.2441111    5.6046329     3722.483 
Loop time of 1.13293 on 18 procs for 2000 steps with 4000 atoms

Performance: 305050.917 tau/day, 1765.341 timesteps/s
99.8% CPU use with 18 MPI tasks x no OpenMP threads

MPI task timing breakdown:
Section |  min time  |  avg time  |  max time  |%varavg| %total
---------------------------------------------------------------
Pair    | 0.75009    | 0.77855    | 0.79969    |   1.8 | 68.72
Neigh   | 0.077421   | 0.080341   | 0.082277   |   0.4 |  7.09
Comm    | 0.19544    | 0.21539    | 0.24121    |   3.0 | 19.01
Output  | 0.00045002 | 0.00046622 | 0.00060888 |   0.0 |  0.04
Modify  | 0.043447   | 0.050034   | 0.059594   |   2.0 |  4.42
Other   |            | 0.00815    |            |       |  0.72

Nlocal:        222.222 ave         231 max         215 min
Histogram: 1 1 2 5 2 2 2 1 1 1
Nghost:        2455.17 ave        2462 max        2447 min
Histogram: 3 1 1 0 2 3 1 0 4 3
Neighs:        27526.4 ave       29117 max       26250 min
Histogram: 3 1 1 1 7 2 0 0 1 2

Total # of neighbors = 495475
Ave neighs/atom = 123.86875
Neighbor list builds = 101
Dangerous builds = 0

#############################
# F R E E Z E  S Y S T E M  #
#############################

# Define solid atoms. This closely follows ten Wolde  Ruiz-Montero and Frenkel  Faraday Discuss  1996  104  93-110
# Compute components of the per-atom q6 vector
compute q6 all orientorder/atom degrees 1 6 components 6 nnn NULL cutoff 1.3 # compute the Q6 parameter.
                                                                             # Use all neighbours within 1.3 unit cell.

# get number of connections
compute coord_number all coord/atom orientorder q6 0.5

# An atom is solid if it has 8 or more connections (of a possible 14)
variable is_solid atom c_coord_number>=8
group solid dynamic all var is_solid    # Must be dynamic to update
dynamic group solid defined

# do clustering
compute cluster solid cluster/atom 1.3 # Create a cluster where all atoms within are solid and max 1.3 units from another member

# define chunks one chunk per cluster
compute clus_chunks solid chunk/atom c_cluster nchunk every compress yes  # Says which atoms are in which chunk

# count the size of each chunk
compute size_chunks solid property/chunk clus_chunks count


# Find the maximum entry in the vector of chunk sizes
variable max_n equal max(c_size_chunks)


# Thermo style which includes this variable
thermo_style custom step temp pe vol v_max_n

thermo ${N}  # Print the thermo information every 100 steps
thermo 100  

# Reset the npt fix at a lower temperature (below freezing)
fix 1  all npt temp  ${temp} ${temp}  0.1  iso  5.68  5.68  0.5  mtk yes tchain  5  pchain  5
fix 1  all npt temp  0.01 ${temp}  0.1  iso  5.68  5.68  0.5  mtk yes tchain  5  pchain  5
fix 1  all npt temp  0.01 0.01  0.1  iso  5.68  5.68  0.5  mtk yes tchain  5  pchain  5

dump dmp2 all dcd ${N} traj_${rand}.dcd
dump dmp2 all dcd 100 traj_${rand}.dcd
dump dmp2 all dcd 100 traj_462431.dcd


# fix rnuntil all halt ${N} v_max_n >= 3980 error soft message no   # Stop when solidified


run 100000 # 5000000  # Run for this many steps
Neighbor list info ...
  update every 1 steps, delay 10 steps, check yes
  max neighbors/atom: 2000, page size: 100000
  master list distance cutoff = 3.8
  ghost atom cutoff = 3.8
  binsize = 1.9, bins = 9 9 9
  4 neighbor lists, perpetual/occasional/extra = 1 3 0
  (1) pair lj/cut, perpetual
      attributes: half, newton on
      pair build: half/bin/atomonly/newton
      stencil: half/bin/3d
      bin: standard
  (2) compute orientorder/atom, occasional
      attributes: full, newton on
      pair build: full/bin/atomonly
      stencil: full/bin/3d
      bin: standard
  (3) compute coord/atom, occasional
      attributes: full, newton on
      pair build: full/bin/atomonly
      stencil: full/bin/3d
      bin: standard
  (4) compute cluster/atom, occasional
      attributes: full, newton on
      pair build: full/bin/atomonly
      stencil: full/bin/3d
      bin: standard
Per MPI rank memory allocation (min/avg/max) = 9.535 | 9.538 | 9.540 Mbytes
Step Temp PotEng Volume v_max_n 
    4000   0.13903186   -7.4526067     3722.483           31 
    4100  0.075867847   -7.5361982    3694.7057           37 
    4200  0.047564607   -7.5760676    3681.2658           35 
    4300  0.033132034   -7.5976399    3673.7502           63 
    4400  0.025594403   -7.6122829    3668.7736           57 
    4500  0.021766134   -7.6234924    3664.9507           52 
    4600  0.019074608   -7.6325894    3661.9666           36 
    4700  0.017067097   -7.6404672    3659.9898           32 
    4800  0.015140315   -7.6464833    3658.6553           32 
    4900  0.013601513   -7.6514831    3657.9242           31 
    5000  0.012829182   -7.6556519    3657.1317           36 
    5100    0.0122725   -7.6594326    3656.4655           40 
    5200  0.012055051   -7.6627816    3655.5276           40 
    5300  0.012162998    -7.665973    3654.1189           40 
    5400  0.011870192   -7.6679228    3652.3677           40 
    5500  0.011099188   -7.6688645    3650.9201           62 
    5600  0.011499021   -7.6719411    3650.1409           60 
    5700  0.011542282   -7.6759098    3650.0073           76 
    5800  0.011018809   -7.6787844    3650.0026           77 
    5900  0.010729009   -7.6809584    3649.7967          144 
    6000  0.010982707   -7.6833995    3649.2867          117 
    6100  0.011473246    -7.686144     3648.314          143 
    6200  0.011077247   -7.6879617    3647.3828          118 
    6300  0.010850235   -7.6896832    3646.4689          167 
    6400  0.010517186    -7.691062    3645.9216          137 
    6500  0.010542279   -7.6931561     3645.573          193 
    6600  0.010256356   -7.6948298    3645.6935          218 
    6700  0.010297347   -7.6972829    3646.1034          184 
    6800 0.0098697305   -7.6983588    3646.5425          136 
    6900  0.010255717   -7.6987143    3646.0356          154 
    7000  0.010551218    -7.698629    3644.6546          192 
    7100  0.010415288   -7.6988147    3643.4955          174 
    7200 0.0099647337   -7.6993117     3643.421          344 
    7300  0.010217237   -7.7008569    3643.3926          352 
    7400  0.010222895   -7.7025659    3643.5269          164 
    7500  0.010121367   -7.7034758    3643.6974          293 
    7600   0.01021997    -7.704695    3643.6492          310 
    7700  0.010488968   -7.7057799    3643.2191          369 
    7800  0.010079824   -7.7059693    3642.6579          361 
    7900 0.0099968766   -7.7056785    3642.0124          278 
    8000  0.010169277   -7.7059529    3641.4249          449 
    8100  0.010317525   -7.7068531    3641.2575          439 
    8200  0.010287538   -7.7086947    3641.6916          461 
    8300  0.010157511   -7.7110914    3642.6012          514 
    8400  0.010483795   -7.7129732    3642.6858          441 
    8500  0.010558321   -7.7132443    3641.4291          378 
    8600  0.010242604     -7.71305     3640.266          440 
    8700  0.010184664   -7.7138267    3639.6274          455 
    8800 0.0098374361   -7.7139543    3639.4775          339 
    8900   0.01019535   -7.7142871    3639.7752          444 
    9000  0.010056295   -7.7150227    3639.9505          377 
    9100  0.010104005   -7.7160549    3640.1643          509 
    9200  0.010118753   -7.7168854    3640.0772          429 
    9300  0.010098775   -7.7174753    3639.7154          455 
    9400  0.010140325   -7.7173055    3638.8063          456 
    9500  0.010185952   -7.7167278    3637.8145          446 
    9600  0.010087227   -7.7170984    3637.3711          451 
    9700  0.010026184   -7.7186191    3638.0715          383 
    9800  0.010038303   -7.7208503    3638.9021          222 
    9900   0.01018947   -7.7221446    3639.2807          458 
   10000  0.010541633   -7.7230997    3638.6855          256 
   10100  0.010207525   -7.7228537    3637.7147          479 
   10200   0.01001334   -7.7226238    3636.8614          479 
   10300  0.010005566   -7.7227809    3636.4263          496 
   10400 0.0099744113   -7.7234852    3636.4952          510 
   10500 0.0099944785   -7.7247452    3636.9846          567 
   10600  0.010264477   -7.7262714      3637.35          503 
   10700  0.010404325   -7.7276299    3637.2899          571 
   10800  0.010098316   -7.7279883    3636.7973          506 
   10900  0.010113617   -7.7276973    3635.9118          520 
   11000 0.0099036039   -7.7271799    3635.2047          526 
   11100  0.010277649   -7.7271074    3635.0549          549 
   11200  0.010108157   -7.7279667    3635.3838          599 
   11300 0.0099605374   -7.7293926    3636.0937          549 
   11400 0.0099768731   -7.7303251    3636.5398          550 
   11500 0.0099167283   -7.7306147    3636.4059          615 
   11600 0.0098750167   -7.7304936    3635.8393          562 
   11700  0.010281071   -7.7301282    3634.9451          573 
   11800  0.010239014   -7.7305977    3634.3567          584 
   11900  0.010002126   -7.7315051    3634.3525          607 
   12000 0.0098236403   -7.7325385    3634.9648          629 
   12100  0.010028456   -7.7336515      3635.45          645 
   12200  0.010071625   -7.7345037    3635.5593          612 
   12300  0.010066111   -7.7344126    3635.1845          650 
   12400 0.0097310856   -7.7328774    3634.6414          667 
   12500 0.0099535969   -7.7319601    3634.3856          629 
   12600  0.010126784   -7.7318684    3634.4412          645 
   12700  0.010019853    -7.732867      3634.66          661 
   12800  0.009987182   -7.7337136    3635.2975          666 
   12900  0.010282024   -7.7342849    3635.8552          637 
   13000  0.010141841   -7.7346628    3635.8172          616 
   13100   0.01020813   -7.7339745    3634.9108          632 
   13200  0.010160772   -7.7330141    3633.6005          585 
   13300  0.010141838   -7.7330786    3632.9797          633 
   13400 0.0098570606   -7.7335005    3633.6783          679 
   13500  0.010287715   -7.7351062    3634.4069          696 
   13600  0.010169867   -7.7364892    3634.7654          704 
   13700  0.010011193   -7.7369871    3634.5949          675 
   13800  0.010249387   -7.7373967    3634.0698          666 
   13900  0.010398189   -7.7378959    3633.5228          696 
   14000 0.0097788605   -7.7375211    3633.1948          701 
   14100 0.0098880737   -7.7371954    3633.2014          680 
   14200  0.010062816   -7.7373876    3633.5382          702 
   14300  0.010162594   -7.7389281    3634.0677          716 
   14400  0.010123703   -7.7405283    3634.8049          742 
   14500   0.01008732   -7.7404861    3634.3466          765 
   14600  0.010207578    -7.739248    3632.9508          720 
   14700  0.010039263   -7.7381063    3632.0446          778 
   14800 0.0099582441   -7.7383974    3631.9407          729 
   14900  0.010235189   -7.7398221    3632.4154          770 
   15000 0.0099239038   -7.7409983    3632.9878          771 
   15100  0.010068612   -7.7416466    3633.2045          778 
   15200  0.010123477   -7.7420302    3632.9008          769 
   15300 0.0097977953   -7.7415415    3632.4252          773 
   15400  0.010232395   -7.7413473     3631.917          791 
   15500  0.010201255   -7.7417387    3631.5285          796 
   15600  0.010077557   -7.7421693    3631.5204          785 
   15700   0.01009607   -7.7436581    3631.9557          815 
   15800  0.010052495   -7.7455289    3632.7704          798 
   15900  0.010068295   -7.7466403    3633.0297          810 
   16000  0.010081329   -7.7458571    3632.1902          809 
   16100 0.0099379925   -7.7444239    3630.7637          833 
   16200 0.0098402453   -7.7433343    3630.4616          819 
   16300  0.010090365   -7.7441007    3630.7136          843 
   16400  0.010099017   -7.7452558    3631.2246          824 
   16500  0.010017651   -7.7460936    3631.5816          827 
   16600  0.010031934   -7.7467998    3631.6792          842 
   16700  0.010059685    -7.746151    3631.5365          849 
   16800  0.010048572   -7.7457382    3631.0053          840 
   16900 0.0099872038   -7.7452596    3630.3829          855 
   17000  0.009915957   -7.7454667    3630.2603          858 
   17100 0.0098307032   -7.7458634    3630.6846          775 
   17200 0.0097538329   -7.7464828    3631.8864          826 
   17300  0.010123812   -7.7481729    3633.0436          839 
   17400 0.0099250181   -7.7486479     3633.015          847 
   17500   0.01006833   -7.7463782    3630.8189          825 
   17600  0.010064755   -7.7457897    3629.9496          799 
   17700  0.010147977   -7.7460583    3630.0095          743 
   17800 0.0098307894   -7.7467541    3630.4853          803 
   17900 0.0099962992    -7.747386    3631.0895          840 
   18000  0.010118035   -7.7484178     3631.348          846 
   18100 0.0098857636   -7.7485236    3631.1545          792 
   18200  0.010055209    -7.748048    3630.5743          829 
   18300  0.010100967   -7.7477969    3629.9635          831 
   18400  0.010008873   -7.7475359    3629.5401          825 
   18500  0.010104623   -7.7481481    3629.6677          884 
   18600  0.010105041   -7.7501843    3630.4667          868 
   18700 0.0098774704   -7.7522271     3631.595          864 
   18800 0.0099332899   -7.7525024    3631.3273          881 
   18900 0.0098804556   -7.7509115    3630.0878          873 
   19000  0.010058646   -7.7498737    3629.3238          847 
   19100   0.01018878   -7.7496786    3629.1956          865 
   19200 0.0099685297   -7.7502659    3629.3571          869 
   19300  0.010213715   -7.7507441    3629.7955          846 
   19400 0.0098735832   -7.7513484    3630.2659          857 
   19500 0.0099684442   -7.7517279    3630.2242          874 
   19600  0.010089057   -7.7513621    3629.9458          878 
   19700  0.010128051   -7.7507053    3629.3816          896 
   19800  0.010009167   -7.7497088    3628.5572          869 
   19900  0.010219473   -7.7493368    3628.4342          858 
   20000  0.010121267   -7.7515907    3629.6582          868 
   20100  0.010039955   -7.7534451    3630.9585          893 
   20200 0.0099624581   -7.7538614    3630.8917          872 
   20300 0.0099926757   -7.7523926    3630.2132          879 
   20400  0.010075788   -7.7510074    3629.4383          865 
   20500 0.0098873635   -7.7504013    3628.8117          880 
   20600  0.010260312   -7.7507056     3628.874          877 
   20700  0.010414505   -7.7511781    3629.5891          877 
   20800  0.010051564    -7.751834     3629.971          879 
   20900  0.010119237   -7.7526479    3629.9706          905 
   21000 0.0097485714   -7.7523034     3629.702          910 
   21100  0.010166421   -7.7521391     3629.281          905 
   21200 0.0099832515   -7.7519784    3628.9102          897 
   21300  0.010036445   -7.7520606      3629.04          927 
   21400  0.010155685   -7.7525323    3629.3311          891 
   21500  0.010048095   -7.7534292    3629.6416          903 
   21600 0.0099916464   -7.7541501    3630.1357          889 
   21700  0.010043187   -7.7536306    3630.2608          909 
   21800 0.0098973833   -7.7522563    3629.1014          905 
   21900  0.010214859   -7.7510757    3627.9587          921 
   22000 0.0099439812   -7.7513594     3627.945          919 
   22100  0.009904974   -7.7524547    3628.9619          923 
   22200 0.0098006269      -7.7532    3629.8532          914 
   22300  0.010058264   -7.7539167    3630.0791          909 
   22400  0.010048028   -7.7537006    3629.7378          911 
   22500 0.0099812859   -7.7532033    3629.1231          915 
   22600  0.010090739   -7.7521287    3628.6577          884 
   22700 0.0099363295   -7.7519444    3628.5481          888 
   22800 0.0099510501   -7.7525592    3628.9443          898 
   22900  0.010109359   -7.7535021    3629.6045          926 
   23000 0.0098973731   -7.7544341    3630.1526          911 
   23100  0.010023161   -7.7541819      3630.19          936 
   23200 0.0099357785    -7.753201    3629.1752          933 
   23300 0.0099433564   -7.7516438    3627.8518          908 
   23400 0.0098651419   -7.7506245    3627.2345          915 
   23500  0.010069929   -7.7520504    3628.3733          907 
   23600   0.01003207   -7.7536543    3629.5155          893 
   23700   0.01015844   -7.7538006     3629.792          916 
   23800  0.010163734   -7.7543093    3629.5584          930 
   23900 0.0098456729   -7.7536735    3629.0525          930 
   24000  0.010146651   -7.7530846    3628.7206          939 
   24100 0.0097972225   -7.7529494    3628.5739          934 
   24200  0.010190362    -7.753289    3628.7047          910 
   24300 0.0098172337   -7.7536577    3629.1422          932 
   24400 0.0099056725   -7.7547254    3629.5201          906 
   24500  0.010132344   -7.7550577    3629.7315          925 
   24600  0.010048086   -7.7543047    3629.1467          914 
   24700 0.0099798499   -7.7524781    3627.9647          943 
   24800  0.009983525   -7.7520115    3627.3379          925 
   24900 0.0099337777   -7.7528802    3627.9546          951 
   25000  0.010071035   -7.7543105     3628.934          966 
   25100  0.010004407   -7.7553265    3629.5711          942 
   25200  0.010071935   -7.7553889    3629.5729          945 
   25300 0.0099890857   -7.7547607     3628.913          949 
   25400  0.010094906   -7.7538281    3628.2198          960 
   25500 0.0099864941   -7.7533644    3627.7865          957 
   25600 0.0097229289   -7.7536602    3627.9903          967 
   25700 0.0099804504   -7.7544254    3628.6767          954 
   25800  0.010280113   -7.7554502    3629.2857          953 
   25900 0.0098222524   -7.7554605    3629.4774          955 
   26000  0.009871025    -7.754613    3629.0477          954 
   26100 0.0099293102    -7.753396    3628.1772          957 
   26200  0.010196561   -7.7523972    3627.5976          951 
   26300  0.010011764   -7.7529764    3627.8197          949 
   26400  0.010046815   -7.7542759    3628.5965          958 
   26500  0.010114435   -7.7555239    3629.3631          963 
   26600  0.010117265   -7.7553066    3629.5843          954 
   26700 0.0099617069   -7.7550177     3629.041          949 
   26800  0.010056109   -7.7544251    3628.3132          944 
   26900 0.0098919115   -7.7541557    3628.1382          942 
   27000 0.0099029426   -7.7538781    3628.3385          921 
   27100 0.0099803599   -7.7544075    3628.6271          872 
   27200 0.0098222425   -7.7549684    3628.7685          859 
   27300 0.0099532773   -7.7548373    3628.8791          943 
   27400  0.010159447   -7.7547386    3628.8938          941 
   27500  0.010113628   -7.7543344    3628.4928          952 
   27600 0.0099363511   -7.7536099    3628.0778          946 
   27700  0.010036127    -7.753141    3627.8756          920 
   27800 0.0099641097   -7.7540706    3628.4098          934 
   27900 0.0097581733   -7.7553259    3629.4156          948 
   28000  0.010040887   -7.7559485    3629.9031          937 
   28100  0.010153959   -7.7555482    3629.3997          955 
   28200 0.0097864599    -7.754098    3628.4679          973 
   28300  0.010040986   -7.7531023    3627.7581          970 
   28400 0.0099010118   -7.7535663    3627.6932          932 
   28500 0.0099217949   -7.7540658    3628.3919          943 
   28600  0.010135599   -7.7549018    3629.0876          946 
   28700  0.010049665   -7.7555789    3629.4105          924 
   28800 0.0098560155   -7.7552606    3629.1079          923 
   28900 0.0099224658   -7.7542036    3628.5452          942 
   29000  0.010084758   -7.7534679    3627.9755          939 
   29100   0.01000748   -7.7530221    3627.8813          961 
   29200  0.010106601   -7.7539588    3628.1774          972 
   29300  0.010049959   -7.7551205     3628.885          974 
   29400 0.0097422679   -7.7557122    3629.4715          955 
   29500 0.0099767911   -7.7552304    3629.2955          950 
   29600  0.010006154   -7.7544398    3628.5221          973 
   29700  0.010060616    -7.753451    3627.8293          958 
   29800  0.010064888   -7.7529053    3627.6734          958 
   29900  0.010029028   -7.7537547    3628.1094          958 
   30000  0.009855978   -7.7550831    3628.8901          956 
   30100 0.0099872805   -7.7554175    3629.3868          976 
   30200 0.0099696355   -7.7555107    3629.2441          966 
   30300 0.0097996333   -7.7545204    3628.6736          947 
   30400  0.010173296   -7.7538553    3628.1463          949 
   30500 0.0098384747    -7.753713    3628.0381          965 
   30600  0.010098274   -7.7540788    3628.3748          956 
   30700  0.010020435   -7.7545006    3628.7544          961 
   30800 0.0096636957   -7.7548092     3628.826          960 
   30900  0.010042482   -7.7549317    3628.7829          944 
   31000  0.010007062   -7.7543314     3628.713          964 
   31100 0.0099061768   -7.7541145    3628.4887          966 
   31200  0.009910037   -7.7543891    3628.1779          952 
   31300  0.010019036   -7.7542135    3628.3316          949 
   31400 0.0099541225   -7.7545965    3628.7649          939 
   31500  0.010186297   -7.7554465    3629.3823          946 
   31600 0.0099809216   -7.7552352    3629.5109          945 
   31700 0.0099505416   -7.7543785    3628.8746          951 
   31800  0.010012664    -7.753483    3627.7773          961 
   31900 0.0098494796   -7.7529608    3627.5328          960 
   32000 0.0099830132   -7.7533642      3627.94          960 
   32100  0.009878031   -7.7544818    3628.7459          920 
   32200  0.010011618   -7.7551705    3629.3422          944 
   32300  0.010080149   -7.7551126    3629.3079          944 
   32400  0.009924864   -7.7547965     3628.786          958 
   32500  0.010115141   -7.7539346    3628.3761          950 
   32600  0.010126998   -7.7534131    3628.2573          952 
   32700 0.0098188509   -7.7539469    3628.2825          953 
   32800  0.010004586   -7.7544227    3628.6058          969 
   32900  0.010051604   -7.7545862    3628.9176          975 
   33000  0.010096037   -7.7547727    3628.8832          960 
   33100 0.0099033195   -7.7547393    3628.6921          951 
   33200  0.010022384   -7.7540444    3628.4704          946 
   33300  0.010032695   -7.7537231    3628.0635          951 
   33400 0.0098945889   -7.7535791    3628.1335          960 
   33500  0.010171955   -7.7543314    3628.6431          954 
   33600  0.010010984   -7.7557758    3629.4652          957 
   33700 0.0099392476   -7.7560661    3629.8102          945 
   33800 0.0098285774   -7.7549656    3629.2046          946 
   33900 0.0098546656   -7.7538398    3628.1338          947 
   34000  0.010054785   -7.7529112    3627.6245          953 
   34100  0.010120594   -7.7533902    3628.0044          952 
   34200  0.010016202   -7.7545179    3628.5397          907 
   34300 0.0096767733   -7.7552141    3629.0874          961 
   34400   0.01015498   -7.7552829    3629.1253          953 
   34500  0.010190506   -7.7546224    3628.8322          939 
   34600 0.0099738705   -7.7543784    3628.5009          932 
   34700 0.0099829814   -7.7540821    3628.4156          940 
   34800  0.010000559   -7.7542866     3628.462          956 
   34900 0.0099961897   -7.7543914    3628.5767          971 
   35000  0.010165935   -7.7543921       3628.7          948 
   35100 0.0098314548   -7.7544675    3628.7229          921 
   35200  0.010076627   -7.7546125    3628.7311          951 
   35300 0.0097654628   -7.7542422    3628.4931          952 
   35400   0.01021365   -7.7544209    3628.3914          944 
   35500  0.010050265   -7.7539995    3628.5418          956 
   35600  0.010044924   -7.7540075    3628.6223          941 
   35700 0.0099126052   -7.7545471    3628.7822          944 
   35800 0.0099748254   -7.7548603    3628.8394          955 
   35900  0.010028976   -7.7552661    3628.8138          952 
   36000  0.010137711   -7.7544475      3628.58          953 
   36100  0.010011737   -7.7537717    3628.0884          941 
   36200  0.010192242   -7.7536774    3628.0141          942 
   36300 0.0098661505   -7.7540329    3628.3083          948 
   36400 0.0099036336   -7.7545306     3629.004          932 
   36500   0.01004015   -7.7552974    3629.4583          947 
   36600  0.010030764   -7.7555272    3629.2472          941 
   36700   0.01003993   -7.7545652    3628.5344          947 
   36800  0.010192067   -7.7531257    3627.8895          943 
   36900 0.0099014298   -7.7526959     3627.556          952 
   37000  0.010003518   -7.7536281    3627.9913          951 
   37100 0.0097244792   -7.7551879    3629.0777          939 
   37200 0.0099248261   -7.7560411    3629.8679          945 
   37300  0.010205875   -7.7556716    3629.5226          936 
   37400 0.0099024881   -7.7545836     3628.662          932 
   37500  0.010095073   -7.7536596      3628.16          939 
   37600  0.010084573   -7.7536381    3628.0608          945 
   37700 0.0098424634    -7.754254    3628.3844          945 
   37800 0.0099740943   -7.7547418    3628.7252          949 
   37900 0.0098863289   -7.7548629    3629.0481          969 
   38000  0.010285772   -7.7549762    3628.9615          957 
   38100 0.0099353124   -7.7545378     3628.676          955 
   38200 0.0099872693   -7.7535624    3628.1342          962 
   38300 0.0099472841   -7.7526125    3627.4301          943 
   38400  0.010002797   -7.7531715    3627.6419          945 
   38500   0.00991722    -7.754726    3629.0108          947 
   38600  0.010136834   -7.7558551    3629.8462          940 
   38700 0.0099695715   -7.7558057    3629.5496          945 
   38800 0.0099658796   -7.7548353    3628.8132          943 
   38900  0.010121526   -7.7539248    3628.2413          945 
   39000  0.010050357   -7.7536325    3627.9739          940 
   39100  0.009800208   -7.7539528    3628.1607          925 
   39200  0.010107992   -7.7545413    3628.6504          948 
   39300  0.010234354   -7.7553349    3629.1008          929 
   39400 0.0098372677   -7.7552247    3629.1749          930 
   39500 0.0099818411   -7.7546737    3628.8383          950 
   39600  0.010137972   -7.7536698    3628.1664          955 
   39700 0.0099227251    -7.752689     3627.454          934 
   39800  0.010199829   -7.7528428    3627.4238          932 
   39900 0.0099812239   -7.7547689     3628.613          942 
   40000 0.0099624735   -7.7563307    3629.8755          936 
   40100  0.010004102    -7.755908    3629.6687          953 
   40200  0.010181876   -7.7546781    3628.9833          950 
   40300 0.0098568486   -7.7539139    3628.4442          941 
   40400 0.0099514297   -7.7538687    3628.1075          971 
   40500  0.010157123   -7.7537026    3628.2215          961 
   40600 0.0099482185   -7.7545357    3628.6205          940 
   40700 0.0099279221   -7.7550798    3629.1181          943 
   40800   0.01005859    -7.755369     3629.358          960 
   40900 0.0099438351   -7.7551511    3629.0514          947 
   41000 0.0099155917   -7.7539707    3628.0741          941 
   41100  0.010030081   -7.7521255    3627.1093          951 
   41200 0.0098052556   -7.7523415    3627.3567          951 
   41300 0.0099544635   -7.7541185    3628.5433          922 
   41400  0.010057968   -7.7552159    3629.2026          939 
   41500 0.0099394797   -7.7553456    3629.0722          939 
   41600  0.010080792   -7.7546671    3628.8828          950 
   41700  0.010187796   -7.7543303    3628.4337          935 
   41800 0.0098563623   -7.7539007    3628.1844          933 
   41900  0.010032743   -7.7538993     3628.167          935 
   42000 0.0099342943   -7.7542295    3628.5197          935 
   42100  0.010008604    -7.754803    3629.0247          958 
   42200 0.0097478553   -7.7554237    3629.4155          940 
   42300  0.010057436   -7.7554073    3629.3286          958 
   42400  0.010242706   -7.7540256    3628.3816          979 
   42500 0.0099466018   -7.7523291    3627.2588          969 
   42600 0.0097719416   -7.7526472    3627.1557          960 
   42700 0.0099754943   -7.7538133    3628.2535          947 
   42800 0.0098786789   -7.7549387    3629.1734          950 
   42900 0.0097562225    -7.755581    3629.2801          945 
   43000 0.0098592855   -7.7550937    3629.0266          947 
   43100  0.010029956   -7.7542021    3628.5598          943 
   43200 0.0097316588   -7.7537282    3628.0989          956 
   43300 0.0098784539   -7.7536384    3627.9892          963 
   43400  0.010152889   -7.7540307     3628.321          956 
   43500  0.009969988   -7.7548977    3628.9314          959 
   43600  0.010082708   -7.7552153    3629.4156          959 
   43700 0.0099162135   -7.7551164    3629.2203          967 
   43800 0.0098409605   -7.7543166    3628.6278          960 
   43900 0.0098558704   -7.7534093    3627.7251          968 
   44000  0.010051498   -7.7529138    3627.6284          939 
   44100  0.010078375   -7.7537311    3628.1988          932 
   44200 0.0098660353   -7.7549767    3628.9411          946 
   44300  0.010003181   -7.7555511    3629.4537          955 
   44400  0.010067479   -7.7551236    3629.1958          949 
   44500 0.0098357617   -7.7543378    3628.5769          938 
   44600 0.0099888996   -7.7540093    3628.3417          946 
   44700  0.010118177   -7.7537428    3628.3487          966 
   44800 0.0098482821   -7.7540945    3628.5198          956 
   44900 0.0098502319   -7.7547244    3628.5869          948 
   45000 0.0097666704   -7.7548148    3628.8659          944 
   45100  0.010118333   -7.7549357    3628.9196          946 
   45200  0.010157727   -7.7547121      3628.66          954 
   45300 0.0097795362   -7.7535442    3627.9501          943 
   45400  0.010068613   -7.7524516    3627.4104          950 
   45500  0.010270354   -7.7534868      3627.83          951 
   45600  0.010191428   -7.7552567    3628.8676          935 
   45700  0.010056277   -7.7558711    3629.5787          959 
   45800  0.010110696   -7.7555177    3629.4465          971 
   45900 0.0096998251   -7.7546991     3628.775          968 
   46000  0.010123497   -7.7540514    3628.2844          958 
   46100  0.010015554   -7.7536872    3628.1327          960 
   46200  0.010019801   -7.7541136    3628.3012          961 
   46300  0.010068982    -7.754325    3628.7264          944 
   46400  0.010007219   -7.7547849    3628.7942          953 
   46500 0.0099857912   -7.7549281    3628.8002          957 
   46600  0.010017109    -7.754388    3628.7204          948 
   46700  0.010239344   -7.7540108    3628.6194          942 
   46800  0.010013385   -7.7541466    3628.5261          947 
   46900 0.0099971004   -7.7544055     3628.498          937 
   47000 0.0099800751    -7.754443    3628.5658          951 
   47100 0.0097929282   -7.7539807    3628.7642          946 
   47200 0.0099450555   -7.7547049    3628.7036          942 
   47300  0.009971005   -7.7546743    3628.6053          944 
   47400  0.010091831   -7.7542764    3628.5489          933 
   47500  0.010040844   -7.7540883    3628.2262          947 
   47600  0.010016255   -7.7540373    3628.2246          948 
   47700  0.010027407   -7.7542055    3628.6661          949 
   47800  0.009838033   -7.7551715    3629.0017          948 
   47900 0.0098743832   -7.7553559    3629.3264          938 
   48000  0.010111819   -7.7550547    3629.0717          930 
   48100 0.0099129906   -7.7540363      3628.21          925 
   48200 0.0099594572   -7.7526014    3627.5675          938 
   48300  0.010030102   -7.7529806     3627.706          955 
   48400 0.0099189922   -7.7544062    3628.5121          943 
   48500  0.010076718    -7.755573    3629.2933          946 
   48600  0.010324899   -7.7557261    3629.3815          946 
   48700  0.010017283   -7.7546752    3628.9016          945 
   48800  0.010002734   -7.7543456    3628.4687          928 
   48900   0.01014043   -7.7538588    3628.3437          946 
   49000 0.0099026356   -7.7542387    3628.3099          951 
   49100  0.010059918   -7.7544248    3628.5007          952 
   49200  0.010172501    -7.754741    3628.8389          955 
   49300 0.0099467443   -7.7548413    3629.0942          946 
   49400 0.0099525824   -7.7550554    3628.9451          945 
   49500  0.010207353   -7.7542994    3628.3222          953 
   49600  0.010255365   -7.7530917    3627.5354          932 
   49700   0.01004037   -7.7527735    3627.4524          937 
   49800   0.01009206   -7.7541607    3628.2724          941 
   49900  0.010014091   -7.7555243    3629.1901          969 
   50000  0.010097985   -7.7556935    3629.6581          950 
   50100  0.010228238   -7.7553343    3629.2022          970 
   50200 0.0097545088   -7.7541877    3628.4383          965 
   50300  0.010053536   -7.7535576    3628.0441          959 
   50400  0.010154202   -7.7535759    3628.0493          958 
   50500 0.0099206942   -7.7543381    3628.4446          951 
   50600  0.009928084    -7.754446    3628.6595          939 
   50700  0.010033898   -7.7546881     3628.838          935 
   50800 0.0097937577   -7.7546002    3628.7039          943 
   50900 0.0099527084   -7.7546051    3628.5093          946 
   51000 0.0099395679   -7.7540625    3628.4554          944 
   51100 0.0099518304   -7.7539676    3628.5032          942 
   51200  0.010142925   -7.7542348     3628.559          932 
   51300 0.0099982019   -7.7545935    3628.6949          956 
   51400 0.0098868396   -7.7549877    3628.9718          952 
   51500  0.010141147    -7.754967    3629.0399          961 
   51600 0.0099152708    -7.754499     3628.564          958 
   51700  0.010091218   -7.7538117    3628.0467          943 
   51800  0.010132794   -7.7534493    3627.8091          949 
   51900 0.0099620654   -7.7537981    3628.0857          943 
   52000 0.0099466414   -7.7546972     3628.936          943 
   52100  0.010120534   -7.7557562    3629.7952          938 
   52200 0.0099924218   -7.7560082    3629.6108          955 
   52300  0.010113569   -7.7547835    3628.7186          961 
   52400  0.010131738   -7.7533631    3628.0136          939 
   52500  0.010133199   -7.7530379    3627.7644          950 
   52600 0.0099209014   -7.7538143    3628.1602          951 
   52700 0.0099224593   -7.7546013     3628.751          921 
   52800  0.010229242   -7.7549767    3629.0729          939 
   52900  0.010029559   -7.7550176    3628.9707          924 
   53000  0.010080552   -7.7546659    3628.6983          955 
   53100 0.0099780636   -7.7541738    3628.3366          950 
   53200  0.010166118   -7.7538686    3628.1948          940 
   53300  0.010006006    -7.753573    3628.4291          953 
   53400 0.0099279075   -7.7545991    3628.6852          958 
   53500  0.010143544   -7.7555664    3629.4612          937 
   53600  0.010185224   -7.7558525    3629.8249          943 
   53700   0.01003452   -7.7551489    3629.0183          940 
   53800   0.01023876   -7.7535585    3627.8225          959 
   53900  0.010097372   -7.7523671    3627.5266          942 
   54000 0.0099937079   -7.7533012    3627.9782          941 
   54100 0.0099823636   -7.7545057    3628.6523          951 
   54200 0.0099898879   -7.7551351    3629.1023          955 
   54300 0.0099989641   -7.7550754    3629.1024          937 
   54400 0.0098709316   -7.7548806    3628.7711          941 
   54500  0.010036665   -7.7538907    3628.4226          935 
   54600  0.010058237   -7.7537393    3627.9788          937 
   54700 0.0099682057   -7.7537497    3628.1334          943 
   54800  0.010018732   -7.7542324    3628.6092          942 
   54900 0.0099076359   -7.7556272    3629.0738          943 
   55000 0.0098826984   -7.7556813    3629.5522          951 
   55100  0.010088897   -7.7549942    3629.1601          952 
   55200 0.0099409535   -7.7534935    3628.0511          947 
   55300 0.0098296738   -7.7523759    3627.0109          940 
   55400  0.010069459   -7.7526713    3627.2478          952 
   55500  0.010112991   -7.7541986    3628.4663          945 
   55600   0.01009827   -7.7548529    3629.1743          948 
   55700 0.0099006625   -7.7552624     3629.084          961 
   55800  0.010011682   -7.7546334     3628.843          940 
   55900  0.010059493   -7.7538154    3628.5906          958 
   56000 0.0099405029   -7.7538728    3628.2234          951 
   56100  0.010079506   -7.7539161    3628.1323          930 
   56200  0.010238445   -7.7542208    3628.5937          952 
   56300  0.010044479   -7.7550842    3629.0003          945 
   56400  0.010080437   -7.7559059    3629.4983          954 
   56500  0.010198664   -7.7552642    3629.3511          935 
   56600  0.009925856   -7.7539711    3628.3275          940 
   56700  0.010041892   -7.7528037    3627.3094          954 
   56800  0.010077068   -7.7527945    3627.3874          919 
   56900  0.010082162   -7.7538776    3628.3191          948 
   57000 0.0099391992   -7.7549435    3629.0988          952 
   57100  0.010020309   -7.7551159    3629.1065          945 
   57200 0.0098898819   -7.7548744    3628.8025          944 
   57300  0.010094754   -7.7542266    3628.5615          932 
   57400  0.010145504   -7.7542073    3628.3241          941 
   57500 0.0098280818   -7.7539735    3628.2413          953 
   57600  0.010022435   -7.7543506    3628.3884          940 
   57700  0.010085051   -7.7546481    3628.8604          950 
   57800 0.0098823142   -7.7551396    3629.0755          956 
   57900  0.010034793   -7.7548818     3629.226          948 
   58000  0.010015409   -7.7542718      3628.57          936 
   58100 0.0099010081   -7.7533631    3627.8308          952 
   58200 0.0098947218   -7.7526015    3627.5731          952 
   58300  0.010125866   -7.7531974    3628.0932          949 
   58400 0.0099045781   -7.7549976    3629.1288          941 
   58500 0.0099928655   -7.7559342    3629.6505          948 
   58600  0.010162621   -7.7554647    3629.2238          950 
   58700  0.010007263   -7.7541191     3628.718          960 
   58800  0.010123785   -7.7539373    3628.3502          951 
   58900 0.0097759803   -7.7538895    3628.3744          948 
   59000  0.010219532   -7.7541573    3628.5252          943 
   59100 0.0099751731   -7.7544752    3628.7261          944 
   59200 0.0098531943   -7.7549085    3628.8399          940 
   59300  0.010053922   -7.7549221    3628.9067          934 
   59400  0.010009053   -7.7544615    3628.6183          933 
   59500 0.0097205219   -7.7539445    3628.1456          935 
   59600 0.0099406334   -7.7533742    3627.7738          945 
   59700  0.010257954   -7.7536646    3627.9776          957 
   59800  0.010021199   -7.7547443     3628.835          961 
   59900 0.0099778495   -7.7559524    3629.7235          954 
   60000 0.0099609042   -7.7558199    3629.8035          935 
   60100 0.0099075553   -7.7546897    3628.9034          944 
   60200 0.0099331644   -7.7536809    3628.0028          965 
   60300   0.01004669   -7.7530238    3627.9118          953 
   60400  0.010169938   -7.7541804    3628.2189          956 
   60500 0.0098097047    -7.754434    3628.7124          955 
   60600 0.0099803593   -7.7547842    3628.9771          924 
   60700 0.0098481757   -7.7547971    3628.8848          944 
   60800 0.0099987233   -7.7548914    3628.6527          955 
   60900  0.010012625   -7.7540456    3628.4733          958 
   61000  0.010221536   -7.7538622    3628.2301          956 
   61100  0.009730903   -7.7537913    3628.2233          961 
   61200  0.010048647   -7.7546213    3628.6304          943 
   61300  0.010134396   -7.7557611    3629.5795          941 
   61400  0.010049985   -7.7560565    3629.9692          924 
   61500 0.0099696522   -7.7553093    3629.0857          958 
   61600   0.01004938   -7.7537443    3628.0152          944 
   61700  0.010106698   -7.7530291    3627.6651          959 
   61800 0.0098274463   -7.7537074    3627.9216          942 
   61900  0.010080263   -7.7544038    3628.5074          952 
   62000  0.010072606   -7.7549462    3628.9863          951 
   62100 0.0098466318   -7.7549132    3629.0839          930 
   62200   0.01001224   -7.7546269    3628.8463          937 
   62300 0.0099590438   -7.7540521    3628.5513          940 
   62400 0.0099765648   -7.7541079    3628.2886          932 
   62500 0.0099678571   -7.7541042    3628.4609          933 
   62600  0.010073626   -7.7543588    3628.6684          936 
   62700 0.0099780599   -7.7549618    3628.6945          943 
   62800  0.010155891   -7.7548093    3628.7165          942 
   62900 0.0099604452   -7.7543365    3628.7014          942 
   63000 0.0097449047   -7.7543205    3628.5726          939 
   63100  0.010095276   -7.7543188    3628.3668          949 
   63200   0.01034456   -7.7542413    3628.3212          970 
   63300 0.0098377283   -7.7541812    3628.5089          953 
   63400 0.0099268424   -7.7548975    3628.9887          932 
   63500  0.010010727   -7.7551585    3629.3685          931 
   63600 0.0098873273   -7.7547402    3629.1633          947 
   63700  0.010032428   -7.7543395    3628.3843          937 
   63800   0.01015156   -7.7530191    3627.6998          953 
   63900  0.010082364   -7.7527951    3627.4596          952 
   64000 0.0099222399   -7.7538628    3628.2882          945 
   64100  0.010115613   -7.7555424    3629.2864          948 
   64200  0.010224438   -7.7560492    3629.5413          962 
   64300 0.0095723971   -7.7550028    3629.0666          946 
   64400  0.010241319   -7.7545067    3628.4943          945 
   64500  0.010078999   -7.7538865    3628.3182          942 
   64600 0.0098737228   -7.7537498    3628.3245          932 
   64700 0.0097713673    -7.754417    3628.5016          947 
   64800 0.0099638036   -7.7544656    3628.8003          956 
   64900 0.0099024284   -7.7547415    3628.9586          947 
   65000 0.0099258031   -7.7549396    3628.8506          934 
   65100  0.010002813   -7.7542888    3628.5159          939 
   65200  0.010044547   -7.7533309    3627.9187          951 
   65300 0.0099096313   -7.7530917      3627.47          949 
   65400  0.010020961   -7.7535887    3628.1725          941 
   65500 0.0099656325   -7.7551335    3629.1719          956 
   65600 0.0098460481   -7.7562825    3629.5658          945 
   65700 0.0097470439   -7.7553678    3629.4424          951 
   65800 0.0099134737     -7.75428    3628.6954          951 
   65900  0.009850598   -7.7536426    3628.0424          935 
   66000 0.0099687351   -7.7536616     3627.966          948 
   66100  0.010010607   -7.7539403    3628.4661          946 
   66200 0.0098436249   -7.7545326    3628.6189          937 
   66300 0.0099915364   -7.7547299     3628.671          936 
   66400  0.009993451   -7.7544944    3628.7591          949 
   66500 0.0099370116   -7.7544288    3628.5892          951 
   66600 0.0098029275   -7.7544286    3628.4541          938 
   66700   0.01000371   -7.7540009    3628.4134          947 
   66800  0.010086982    -7.754291    3628.5575          947 
   66900 0.0096923573   -7.7544427      3628.74          943 
   67000  0.010061179     -7.75493    3629.0107          960 
   67100 0.0099586586   -7.7549571    3628.9305          947 
   67200  0.010021745   -7.7545812    3628.6629          924 
   67300  0.010120336   -7.7535926    3628.2724          962 
   67400  0.010006556   -7.7536916     3627.924          950 
   67500 0.0099321976   -7.7537979    3628.1271          946 
   67600  0.010100291   -7.7545037    3628.8703          930 
   67700  0.010150119   -7.7556927    3629.4918          939 
   67800 0.0099721823   -7.7558993    3629.5349          939 
   67900  0.010067329   -7.7545283    3628.9395          941 
   68000  0.010108249   -7.7531372    3627.7778          942 
   68100 0.0099657743   -7.7524092    3627.1624          930 
   68200 0.0098229152   -7.7533624    3627.7733          945 
   68300  0.010089089   -7.7547363    3628.8159          948 
   68400  0.010016909    -7.755278    3629.2758          946 
   68500 0.0099392423   -7.7550869     3629.081          945 
   68600  0.010023336   -7.7544322    3628.7643          941 
   68700 0.0099541387   -7.7541188    3628.3662          955 
   68800 0.0099178117   -7.7539468    3628.1297          944 
   68900 0.0099276045   -7.7537964    3628.2789          946 
   69000  0.010058079   -7.7543987    3628.6846          953 
   69100 0.0098508664   -7.7551935     3629.067          947 
   69200  0.010111001   -7.7559306    3629.4513          940 
   69300  0.009977749   -7.7549715     3629.146          944 
   69400  0.010112583    -7.753267    3627.8405          938 
   69500  0.009980496    -7.752363    3626.9824          958 
   69600   0.01005524   -7.7529816    3627.6308          945 
   69700  0.010172423   -7.7545264    3628.6066          940 
   69800 0.0099554341   -7.7555505    3629.3201          942 
   69900 0.0099588405   -7.7557041    3629.3426          948 
   70000  0.010121921    -7.754769    3628.9696          946 
   70100 0.0097858813   -7.7538414    3628.2755          946 
   70200 0.0098922234   -7.7533594    3627.9102          934 
   70300  0.010063128   -7.7535119    3628.0705          930 
   70400 0.0099329793     -7.75437    3628.6473          947 
   70500 0.0099207515   -7.7554753    3629.1746          951 
   70600  0.010190127    -7.755592    3629.3394          953 
   70700 0.0099138966    -7.754731    3629.0582          960 
   70800 0.0099687285   -7.7540379     3628.306          955 
   70900 0.0097760198   -7.7533251    3627.6372          940 
   71000  0.010034982   -7.7530596    3627.7413          946 
   71100  0.010120096   -7.7543514    3628.4079          940 
   71200 0.0097379778   -7.7557181    3629.4055          942 
   71300   0.01016215   -7.7561949    3629.8219          960 
   71400  0.010142553   -7.7554877    3629.3375          972 
   71500  0.009867527   -7.7542094    3628.2865          962 
   71600  0.010060168    -7.753061    3627.8533          947 
   71700  0.010046264   -7.7534962     3628.011          939 
   71800 0.0098301515   -7.7541974    3628.5294          947 
   71900 0.0099578284   -7.7546613    3628.9385          944 
   72000  0.010028127   -7.7550891    3628.9622          939 
   72100  0.010018412   -7.7547451    3628.8136          938 
   72200 0.0098929951   -7.7540141    3628.5236          955 
   72300 0.0096803956   -7.7538182    3628.2712          963 
   72400 0.0098406546   -7.7537262     3628.051          943 
   72500  0.010121832   -7.7538971    3628.4474          940 
   72600    0.0100703   -7.7554339    3629.2833          951 
   72700  0.010001136   -7.7564215    3629.9903          947 
   72800  0.010057371   -7.7553346    3629.5596          973 
   72900 0.0099801068   -7.7540736    3628.5365          955 
   73000 0.0099216151   -7.7533333    3627.7508          957 
   73100 0.0099536941   -7.7529774    3627.9164          945 
   73200 0.0099120459   -7.7537628    3628.4127          949 
   73300 0.0099148748   -7.7547957    3628.8396          961 
   73400 0.0098989351    -7.755061    3629.1089          958 
   73500  0.010060082   -7.7549379     3628.957          935 
   73600  0.010055367   -7.7541727    3628.6473          945 
   73700 0.0099532581   -7.7538426    3628.1959          943 
   73800 0.0098967993   -7.7535307    3628.0835          944 
   73900  0.010250701   -7.7540728    3628.3576          946 
   74000 0.0099422892   -7.7547359    3629.0111          961 
   74100 0.0099697344   -7.7561028    3629.6673          948 
   74200 0.0099447287   -7.7560458    3629.7302          947 
   74300 0.0098799691   -7.7542026     3628.703          959 
   74400  0.010021374   -7.7529769    3627.5528          951 
   74500 0.0099884316   -7.7530974    3627.5827          946 
   74600 0.0098239264   -7.7537038    3628.2904          940 
   74700  0.010138182   -7.7547155    3628.8904          952 
   74800 0.0099818695    -7.755099    3629.1595          933 
   74900 0.0099837813   -7.7551309    3628.9167          937 
   75000  0.010072516   -7.7543391    3628.6496          959 
   75100 0.0099474134   -7.7538062    3628.2764          950 
   75200 0.0097896299   -7.7537007    3628.0344          951 
   75300  0.010073803   -7.7540795     3628.191          947 
   75400 0.0099727892   -7.7545279    3628.9419          945 
   75500  0.010083006   -7.7564053    3630.0214          948 
   75600 0.0097359675   -7.7567336     3630.254          968 
   75700   0.01004849   -7.7547339    3628.9272          947 
   75800 0.0098013137    -7.752888    3627.6879          950 
   75900  0.010118623   -7.7529645    3627.4454          960 
   76000  0.010071959   -7.7534675    3628.0432          962 
   76100  0.010091413   -7.7546206    3628.7846          954 
   76200  0.010102049   -7.7554909    3629.2701          959 
   76300 0.0098148057   -7.7552441    3629.2653          954 
   76400  0.010044622   -7.7545852    3628.7331          957 
   76500  0.010022403   -7.7537539    3628.2409          927 
   76600 0.0097743941   -7.7536385    3627.9831          949 
   76700  0.010006103   -7.7537482    3628.2319          950 
   76800  0.010045703   -7.7544885    3628.7507          945 
   76900 0.0099967725   -7.7554898    3629.2349          960 
   77000  0.010052026   -7.7555294    3629.4344          933 
   77100  0.010009308   -7.7548842    3629.0373          962 
   77200 0.0097034554    -7.753404    3627.8754          956 
   77300 0.0099592831    -7.752105    3627.2302          951 
   77400 0.0098932625   -7.7528936    3627.6093          959 
   77500  0.010160186   -7.7547052    3628.6198          966 
   77600  0.010264331   -7.7550943     3629.144          943 
   77700  0.010086251    -7.754821      3629.13          941 
   77800  0.010076737   -7.7546275    3628.7105          940 
   77900   0.01002012   -7.7544506    3628.3305          944 
   78000 0.0099946805   -7.7539191     3628.162          954 
   78100 0.0099884545   -7.7537419    3628.3061          940 
   78200  0.009793562   -7.7544002    3628.5862          943 
   78300 0.0099178807   -7.7548803    3629.0268          931 
   78400  0.010116084   -7.7552294    3629.3014          949 
   78500 0.0099814929   -7.7552977    3629.0187          952 
   78600 0.0099400857   -7.7539527    3628.2256          951 
   78700  0.010022463   -7.7526429    3627.5099          952 
   78800 0.0098257165   -7.7527151    3627.4495          949 
   78900 0.0098892082   -7.7541691    3628.4777          963 
   79000   0.01027913   -7.7553274    3629.4371          978 
   79100 0.0099742139   -7.7552884      3629.27          940 
   79200 0.0098309569   -7.7547448     3628.774          950 
   79300  0.010058889   -7.7542178    3628.5367          950 
   79400  0.009975801    -7.753856    3628.3402          937 
   79500 0.0098464149   -7.7539722    3628.2417          952 
   79600 0.0099763371   -7.7542892    3628.5155          953 
   79700  0.010074277   -7.7547581    3628.9464          974 
   79800  0.009896362   -7.7553052     3629.044          941 
   79900  0.009992139   -7.7550293    3628.9662          939 
   80000  0.010058578   -7.7540918     3628.385          955 
   80100 0.0098241689   -7.7529752    3627.6202          953 
   80200 0.0099505421   -7.7527502    3627.4508          948 
   80300  0.010104172   -7.7540075    3628.3369          942 
   80400 0.0099502231   -7.7554115    3629.1937          961 
   80500  0.010109983   -7.7556679    3629.6658          963 
   80600  0.010090325   -7.7550672    3629.1549          951 
   80700 0.0099625496   -7.7543351    3628.4226          955 
   80800 0.0099139075    -7.753095    3628.0039          936 
   80900  0.010013798   -7.7533491    3627.9467          934 
   81000  0.010113953   -7.7541988    3628.3301          957 
   81100 0.0099305498   -7.7550136    3629.0475          950 
   81200   0.01012663   -7.7552793     3629.439          963 
   81300  0.009913375   -7.7551847    3629.2501          958 
   81400 0.0097948134   -7.7541986    3628.5428          948 
   81500  0.010231258   -7.7533772    3627.8101          937 
   81600 0.0098750862   -7.7529488    3627.3735          958 
   81700 0.0097168122   -7.7533603    3627.9561          947 
   81800 0.0099702418    -7.755382     3629.544          950 
   81900 0.0099390759   -7.7566746    3630.2914          951 
   82000 0.0099265054   -7.7558814    3629.4811          944 
   82100  0.010115941   -7.7544356    3628.6027          958 
   82200  0.010060087   -7.7536487    3628.1385          956 
   82300 0.0097388339   -7.7534742    3628.0328          951 
   82400  0.010108281   -7.7538118    3628.3641          935 
   82500  0.010041432   -7.7545203    3628.8319          934 
   82600  0.010046041   -7.7555665    3629.2104          943 
   82700  0.010221765   -7.7556626    3629.1001          959 
   82800  0.010016356   -7.7542943    3628.7525          950 
   82900 0.0099500151   -7.7527673     3627.519          953 
   83000 0.0098002269   -7.7504994    3625.8876          962 
   83100 0.0099448519   -7.7523739    3627.3337          945 
   83200  0.010149575   -7.7551923    3629.0398          953 
   83300   0.01013117   -7.7561293     3629.635          964 
   83400  0.010028639   -7.7555301    3629.4067          966 
   83500   0.01024313   -7.7544314    3628.7609          951 
   83600 0.0098913279    -7.753646    3628.0918          950 
   83700 0.0099942698   -7.7535067    3627.9696          951 
   83800  0.010041691   -7.7534881    3628.2927          947 
   83900  0.010034154   -7.7544747    3628.7675          954 
   84000 0.0099461648   -7.7552333     3629.203          958 
   84100  0.010102357   -7.7553045    3629.3679          973 
   84200   0.01006829   -7.7545684    3628.9184          936 
   84300 0.0099263111   -7.7528967    3627.5615          943 
   84400  0.010108883   -7.7518874     3626.684          949 
   84500 0.0098326024   -7.7526573    3627.5813          962 
   84600  0.010059892   -7.7547286    3628.7644          954 
   84700 0.0097492334   -7.7554096    3629.2846          957 
   84800  0.010114481   -7.7553745    3629.1968          943 
   84900  0.010091998   -7.7545905    3628.7882          955 
   85000 0.0098556277   -7.7541346    3628.2543          957 
   85100  0.009820155   -7.7536956    3628.1116          962 
   85200 0.0099771404   -7.7538669    3628.3612          933 
   85300 0.0097824147   -7.7544969     3628.616          931 
   85400 0.0098674859   -7.7552312    3629.0361          945 
   85500  0.010097969   -7.7555437     3629.424          933 
   85600 0.0098373571   -7.7548979    3629.0943          955 
   85700 0.0096221461   -7.7533675    3627.8958          950 
   85800   0.01002894   -7.7520588     3626.982          961 
   85900  0.010103086   -7.7528514    3627.4888          928 
   86000  0.010141987   -7.7545705    3628.5754          957 
   86100   0.01002867   -7.7553523    3629.2738          945 
   86200  0.010123756   -7.7551475    3629.3048          967 
   86300 0.0097860498   -7.7547443    3628.9024          949 
   86400 0.0098718317   -7.7542049    3628.3789          948 
   86500    0.0101122   -7.7535998    3628.1705          933 
   86600 0.0098784139   -7.7537976    3628.1232          948 
   86700 0.0098304953   -7.7542156    3628.5702          952 
   86800  0.010071236    -7.755064    3629.2268          940 
   86900  0.010219749   -7.7561215    3630.0548          946 
   87000  0.010179637   -7.7559541    3629.5399          951 
   87100  0.010099653   -7.7538162    3628.0958          949 
   87200  0.010084826   -7.7523294      3627.39          948 
   87300  0.010036189   -7.7530934    3627.6967          963 
   87400 0.0097366381   -7.7541108    3628.4613          933 
   87500    0.0100285   -7.7550114    3629.0445          935 
   87600  0.010056163   -7.7551302    3629.2817          951 
   87700 0.0098598666   -7.7550315    3628.8684          948 
   87800 0.0099842626   -7.7543249    3628.5043          938 
   87900  0.010118225   -7.7538759    3628.2047          963 
   88000 0.0099526854   -7.7537149    3628.1378          951 
   88100  0.010042721   -7.7542426    3628.4299          959 
   88200    0.0101598    -7.755093     3629.048          946 
   88300 0.0098504362   -7.7559486    3629.8187          952 
   88400 0.0099616164    -7.755939    3629.6553          942 
   88500  0.010285871   -7.7540978    3628.3592          939 
   88600 0.0099833686   -7.7527882    3627.3588          930 
   88700  0.010002814   -7.7530372    3627.5239          935 
   88800 0.0098256623   -7.7538892    3628.3887          958 
   88900 0.0098412435   -7.7548804    3628.9973          950 
   89000  0.009775765     -7.75508    3629.1516          944 
   89100  0.010100695    -7.754818    3629.0504          950 
   89200  0.009952818   -7.7543117    3628.5828          937 
   89300 0.0099199104   -7.7538753    3628.1695          937 
   89400 0.0099053512   -7.7535768    3628.0565          942 
   89500  0.010239836   -7.7538294    3628.3374          955 
   89600 0.0099882804   -7.7549893    3629.0809          949 
   89700 0.0098765151   -7.7565857    3630.1347          948 
   89800 0.0099372277   -7.7562961    3630.1596          948 
   89900  0.010064759   -7.7543802    3628.7499          950 
   90000 0.0099940251   -7.7531864    3627.6338          942 
   90100 0.0098286052   -7.7530303    3627.6013          958 
   90200 0.0099193731   -7.7534388    3628.2509          930 
   90300  0.010028521   -7.7549335    3628.8614          949 
   90400  0.010019328   -7.7555312    3629.2835          944 
   90500  0.010043418   -7.7551849    3629.2384          930 
   90600 0.0098295594    -7.754308    3628.7262          934 
   90700 0.0099875438   -7.7535168    3628.0337          955 
   90800 0.0098080952   -7.7533397    3627.7357          950 
   90900  0.010045587   -7.7537058    3628.0164          953 
   91000 0.0099641107   -7.7549405    3629.1057          945 
   91100  0.010023814   -7.7570794    3630.5453          952 
   91200 0.0098461022   -7.7567533    3630.2111          951 
   91300  0.010073025    -7.754642      3628.89          963 
   91400  0.010262173   -7.7536072    3628.0681          931 
   91500 0.0097657584   -7.7531896    3627.7864          940 
   91600  0.010007419   -7.7536861    3628.2342          942 
   91700 0.0099425334   -7.7543777    3628.7488          954 
   91800  0.009916714   -7.7551632    3629.1803          945 
   91900   0.01018072    -7.755071    3629.2628          961 
   92000 0.0099317855   -7.7547303    3628.8036          944 
   92100 0.0099413683   -7.7539025    3628.1841          946 
   92200  0.009923887   -7.7526332    3627.7351          945 
   92300  0.010134745   -7.7532323    3627.6983          954 
   92400  0.010041546   -7.7548489    3628.7681          945 
   92500  0.010192348   -7.7565333    3630.1147          937 
   92600    0.0102764   -7.7563066    3630.0766          947 
   92700 0.0099545671   -7.7548717    3628.9331          939 
   92800  0.010114036   -7.7541315    3628.3325          950 
   92900  0.010285158   -7.7538393    3628.2361          942 
   93000 0.0099662855   -7.7539446     3628.306          943 
   93100 0.0098079332   -7.7544048     3628.605          940 
   93200  0.010299982   -7.7550966    3628.9539          960 
   93300 0.0099497347   -7.7551069     3629.126          944 
   93400 0.0097992782   -7.7551756    3628.8821          938 
   93500 0.0098555865   -7.7537813    3628.2395          953 
   93600  0.010090751   -7.7529299    3627.4474          940 
   93700  0.010107349   -7.7529413    3627.4043          922 
   93800 0.0099999987   -7.7542428    3628.5786          939 
   93900 0.0099254153   -7.7556629    3629.5323          940 
   94000  0.010271326   -7.7559608    3629.6326          952 
   94100 0.0098158563   -7.7550726    3629.0844          936 
   94200 0.0098667169   -7.7539637     3628.335          951 
   94300  0.010152383   -7.7534874    3627.9673          943 
   94400 0.0099714854   -7.7535438    3628.0408          946 
   94500   0.01003455   -7.7540986    3628.5035          952 
   94600  0.010173953   -7.7548886    3629.0771          947 
   94700  0.010027324   -7.7554577    3629.2896          946 
   94800  0.010001619    -7.754936    3629.0548          952 
   94900 0.0099503379   -7.7537171    3628.4261          930 
   95000   0.01009236   -7.7528416    3627.2127          956 
   95100  0.009862185   -7.7521378     3627.003          948 
   95200   0.01020912   -7.7539318     3628.204          941 
   95300  0.010058871   -7.7557065    3629.4537          955 
   95400    0.0096706   -7.7558219    3629.4499          962 
   95500 0.0099105882   -7.7551662      3629.01          952 
   95600  0.010187723   -7.7541469    3628.4712          938 
   95700 0.0099368023    -7.753628    3627.9933          935 
   95800 0.0099002285   -7.7534938     3627.945          945 
   95900 0.0099881769   -7.7540434    3628.3524          961 
   96000  0.010055887   -7.7551261    3629.0502          950 
   96100  0.010191293    -7.755639     3629.518          940 
   96200  0.010079182   -7.7555051    3629.3559          958 
   96300    0.0096705   -7.7541764    3628.4159          944 
   96400 0.0098338971   -7.7520347    3627.1275          941 
   96500  0.009928935    -7.751929    3626.8958          950 
   96600  0.010304299   -7.7540766    3628.0849          960 
   96700  0.010233473   -7.7550604    3629.0531          967 
   96800 0.0099652721   -7.7553362    3629.1817          962 
   96900 0.0099269333   -7.7550432    3628.9137          960 
   97000  0.010050003   -7.7541261    3628.6029          948 
   97100 0.0099449325   -7.7539144    3628.2616          938 
   97200  0.010049801   -7.7538327    3628.1474          953 
   97300  0.010141082   -7.7537945    3628.4691          945 
   97400  0.010054484   -7.7546613    3628.8386          941 
   97500 0.0098905914   -7.7557177    3629.4129          947 
   97600  0.010099065   -7.7554704    3629.5543          951 
   97700  0.010116582   -7.7544339    3628.6964          963 
   97800 0.0098794994   -7.7527168    3627.4489          935 
   97900 0.0099833006   -7.7525368    3627.1965          939 
   98000 0.0098042392   -7.7536711    3627.9894          941 
   98100  0.010099537   -7.7547032    3628.9377          928 
   98200   0.01010756   -7.7552851    3629.1631          934 
   98300  0.010097183   -7.7554327    3628.9316          940 
   98400  0.010110791   -7.7545998    3628.7001          945 
   98500  0.010085268   -7.7538763    3628.2568          937 
   98600 0.0099662974   -7.7538686    3628.0438          965 
   98700 0.0098863401   -7.7539323     3628.364          948 
   98800  0.010092216   -7.7545937    3628.8217          923 
   98900 0.0098948688   -7.7553373    3629.1942          940 
   99000  0.010130168   -7.7552775    3629.3636          944 
   99100  0.010221982   -7.7545607    3628.7162          935 
   99200 0.0097891631    -7.753442    3628.0578          930 
   99300 0.0099516665   -7.7527856    3627.6944          938 
   99400  0.010398223   -7.7535512    3628.0188          944 
   99500  0.010175285    -7.754896    3628.7014          950 
   99600   0.01004686   -7.7557654     3629.422          958 
   99700   0.01017413   -7.7555393    3629.5449          949 
   99800 0.0099902286   -7.7547572    3628.7768          945 
   99900  0.010142849   -7.7539261    3628.2237          939 
  100000  0.010242751    -7.753475    3628.1957          943 
  100100  0.009975637   -7.7539154    3628.4225          940 
  100200 0.0099725857    -7.754546    3628.5942          961 
  100300 0.0099491577   -7.7545732    3628.9065          952 
  100400  0.010142865   -7.7545241    3628.8387          948 
  100500 0.0099555433   -7.7544313    3628.6659          956 
  100600  0.010150917   -7.7542054    3628.3778          954 
  100700  0.009987402   -7.7534264     3628.227          921 
  100800 0.0098179723   -7.7536929    3628.1356          959 
  100900 0.0099863727   -7.7545276    3628.6137          964 
  101000  0.010026547   -7.7556201    3629.5451          971 
  101100 0.0099413214   -7.7559769    3629.7566          952 
  101200 0.0098937103   -7.7550508     3629.176          951 
  101300  0.010155421   -7.7535792    3628.1366          940 
  101400  0.009891674    -7.753169    3627.5967          950 
  101500 0.0099473925   -7.7534684    3627.9474          958 
  101600  0.010047297    -7.754009    3628.6474          951 
  101700  0.010366318   -7.7549815     3629.082          947 
  101800  0.010011548   -7.7551998    3629.0616          945 
  101900  0.010231603   -7.7547584    3628.8619          943 
  102000 0.0099246461   -7.7540423     3628.581          945 
  102100 0.0098678818    -7.753797    3628.2672          952 
  102200  0.010129849   -7.7537597    3628.2274          947 
  102300 0.0098744247    -7.754372     3628.459          944 
  102400  0.010018627   -7.7549989    3629.1196          930 
  102500  0.010009623    -7.755861    3629.6936          952 
  102600 0.0098256303   -7.7556495    3629.3526          965 
  102700  0.010041678   -7.7537189    3628.1487          957 
  102800  0.010079052   -7.7525501    3627.3632          941 
  102900 0.0098403172   -7.7530275     3627.566          952 
  103000  0.010103043    -7.754256    3628.3161          958 
  103100 0.0099687654   -7.7549767    3629.1241          943 
  103200  0.010079563   -7.7552475    3629.3568          951 
  103300  0.010064231   -7.7553009    3628.9407          941 
  103400 0.0098748507   -7.7540915    3628.4821          907 
  103500 0.0099622516   -7.7534566    3628.1384          950 
  103600  0.010166756   -7.7537299    3627.9076          940 
  103700 0.0099813934   -7.7541036    3628.3161          955 
  103800  0.010083192   -7.7548389    3629.0021          946 
  103900  0.010002999   -7.7555562    3629.3899          966 
  104000 0.0099414766   -7.7551504    3629.1839          957 
Loop time of 284.116 on 18 procs for 100000 steps with 4000 atoms

Performance: 60820.179 tau/day, 351.969 timesteps/s
99.6% CPU use with 18 MPI tasks x no OpenMP threads

MPI task timing breakdown:
Section |  min time  |  avg time  |  max time  |%varavg| %total
---------------------------------------------------------------
Pair    | 41.619     | 43.879     | 47.022     |  20.4 | 15.44
Neigh   | 0.14203    | 0.14655    | 0.1528     |   0.7 |  0.05
Comm    | 9.5951     | 12.283     | 14.362     |  35.4 |  4.32
Output  | 8.1063     | 8.1078     | 8.125      |   0.1 |  2.85
Modify  | 208.2      | 212.03     | 217.87     |  19.3 | 74.63
Other   |            | 7.67       |            |       |  2.70

Nlocal:        222.222 ave         234 max         213 min
Histogram: 1 0 4 2 6 2 1 1 0 1
Nghost:        2506.56 ave        2537 max        2490 min
Histogram: 2 2 4 4 2 3 0 0 0 1
Neighs:        28418.2 ave       30369 max       26994 min
Histogram: 2 2 3 2 2 3 1 1 1 1
FullNghs:      56836.3 ave       59889 max       54319 min
Histogram: 1 0 3 3 6 3 0 1 0 1

Total # of neighbors = 1023053
Ave neighs/atom = 255.76325
Neighbor list builds = 181
Dangerous builds = 0

#clear
#
#next RN
#
#jump SELF
Total wall time: 0:04:46
