
units lj                  # Use reduced LJ style units
atom_style atomic         # Uncharged point particles
atom_modify map hash      # Needed for indexing of clusters etc
                          # Used to be able to find where atoms are in relation to each other.

# Define a lattice with which to populate the simulation cell. With units
# set to 'lj' the second argument to the lattice command is the reduced
# density rho* and the spacings are multiples of that required to acheive
# that density. Also define a simulation cell called 'box' in lattice units
# and fill it with atoms. Here we're creating a box which is ten lattice
# constants in each direction.
lattice fcc 1.0 spacing 1 1 1                 # All equal sizes - gives the right reduced density.
Lattice spacing in x,y,z = 1.5874011 1.5874011 1.5874011

region box block 0 10 0 10 0 10 units lattice # Defines a region, "box", in lattice units
create_box 1 box                              # Creates a simulation box as specified above,
Created orthogonal box = (0.0000000 0.0000000 0.0000000) to (15.874011 15.874011 15.874011)
  3 by 4 by 4 MPI processor grid
                                              # with one type of atom
create_atoms 1 box                            # Creates particles on lattice points
Created 4000 atoms
  using lattice units in orthogonal box = (0.0000000 0.0000000 0.0000000) to (15.874011 15.874011 15.874011)
  create_atoms CPU = 0.003 seconds


# Set the mass of the first (and only) atom type.
mass 1 1.0

# Lennard-Jones interactions between particles, 3.5 sigma cut-off. Apply
# long range tail corrections to energy and pressure and set all coefficients
# to unity since we work in reduced units here. Note that this doesn't shift
# the potential such that it goes to zero at the cutoff. That would require
# pair_modify('shift', 'yes').
pair_style lj/cut  3.5      # non-GPU version
pair_modify tail  yes
pair_coeff 1  1  1.0  1.0   # Intearaction between 1 and 1 set with epsilon = 1 and sigma = 1

write_data data.*
System init for write_data ...
Neighbor list info ...
  update every 1 steps, delay 10 steps, check yes
  max neighbors/atom: 2000, page size: 100000
  master list distance cutoff = 3.8
  ghost atom cutoff = 3.8
  binsize = 1.9, bins = 9 9 9
  1 neighbor lists, perpetual/occasional/extra = 1 0 0
  (1) pair lj/cut, perpetual
      attributes: half, newton on
      pair build: half/bin/atomonly/newton
      stencil: half/bin/3d
      bin: standard

#############################
#   M E L T   S Y S T E M   #
#############################

velocity all create 2.4 9622624 mom yes dist gaussian # Assign velocities
                                                    # Temperature 2.4, random number seed, zero linear momentum
						                                                        # Gaussian distribution

timestep 0.002   # simulation timestep
thermo 1000       # output thermodynamic data every 1000 steps

# Define a fix  in this case with index 1 applied to all
# particles in the simulation. This fix is for simulations
# in the anisotropic NPT ensemble. Note that we use the MTK
# correction.
fix 1 all npt temp 2.4 2.4 0.1 iso 5.68 5.68 0.5 mtk yes tchain 5 pchain 5 # Use NPT ensemble
                                                                         # Set temperature and pressure and damping
                                                                         # Numbers of thermostats in chain and in barostat
run 1000         # run for 10000 steps
Per MPI rank memory allocation (min/avg/max) = 3.642 | 3.644 | 3.648 Mbytes
Step Temp E_pair E_mol TotEng Press Volume 
       0          2.4   -8.3859253            0   -4.7868253   -2.2405722         4000 
    1000    2.3675277   -4.4709979            0  -0.92059417    5.6600046    5150.2326 
Loop time of 0.225163 on 48 procs for 1000 steps with 4000 atoms

Performance: 767443.420 tau/day, 4441.223 timesteps/s
99.3% CPU use with 48 MPI tasks x no OpenMP threads

MPI task timing breakdown:
Section |  min time  |  avg time  |  max time  |%varavg| %total
---------------------------------------------------------------
Pair    | 0.092423   | 0.10116    | 0.11875    |   1.7 | 44.93
Neigh   | 0.017816   | 0.019022   | 0.022569   |   0.7 |  8.45
Comm    | 0.061971   | 0.0794     | 0.090383   |   2.3 | 35.26
Output  | 2.4426e-05 | 2.5449e-05 | 3.2358e-05 |   0.0 |  0.01
Modify  | 0.019884   | 0.023984   | 0.030528   |   2.2 | 10.65
Other   |            | 0.001576   |            |       |  0.70

Nlocal:        83.3333 ave          90 max          75 min
Histogram: 3 2 3 4 10 0 12 2 7 5
Nghost:        1388.62 ave        1413 max        1360 min
Histogram: 1 2 4 4 7 12 8 6 2 2
Neighs:        7393.46 ave        8492 max        6395 min
Histogram: 2 3 7 3 11 8 7 4 2 1

Total # of neighbors = 354886
Ave neighs/atom = 88.721500
Neighbor list builds = 87
Dangerous builds = 21

# Equilibrate just above the melting temperature to avoid step fn in T

fix 1 all npt temp 1.25 1.25 0.1 iso 5.68 5.68 0.5 mtk yes tchain 5 pchain 5
run 1000
Per MPI rank memory allocation (min/avg/max) = 3.642 | 3.644 | 3.648 Mbytes
Step Temp E_pair E_mol TotEng Press Volume 
    1000    2.3675277   -4.4709979            0  -0.92059417    5.6600046    5150.2326 
    2000    1.2613379    -5.848842            0   -3.9573082    5.7258602    4335.5859 
Loop time of 0.214419 on 48 procs for 1000 steps with 4000 atoms

Performance: 805897.743 tau/day, 4663.760 timesteps/s
99.6% CPU use with 48 MPI tasks x no OpenMP threads

MPI task timing breakdown:
Section |  min time  |  avg time  |  max time  |%varavg| %total
---------------------------------------------------------------
Pair    | 0.089434   | 0.099983   | 0.11179    |   1.1 | 46.63
Neigh   | 0.015614   | 0.016612   | 0.019505   |   0.4 |  7.75
Comm    | 0.060171   | 0.072837   | 0.085447   |   1.7 | 33.97
Output  | 2.3247e-05 | 2.4384e-05 | 3.0711e-05 |   0.0 |  0.01
Modify  | 0.019908   | 0.023053   | 0.026731   |   1.4 | 10.75
Other   |            | 0.00191    |            |       |  0.89

Nlocal:        83.3333 ave          91 max          78 min
Histogram: 6 4 3 15 4 4 7 1 2 2
Nghost:        1554.67 ave        1575 max        1533 min
Histogram: 2 4 1 5 7 14 6 4 2 3
Neighs:        8779.02 ave        9592 max        8178 min
Histogram: 5 6 7 5 5 7 7 1 3 2

Total # of neighbors = 421393
Ave neighs/atom = 105.34825
Neighbor list builds = 76
Dangerous builds = 9


# Small amount of linear quench

fix 1 all npt temp 1.25 ${temp} 0.1 iso 5.68 5.68 0.5 mtk yes tchain 5 pchain 5
fix 1 all npt temp 1.25 0.27 0.1 iso 5.68 5.68 0.5 mtk yes tchain 5 pchain 5
run 2000
Per MPI rank memory allocation (min/avg/max) = 3.643 | 3.645 | 3.648 Mbytes
Step Temp E_pair E_mol TotEng Press Volume 
    2000    1.2613379    -5.848842            0   -3.9573082    5.7258602    4335.5859 
    3000   0.86066343   -6.4546747            0   -5.1640023      5.70263    4075.4523 
    4000   0.37234593   -7.1707343            0    -6.612355    5.6644015    3812.5604 
Loop time of 0.446204 on 48 procs for 2000 steps with 4000 atoms

Performance: 774533.087 tau/day, 4482.252 timesteps/s
99.7% CPU use with 48 MPI tasks x no OpenMP threads

MPI task timing breakdown:
Section |  min time  |  avg time  |  max time  |%varavg| %total
---------------------------------------------------------------
Pair    | 0.20914    | 0.22237    | 0.23571    |   1.4 | 49.84
Neigh   | 0.023462   | 0.024285   | 0.026099   |   0.3 |  5.44
Comm    | 0.13452    | 0.14986    | 0.16378    |   1.7 | 33.59
Output  | 4.7343e-05 | 4.8819e-05 | 6.0349e-05 |   0.0 |  0.01
Modify  | 0.038437   | 0.044232   | 0.049535   |   1.5 |  9.91
Other   |            | 0.005406   |            |       |  1.21

Nlocal:        83.3333 ave          89 max          78 min
Histogram: 3 3 8 5 8 4 6 4 4 3
Nghost:        1692.04 ave        1709 max        1672 min
Histogram: 1 2 4 3 9 10 6 9 3 1
Neighs:        10085.8 ave       11118 max        9401 min
Histogram: 3 6 10 8 4 9 4 2 1 1

Total # of neighbors = 484118
Ave neighs/atom = 121.02950
Neighbor list builds = 106
Dangerous builds = 0

#############################
# F R E E Z E  S Y S T E M  #
#############################

# Define solid atoms. This closely follows ten Wolde  Ruiz-Montero and Frenkel  Faraday Discuss  1996  104  93-110
# Compute components of the per-atom q6 vector
compute q6 all orientorder/atom degrees 1 6 components 6 nnn NULL cutoff 1.3 # compute the Q6 parameter.
                                                                             # Use all neighbours within 1.3 unit cell.

# get number of connections
compute coord_number all coord/atom orientorder q6 0.5

# An atom is solid if it has 8 or more connections (of a possible 14)
variable is_solid atom c_coord_number>=8
group solid dynamic all var is_solid    # Must be dynamic to update
dynamic group solid defined

# do clustering
compute cluster solid cluster/atom 1.3 # Create a cluster where all atoms within are solid and max 1.3 units from another member

# define chunks one chunk per cluster
compute clus_chunks solid chunk/atom c_cluster nchunk every compress yes  # Says which atoms are in which chunk

# count the size of each chunk
compute size_chunks solid property/chunk clus_chunks count


# Find the maximum entry in the vector of chunk sizes
variable max_n equal max(c_size_chunks)


# Thermo style which includes this variable
thermo_style custom step temp pe vol v_max_n

thermo ${N}  # Print the thermo information every 100 steps
thermo 1000  

# Reset the npt fix at a lower temperature (below freezing)
fix 1  all npt temp  ${temp} ${temp}  0.1  iso  5.68  5.68  0.5  mtk yes tchain  5  pchain  5
fix 1  all npt temp  0.27 ${temp}  0.1  iso  5.68  5.68  0.5  mtk yes tchain  5  pchain  5
fix 1  all npt temp  0.27 0.27  0.1  iso  5.68  5.68  0.5  mtk yes tchain  5  pchain  5

dump dmp2 all dcd ${N} traj_${rand}.dcd
dump dmp2 all dcd 1000 traj_${rand}.dcd
dump dmp2 all dcd 1000 traj_462431.dcd


# fix rnuntil all halt ${N} v_max_n >= 3980 error soft message no   # Stop when solidified


run 1000000 # 5000000  # Run for this many steps
Neighbor list info ...
  update every 1 steps, delay 10 steps, check yes
  max neighbors/atom: 2000, page size: 100000
  master list distance cutoff = 3.8
  ghost atom cutoff = 3.8
  binsize = 1.9, bins = 9 9 9
  4 neighbor lists, perpetual/occasional/extra = 1 3 0
  (1) pair lj/cut, perpetual
      attributes: half, newton on
      pair build: half/bin/atomonly/newton
      stencil: half/bin/3d
      bin: standard
  (2) compute orientorder/atom, occasional
      attributes: full, newton on
      pair build: full/bin/atomonly
      stencil: full/bin/3d
      bin: standard
  (3) compute coord/atom, occasional
      attributes: full, newton on
      pair build: full/bin/atomonly
      stencil: full/bin/3d
      bin: standard
  (4) compute cluster/atom, occasional
      attributes: full, newton on
      pair build: full/bin/atomonly
      stencil: full/bin/3d
      bin: standard
Per MPI rank memory allocation (min/avg/max) = 9.387 | 9.391 | 9.393 Mbytes
Step Temp PotEng Volume v_max_n 
    4000   0.37234593   -7.1707343    3812.5604           46 
    5000   0.27023598   -7.3753088     3744.485          153 
    6000   0.26987664   -7.3958498    3731.6196          106 
    7000   0.27155447   -7.4211259     3735.112          117 
    8000   0.27058684   -7.4246839    3728.1906          138 
    9000   0.27137455   -7.4339131    3728.0333          245 
   10000   0.26786809   -7.4444993    3728.4771          144 
   11000    0.2694242   -7.4370074    3726.8601          256 
   12000   0.27366206   -7.4523146    3725.0626          273 
   13000   0.26617583   -7.4568672    3726.5439          312 
   14000   0.26735809    -7.449783     3727.359          199 
   15000    0.2749565   -7.4570034    3729.5231          271 
   16000   0.27246837   -7.4456276    3721.4839          464 
   17000    0.2711658   -7.4520393    3724.5869          260 
   18000   0.26909529   -7.4570292    3725.2677          368 
   19000   0.26908176   -7.4483234    3725.6248          462 
   20000   0.27189479   -7.4565137    3727.7708          349 
   21000   0.27578237   -7.4448294    3720.8267          477 
   22000    0.2794576    -7.455131    3722.1772          481 
   23000   0.27068385   -7.4572554    3722.2899          508 
   24000   0.26797004    -7.454519    3716.0845          597 
   25000   0.27273013   -7.4515168    3720.2455          572 
   26000   0.27214082   -7.4636096    3724.2486          584 
   27000   0.26864164    -7.458198    3722.7548          562 
   28000   0.27136433   -7.4664722    3718.7505          609 
   29000   0.26842877   -7.4653466    3726.3096          617 
   30000   0.27264384   -7.4651312    3716.3472          629 
   31000   0.27216368   -7.4700254    3720.6127          617 
   32000   0.26627342   -7.4647425    3715.1245          702 
   33000   0.26739204   -7.4800498    3722.0648          723 
   34000   0.26942573   -7.4712005    3716.0976          772 
   35000   0.26747516   -7.4678226    3714.8309          721 
   36000   0.26967188   -7.4706066    3712.0327          737 
   37000   0.27051626   -7.4728809    3719.3027          679 
   38000   0.27600995   -7.4706597    3720.7655          693 
   39000   0.26933394   -7.4705425    3717.2331          726 
   40000   0.27104745   -7.4812432    3720.9281          731 
   41000   0.26941064   -7.4768628    3717.6871          754 
   42000   0.27390017   -7.4768816     3714.733          688 
   43000   0.26563157   -7.4842435    3721.5748          749 
   44000   0.26541298    -7.467923    3710.3653          727 
   45000    0.2690934   -7.4752483    3715.1414          749 
   46000   0.26461622   -7.4712963    3712.7547          750 
   47000   0.26851108   -7.4837446    3712.4156          805 
   48000   0.27128646   -7.4756554    3717.2841          761 
   49000   0.27130962   -7.4756107    3716.6304          757 
   50000   0.27181347   -7.4833898    3718.0672          769 
   51000   0.27351135   -7.4754651    3714.7688          730 
   52000   0.27075556   -7.4862043    3712.9094          687 
   53000   0.27513316   -7.4792382    3717.0667          729 
   54000   0.27006871   -7.4747863    3714.0719          732 
   55000   0.27233631    -7.485763    3716.5573          779 
   56000   0.26385878   -7.4833566     3716.248          708 
   57000   0.27001595   -7.4744917    3716.6793          776 
   58000   0.26181734   -7.4744776    3715.5053          767 
   59000    0.2681525   -7.4786714    3718.2001          760 
   60000   0.26845121   -7.4826087    3717.2157          733 
   61000   0.27229416    -7.486266    3720.9542          802 
   62000   0.26628164   -7.4734064    3713.4001          762 
   63000   0.26411831   -7.4743544    3713.5571          832 
   64000   0.27441914   -7.4720813    3708.8046          648 
   65000   0.27408472   -7.4792422    3717.5813          859 
   66000   0.27148557   -7.4821964    3720.2667          774 
   67000   0.27065949   -7.4815775    3713.4212          790 
   68000   0.27167077   -7.4735415     3714.718          769 
   69000   0.26812609   -7.4823454    3714.3282          861 
   70000   0.27703987   -7.4850129    3715.5073          817 
   71000   0.27107605   -7.4763956    3712.9034          786 
   72000    0.2767467   -7.4826959     3716.956          778 
   73000   0.27188287   -7.4800446    3717.3071          764 
   74000     0.267021   -7.4759266    3717.3614          662 
   75000   0.27156722   -7.4811012    3716.5578          744 
   76000   0.26760157   -7.4756338    3712.6635          818 
   77000   0.27279095   -7.4743438    3715.1995          832 
   78000     0.275371   -7.4820534    3712.3893          892 
   79000   0.27352071   -7.4861069    3715.3933          854 
   80000   0.27050523   -7.4763885    3714.1058          893 
   81000   0.27163089   -7.4773899    3717.8856          878 
   82000   0.26824921    -7.478943    3711.9428          858 
   83000   0.26047396   -7.4877857    3715.5007          916 
   84000   0.27090588   -7.4894021    3717.2905          907 
   85000   0.26591451   -7.4870288    3716.3789          976 
   86000   0.27273124   -7.4879337    3709.0598          941 
   87000   0.26966139   -7.4870659     3714.047          954 
   88000   0.27206841   -7.4799521    3714.2065          986 
   89000   0.27326211   -7.4850433    3712.2122          974 
   90000   0.27341148    -7.485141    3711.4046          987 
   91000   0.27151905   -7.4914515     3714.975         1048 
   92000   0.27399413   -7.4916496    3716.6284         1000 
   93000   0.26705238    -7.480799    3713.0223          975 
   94000   0.27030403   -7.5008657    3715.7582          981 
   95000   0.26678137    -7.477628    3714.1797          935 
   96000   0.27417107   -7.4768223    3708.8318          961 
   97000   0.27183269    -7.491866    3711.4627          985 
   98000   0.27109739   -7.4892335    3714.6904          997 
   99000    0.2708014   -7.4859041    3705.7824          981 
  100000   0.27379966   -7.4920899    3710.7948         1013 
  101000   0.26886408   -7.4909472    3716.0823         1009 
  102000    0.2727782   -7.4794736     3709.472         1022 
  103000   0.26556771   -7.4863758    3708.9758         1021 
  104000   0.26999581   -7.4921819     3718.267         1031 
  105000   0.26437289   -7.4940842     3712.511          960 
  106000    0.2668352   -7.4847052    3713.6541         1102 
  107000   0.26837101   -7.4843205    3714.1244         1028 
  108000   0.26911323    -7.487709    3712.7575         1069 
  109000   0.26419715   -7.4960377    3711.9466         1036 
  110000   0.27031393   -7.4860007    3708.2539         1100 
  111000   0.27040659   -7.4912739    3713.3276         1048 
  112000   0.27342694   -7.4879311    3709.7528         1092 
  113000   0.27459248   -7.4920311    3708.3437         1113 
  114000   0.26372084   -7.4868214    3706.0924         1118 
  115000   0.27345672   -7.4887938     3707.983         1087 
  116000   0.26240762   -7.4872305    3707.1678         1078 
  117000   0.27613482   -7.4907164    3708.9909         1070 
  118000   0.26729416   -7.4966524    3708.1704         1104 
  119000   0.26314409   -7.4963969    3708.4859         1080 
  120000    0.2681882    -7.485841    3709.8483         1106 
  121000   0.27419859   -7.5023934    3718.1137         1079 
  122000   0.27334008   -7.4908338    3706.6348         1105 
  123000    0.2702891    -7.499191    3710.5041         1109 
  124000   0.27132123   -7.4992111    3709.9049         1132 
  125000   0.26815846    -7.506008    3716.3205         1083 
  126000   0.26847741   -7.5027535     3713.827         1113 
  127000   0.26569583   -7.4984251    3711.0473         1132 
  128000   0.28007265   -7.4945255    3709.4413         1151 
  129000   0.27043588   -7.4974895    3709.5677         1190 
  130000   0.27102215   -7.5061095    3711.3497         1155 
  131000   0.26841803   -7.4933971     3708.312         1260 
  132000   0.27242807   -7.5005629    3708.3435         1231 
  133000   0.27089768   -7.5043143    3712.7805         1201 
  134000   0.26972139    -7.503074    3717.7728         1174 
  135000   0.27609144   -7.4900899    3709.9804         1208 
  136000   0.27006136   -7.4900556    3709.5963         1248 
  137000   0.26822336   -7.4912266    3708.1854         1232 
  138000   0.27077417   -7.5075076    3712.7706         1216 
  139000   0.27338627   -7.4955918    3707.2145         1259 
  140000    0.2659709    -7.493965     3706.186         1257 
  141000   0.27630863   -7.4963804    3704.6285         1247 
  142000   0.27811363   -7.4944423    3713.8635         1246 
  143000   0.27479316   -7.5068877    3708.4569         1221 
  144000   0.26572144   -7.4967809    3706.2935         1213 
  145000   0.26587319   -7.4877243    3707.7842         1217 
  146000   0.27014467   -7.4982757    3710.2784         1222 
  147000   0.27062927   -7.4864846    3702.1557         1159 
  148000   0.27044474   -7.5029974    3710.4581         1204 
  149000   0.27216571   -7.4926795    3703.3237         1166 
  150000   0.27305802   -7.5099815    3709.7069         1163 
  151000    0.2683738   -7.5098011    3708.7568         1182 
  152000   0.26858915   -7.5003706    3704.4547         1198 
  153000   0.27107599   -7.5194634     3709.909         1112 
  154000   0.26857425    -7.501472    3706.6068         1175 
  155000   0.27111256   -7.5078573    3706.4358         1187 
  156000   0.26870533   -7.5083222    3710.9442         1189 
  157000   0.26979189    -7.505005     3706.763         1182 
  158000   0.27166398   -7.5031925    3706.4903         1205 
  159000   0.27332899   -7.5022527    3709.3066         1214 
  160000   0.27577571   -7.5073494    3709.7889         1180 
  161000   0.26859243   -7.5086287    3707.8741         1138 
  162000    0.2611792   -7.5166864    3709.1364         1266 
  163000    0.2679346   -7.5049258    3707.0409         1248 
  164000   0.27336528   -7.4994268    3705.8366         1233 
  165000   0.27075874   -7.5071784    3706.2657         1186 
  166000   0.26500676   -7.5085143    3706.5914         1226 
  167000   0.27359572    -7.508863    3708.1068         1226 
  168000   0.27614876   -7.4963368    3707.0948         1229 
  169000    0.2711288   -7.5043062    3706.5133         1223 
  170000   0.27077034   -7.5050163    3706.8198         1208 
  171000   0.26969636   -7.5101894    3708.3323         1260 
  172000   0.27025669   -7.5115448    3706.2158         1280 
  173000    0.2708608   -7.5102719    3707.6893         1276 
  174000   0.27345948   -7.5138799    3707.5411         1216 
  175000   0.27344591   -7.5002636    3707.7146         1215 
  176000   0.27509563    -7.507994    3709.3664         1299 
  177000   0.27665637   -7.5012096    3704.4909         1245 
  178000   0.27334798   -7.4964886    3703.1278         1249 
  179000   0.27230957   -7.5024295    3709.0189         1226 
  180000   0.27233085   -7.5069372    3706.4035         1280 
  181000   0.26809416   -7.5042431    3709.8646         1281 
  182000   0.27286024   -7.5088515    3703.3126         1275 
  183000   0.26949682   -7.5018735    3705.1701         1266 
  184000   0.27308361    -7.498157    3701.4324         1200 
  185000   0.27079591    -7.503393     3703.694         1259 
  186000   0.26922361   -7.4993725    3702.5585         1288 
  187000   0.27661215   -7.5089194     3709.595         1267 
  188000   0.26941971   -7.5217195    3710.0746         1273 
  189000   0.27044383   -7.5178504    3705.0237         1246 
  190000   0.27325829   -7.5104917    3706.1082         1287 
  191000   0.27644761   -7.5163364    3709.2584         1238 
  192000   0.27209001   -7.5135305    3703.2588         1283 
  193000   0.27429736   -7.5187287    3707.0529         1247 
  194000   0.27136303   -7.5215876    3710.4146         1259 
  195000   0.26661545   -7.5108615    3704.6468         1270 
  196000   0.26831499   -7.4984207    3704.7925         1233 
  197000   0.27452161   -7.5113518    3708.5874         1295 
  198000   0.26222626   -7.5217769    3707.3364         1255 
  199000   0.26524636   -7.5143277    3706.0321         1275 
  200000   0.26682504   -7.5046997    3700.2939         1300 
  201000   0.27553683   -7.5113573    3705.8099         1279 
  202000   0.26188395   -7.5109198    3706.4426         1299 
  203000   0.26721366   -7.5059394    3703.7562         1270 
  204000     0.268627   -7.5036535    3703.9959         1232 
  205000   0.27797609    -7.520709    3711.0547         1296 
  206000   0.26826067   -7.5080818    3707.0996         1271 
  207000   0.26590497   -7.5098893    3701.5826         1338 
  208000   0.27115657   -7.5185441    3710.1276         1352 
  209000   0.26737354   -7.5069005    3706.4516         1286 
  210000   0.27207388   -7.5094216    3709.9694         1261 
  211000   0.27402081   -7.5127879    3704.2418         1334 
  212000   0.26738813   -7.5150563    3711.4332         1284 
  213000   0.27093922   -7.5023629    3701.5189         1321 
  214000   0.26794828    -7.504348      3702.61         1293 
  215000   0.28128308   -7.5147251     3713.734         1351 
  216000   0.26956295   -7.5075636    3705.4766         1342 
  217000    0.2694038   -7.5083405    3703.9553         1317 
  218000   0.27011633   -7.5103956    3708.0657         1324 
  219000   0.27719788   -7.5119499    3708.0324         1282 
  220000   0.26729577   -7.5134178    3708.8741         1320 
  221000   0.26553133   -7.5049355    3706.6208         1313 
  222000    0.2683828    -7.511895    3704.6115         1341 
  223000   0.27484631   -7.5164077    3709.6694         1335 
  224000   0.26630979   -7.5001649    3700.5374         1301 
  225000   0.27176412   -7.5158595    3707.4971         1334 
  226000   0.26745689   -7.5141088    3710.1038         1304 
  227000    0.2675536   -7.5225607    3710.2585         1321 
  228000   0.27056057   -7.5121336     3704.614         1299 
  229000   0.27725418   -7.5180255     3709.182         1342 
  230000   0.26967205    -7.518173    3701.9077         1300 
  231000   0.26594594   -7.5179931      3711.84         1322 
  232000   0.26596707   -7.5078597    3710.6541         1330 
  233000   0.27435589   -7.5213022    3711.3846         1331 
  234000   0.26828208    -7.508112    3704.0222         1304 
  235000   0.26471374   -7.5117513    3709.0134         1349 
  236000   0.27093649   -7.5199655    3705.1646         1301 
  237000   0.26959249   -7.5215126    3709.9015         1332 
  238000    0.2696984   -7.5131564    3706.5761         1327 
  239000    0.2749392   -7.5207505    3705.7382         1379 
  240000   0.26612894   -7.5088552    3707.3508         1359 
  241000   0.26981212   -7.5155816    3707.5059         1309 
  242000   0.26527382    -7.515203    3702.9771         1308 
  243000   0.26745508    -7.507089    3702.0258         1338 
  244000   0.27862913   -7.5165444    3705.1384         1333 
  245000   0.27407375   -7.5072928    3701.8332         1311 
  246000   0.26983581    -7.516535      3707.25         1327 
  247000   0.26751644   -7.5241672    3707.1622         1357 
  248000   0.26554917   -7.5155302    3703.6858         1344 
  249000   0.26340709   -7.5191835    3709.4655         1304 
  250000   0.26986436   -7.5130687    3707.3593         1328 
  251000   0.27241635   -7.5113743    3701.9465         1345 
  252000   0.27154879    -7.506551    3705.6617         1378 
  253000   0.26654623   -7.5209846    3705.8927         1377 
  254000   0.27233316    -7.516381    3703.9906         1326 
  255000   0.27266478   -7.5131098    3702.7422         1319 
  256000   0.27210561   -7.5089387    3704.2421         1290 
  257000   0.26896253   -7.5149137    3701.9781         1288 
  258000   0.26786794   -7.5102492    3711.8417         1294 
  259000   0.27518928    -7.516722    3708.0166         1329 
  260000   0.27562234   -7.5191785    3709.9296         1337 
  261000   0.26480392   -7.5117704    3708.3247         1275 
  262000   0.27206292   -7.5064975    3705.0333         1362 
  263000   0.27127191   -7.5311229    3711.6234         1339 
  264000   0.26673285   -7.5153907    3709.4739         1307 
  265000   0.27252298   -7.5218534    3711.1167         1341 
  266000   0.27105931   -7.5221411    3709.3757         1367 
  267000    0.2719345   -7.5144043    3707.5678         1352 
  268000   0.27613414   -7.5034554    3707.0565         1367 
  269000   0.26482952   -7.5158421    3705.4363         1342 
  270000    0.2719229   -7.5119271    3709.2158         1410 
  271000   0.27129458   -7.5119168    3705.5541         1345 
  272000   0.27209019   -7.5089486    3701.9558         1371 
  273000   0.26600149   -7.5091288    3703.2687         1430 
  274000   0.26972316   -7.5107534    3695.1335         1442 
  275000   0.27344049   -7.5109549    3695.6601         1438 
  276000   0.27139848   -7.5091799    3706.6461         1436 
  277000   0.27038489   -7.5165871     3706.441         1421 
  278000   0.26885261   -7.5156048     3706.522         1432 
  279000   0.27516332   -7.5176945    3703.9195         1405 
  280000   0.27655208    -7.521975    3699.5213         1480 
  281000   0.27334969   -7.5243877    3703.7627         1415 
  282000    0.2736153   -7.5211604    3705.8738         1413 
  283000    0.2670161   -7.5278989    3705.7273         1503 
  284000   0.27650995   -7.5195672    3701.8721         1498 
  285000   0.27401333   -7.5190901     3703.814         1442 
  286000   0.27265874   -7.5316956     3705.496         1505 
  287000   0.27786971   -7.5363768    3706.4212         1474 
  288000   0.26797431   -7.5193434    3703.0906         1451 
  289000    0.2704893   -7.5202106    3706.8019         1487 
  290000   0.27395155   -7.5140683    3699.3151         1520 
  291000   0.27005439    -7.519156    3699.0615         1451 
  292000   0.26946856   -7.5111922    3707.2759         1453 
  293000   0.27035556   -7.5109933    3700.2062         1561 
  294000   0.26883756   -7.5209398    3698.6349         1497 
  295000   0.26795359   -7.5207682    3702.1222         1517 
  296000   0.26699343   -7.5276694    3706.0749         1480 
  297000   0.26420006   -7.5259763    3703.9278         1524 
  298000   0.27203681   -7.5147816    3694.5795         1513 
  299000   0.26538994   -7.5248949     3705.123         1464 
  300000   0.26948467   -7.5063492    3699.0717         1546 
  301000   0.27221353   -7.5232332    3700.3065         1477 
  302000   0.27392084   -7.5200669    3704.5763         1469 
  303000   0.27619615   -7.5070375    3701.2748         1523 
  304000   0.26720333   -7.5222486    3702.7343         1538 
  305000   0.27059639   -7.5213522    3703.7368         1565 
  306000   0.27218902   -7.5256874    3704.7309         1556 
  307000   0.27073803    -7.517225    3694.7246         1580 
  308000   0.27100497   -7.5257104    3703.1993         1548 
  309000    0.2761926   -7.5095491    3704.4402         1529 
  310000   0.26593776   -7.5206857    3703.9113         1505 
  311000   0.26993197   -7.5203264    3699.7798         1502 
  312000    0.2719555   -7.5148874    3704.8455         1535 
  313000   0.26852237   -7.5378894    3700.4758         1564 
  314000   0.27054599   -7.5250772    3703.3599         1507 
  315000   0.26851745   -7.5331576    3705.1767         1576 
  316000   0.26965579   -7.5328845    3708.1059         1519 
  317000    0.2726721    -7.518214    3705.3431         1517 
  318000   0.27045968   -7.5215121    3703.4616         1508 
  319000   0.27367093   -7.5272363    3705.6869         1489 
  320000   0.26710188    -7.520173    3695.9569         1570 
  321000     0.270405   -7.5135373    3701.7469         1552 
  322000   0.27201475   -7.5230824    3705.8494         1556 
  323000   0.27017907   -7.5299495    3703.6364         1508 
  324000   0.26196817   -7.5256194    3704.8882         1562 
  325000   0.27321016   -7.5252988    3697.1232         1584 
  326000    0.2664029   -7.5224305    3703.6013         1604 
  327000   0.26922613    -7.524827    3701.3938         1558 
  328000   0.26597149   -7.5225215    3707.0256         1589 
  329000   0.27248992   -7.5279839    3704.7597         1579 
  330000   0.26959174   -7.5176269    3703.6029         1520 
  331000   0.27293505   -7.5148855    3701.5016         1594 
  332000   0.27350655   -7.5252032    3699.4668         1519 
  333000   0.27158373   -7.5275364    3700.2648         1556 
  334000   0.26522759   -7.5157568    3707.5516         1547 
  335000   0.27035072   -7.5251811    3699.5493         1563 
  336000    0.2681136   -7.5237538    3701.1377         1528 
  337000    0.2674336   -7.5243052    3699.3241         1583 
  338000   0.26840985   -7.5155282    3694.8031         1540 
  339000   0.27085328   -7.5232563    3705.8357         1551 
  340000   0.26726581   -7.5307587    3704.2516         1478 
  341000   0.26887911   -7.5236468    3705.2924         1571 
  342000   0.27675514   -7.5218558    3702.0381         1565 
  343000   0.26931098   -7.5256833    3703.2177         1522 
  344000   0.26705699    -7.533013    3704.5609         1574 
  345000   0.27025016   -7.5181814    3703.5784         1559 
  346000   0.26650733   -7.5243953    3703.2996         1571 
  347000   0.27365547   -7.5286522    3700.0687         1573 
  348000   0.27354837    -7.531831     3701.496         1601 
  349000   0.26875024   -7.5292039     3707.664         1555 
  350000   0.26650668   -7.5225258    3706.3795         1556 
  351000   0.27114426   -7.5275033    3705.1719         1564 
  352000   0.26970308   -7.5220408    3705.1611         1541 
  353000   0.27104367   -7.5239349    3701.5984         1564 
  354000   0.26656638   -7.5231298    3703.8089         1556 
  355000   0.27772114   -7.5361936    3698.8614         1528 
  356000   0.27132424   -7.5390173    3703.8573         1569 
  357000   0.26139052   -7.5138446    3699.1651         1558 
  358000   0.26911964   -7.5185722    3698.1731         1559 
  359000   0.27105975   -7.5305532    3704.5963         1549 
  360000   0.26557868   -7.5262733    3702.5116         1567 
  361000   0.26967025   -7.5289289    3703.9692         1562 
  362000   0.26999228   -7.5335715    3708.2035         1599 
  363000   0.26242911   -7.5289968    3701.2583         1653 
  364000   0.26847709   -7.5313914    3704.1636         1557 
  365000   0.27216176   -7.5149442     3703.048         1557 
  366000   0.26743261   -7.5287511    3702.0276         1609 
  367000   0.27068477   -7.5272776    3700.7619         1653 
  368000    0.2717665   -7.5301387    3700.6556         1641 
  369000   0.26504102   -7.5298458    3701.0716         1609 
  370000   0.27574945   -7.5313579    3705.6253         1622 
  371000    0.2685141   -7.5297855     3701.235         1619 
  372000   0.27056354   -7.5252453    3702.3967         1637 
  373000   0.26928003   -7.5228318    3698.2374         1600 
  374000   0.26982388    -7.532416    3705.7621         1654 
  375000   0.27529757   -7.5299952    3702.0449         1696 
  376000   0.27012523   -7.5294088    3700.2751         1639 
  377000   0.26827889   -7.5286837    3701.2143         1651 
  378000   0.26821499   -7.5258623    3698.8752         1668 
  379000   0.27175389   -7.5200543    3698.3273         1687 
  380000    0.2684806   -7.5284308    3703.7749         1676 
  381000   0.27032706   -7.5340315    3700.5683         1694 
  382000   0.27059882   -7.5331504     3703.749         1672 
  383000   0.27109622   -7.5188956    3698.9832         1712 
  384000   0.27249527    -7.526946    3698.8812         1707 
  385000   0.26304518   -7.5259475    3703.3923         1655 
  386000   0.27388683   -7.5199936    3693.2333         1699 
  387000   0.26615397   -7.5286283    3699.5618         1663 
  388000   0.26333894   -7.5325049    3704.0099         1647 
  389000   0.27000774   -7.5175738    3694.9743         1659 
  390000   0.26861102   -7.5225902    3705.8322         1742 
  391000   0.26622392   -7.5164301     3699.453         1706 
  392000   0.26492057   -7.5278779    3699.4613         1714 
  393000   0.26809679   -7.5251085    3696.6182         1696 
  394000   0.27513766   -7.5342052    3698.5781         1715 
  395000   0.27436467   -7.5381876    3698.5935         1746 
  396000    0.2642268   -7.5202536    3700.5578         1747 
  397000   0.26986482   -7.5450931    3700.5624         1750 
  398000   0.26844771   -7.5327385    3699.9944         1709 
  399000   0.26794584   -7.5308789    3696.9655         1761 
  400000   0.26962668   -7.5229986    3696.6097         1811 
  401000   0.26729234   -7.5201136    3695.6298         1737 
  402000   0.26838043   -7.5386191    3702.4946         1766 
  403000   0.27176534   -7.5381515    3701.5723         1770 
  404000    0.2720551    -7.525165    3699.9551         1791 
  405000   0.26571086   -7.5308071    3697.4669         1759 
  406000   0.26144007   -7.5283244    3698.4408         1784 
  407000   0.26644898    -7.530237    3693.1015         1831 
  408000   0.27075068   -7.5346101    3696.1501         1888 
  409000   0.27061637   -7.5346776    3700.2188         1869 
  410000   0.27018157   -7.5379702    3701.9971         1865 
  411000   0.27548415   -7.5373315    3694.5352         1876 
  412000   0.27002186   -7.5351224    3701.7799         1871 
  413000   0.26641095   -7.5390613    3695.4285         1928 
  414000   0.26963211   -7.5369461    3695.0055         1926 
  415000   0.27007312   -7.5418621    3696.8858         1973 
  416000    0.2690442   -7.5466127    3700.8138         1997 
  417000   0.27331451    -7.533162    3694.4541         1929 
  418000   0.26568759   -7.5469314     3698.305         1975 
  419000   0.27184571   -7.5434646     3695.086         1977 
  420000   0.26800905   -7.5421074     3700.483         1931 
  421000   0.27097627    -7.549154    3699.1409         1970 
  422000   0.26915389   -7.5466699    3696.3692         1899 
  423000   0.26789678   -7.5398838    3698.4821         1999 
  424000   0.26845621   -7.5462813    3698.8884         1973 
  425000    0.2691728   -7.5261524     3696.073         1976 
  426000   0.27293611   -7.5353284    3693.7643         1971 
  427000   0.26243595   -7.5523614     3701.218         1947 
  428000   0.26898322   -7.5488659    3698.5001         1999 
  429000     0.271621   -7.5399561     3697.207         1980 
  430000   0.27388398   -7.5382339    3697.4817         2029 
  431000   0.26879459   -7.5571087    3702.8262         2088 
  432000   0.27474811   -7.5496328    3701.3511         2075 
  433000   0.26464852    -7.545953    3697.1204         2064 
  434000   0.27135193   -7.5422249     3699.324         2126 
  435000   0.27334642    -7.556012    3693.8873         2115 
  436000   0.26972811   -7.5612917     3695.276         2112 
  437000   0.26994553   -7.5475886     3694.015         2124 
  438000   0.26898476   -7.5481305    3698.1194         2130 
  439000   0.26714947   -7.5518175    3694.6248         2137 
  440000   0.27590859   -7.5570821    3698.1054         2153 
  441000   0.26688497   -7.5498608    3693.0466         2132 
  442000   0.27065425   -7.5455145    3694.7815         2053 
  443000    0.2685027   -7.5489529    3698.1211         2156 
  444000   0.26910403   -7.5487942    3699.0123         2133 
  445000   0.26701846   -7.5524373    3699.8728         2133 
  446000   0.27076836   -7.5513173    3691.6564         2188 
  447000   0.26904817   -7.5500335    3701.4655         2160 
  448000   0.26344652   -7.5475185    3690.0687         2176 
  449000    0.2710377   -7.5588733    3696.0031         2255 
  450000   0.27159581   -7.5507891    3689.2025         2292 
  451000   0.27119284   -7.5546081    3688.9604         2301 
  452000   0.26787223   -7.5650523    3700.0628         2276 
  453000   0.26885627   -7.5546818    3688.6246         2288 
  454000   0.27039397   -7.5694556    3698.2832         2358 
  455000   0.27559704   -7.5562864    3694.0961         2389 
  456000    0.2694415   -7.5613641    3688.1188         2315 
  457000   0.26479994   -7.5625851    3687.9584         2373 
  458000   0.26649529   -7.5595625    3688.9267         2369 
  459000   0.27129053   -7.5696133    3688.8072         2349 
  460000   0.27010611   -7.5731533    3694.6444         2401 
  461000   0.26876194   -7.5749531    3694.3799         2413 
  462000   0.27260332   -7.5719949    3691.7165         2379 
  463000   0.26473466   -7.5739721    3693.1892         2356 
  464000   0.26641406   -7.5762776    3688.5639         2387 
  465000   0.27000101   -7.5655131    3684.0703         2359 
  466000   0.27472707   -7.5599228    3687.7739         2382 
  467000   0.26653012   -7.5724506    3689.9631         2491 
  468000   0.26842631   -7.5815609    3695.9793         2460 
  469000   0.27141281   -7.5609219    3692.5082         2408 
  470000   0.26592318   -7.5771892    3688.8587         2400 
  471000   0.26636783   -7.5727664    3692.5718         2395 
  472000    0.2637561   -7.5694678    3687.6129         2430 
  473000   0.27317476   -7.5686483    3683.6925         2460 
  474000   0.27064316   -7.5789846    3687.7943         2416 
  475000   0.26819258   -7.5638535    3690.7337         2461 
  476000   0.26588927     -7.57695    3692.0362         2450 
  477000   0.27076065   -7.5701243    3686.1896         2470 
  478000    0.2698696   -7.5774904     3688.798         2451 
  479000   0.26680179   -7.5680005    3691.0031         2477 
  480000   0.27410478     -7.58556    3695.7632         2502 
  481000   0.26727547   -7.5870567    3693.3599         2558 
  482000   0.27103127   -7.5887834    3690.9466         2505 
  483000    0.2709531   -7.5741419    3683.7413         2540 
  484000   0.27087949   -7.5871228    3688.4596         2536 
  485000   0.26532381   -7.5844122    3688.5467         2528 
  486000   0.27011525   -7.5789123    3682.6141         2583 
  487000   0.27337842   -7.5838065    3690.7824         2527 
  488000   0.26914597   -7.5829039    3683.6255         2562 
  489000   0.27466537   -7.5951493    3691.5606         2626 
  490000    0.2718065   -7.5857989    3682.8083         2576 
  491000   0.26936889   -7.5921641    3684.7432         2670 
  492000   0.26515315   -7.6010721    3686.0019         2708 
  493000   0.26758232   -7.6043344    3688.5379         2717 
  494000   0.26756279   -7.6074232     3682.001         2789 
  495000    0.2654996   -7.6090971    3680.2818         2863 
  496000   0.26722599   -7.6069939    3675.3422         2875 
  497000   0.26924782   -7.6203674    3675.9094         2893 
  498000   0.26881489    -7.610437    3678.6477         2959 
  499000   0.26814319   -7.6260891    3677.9734         2974 
  500000   0.27199604   -7.6227588    3678.7123         2981 
  501000   0.27020572   -7.6259753    3677.7923         3008 
  502000   0.27788746    -7.628995    3679.6383         2980 
  503000   0.26389739   -7.6240177    3666.6173         3014 
  504000   0.26627567   -7.6199861    3671.8672         3058 
  505000   0.27415711    -7.618952    3672.3967         3044 
  506000    0.2621535    -7.636126    3668.6557         3023 
  507000   0.26572904   -7.6393266    3680.5147         3031 
  508000   0.26533929   -7.6391585    3673.2374         3057 
  509000   0.27309958   -7.6331108    3675.7438         3079 
  510000   0.27322489   -7.6436286    3671.4861         3106 
  511000   0.26781275   -7.6288015    3669.0603         3139 
  512000   0.27329104   -7.6334491    3668.2263         3153 
  513000   0.27264711   -7.6364291    3669.2111         3148 
  514000   0.27013022    -7.646076    3670.9248         3176 
  515000   0.26852089   -7.6420568    3670.6137         3158 
  516000   0.26996024   -7.6403711    3669.8305         3185 
  517000    0.2721775   -7.6464985    3666.5081         3207 
  518000   0.27064442   -7.6528831     3664.891         3219 
  519000   0.26680327   -7.6558789    3664.7836         3219 
  520000   0.27311479   -7.6644491    3667.1763         3210 
  521000   0.27331564   -7.6576547    3666.3446         3246 
  522000   0.27150953     -7.66145     3655.569         3330 
  523000    0.2710774   -7.6741259    3665.6795         3325 
  524000   0.26638812   -7.6683065    3663.8341         3325 
  525000   0.26835694   -7.6675973    3663.1294         3353 
  526000   0.26995459   -7.6755704    3662.6657         3406 
  527000   0.26678804   -7.6778534    3655.9065         3496 
  528000   0.27447385   -7.6851952     3662.673         3500 
  529000   0.26810538   -7.6836814    3654.2755         3543 
  530000   0.27501244   -7.6896252    3656.1654         3548 
  531000   0.27305519   -7.6967274    3657.1989         3583 
  532000   0.26374906   -7.7084081    3655.8082         3579 
  533000   0.26157419   -7.7074802     3650.768         3563 
  534000    0.2670991   -7.7202306    3650.5126         3689 
  535000   0.27056043   -7.7367891    3644.3649         3725 
  536000   0.26791921   -7.7509973    3643.2499         3739 
  537000   0.26380706    -7.757034    3637.5328         3810 
  538000    0.2678756   -7.7499962    3640.2198         3794 
  539000   0.26767926   -7.7503221    3639.1971         3808 
  540000   0.26007113   -7.7682875    3638.5972         3836 
  541000   0.26594451   -7.7686934    3639.5025         3812 
  542000   0.27254651    -7.774795     3639.739         3847 
  543000   0.27283828   -7.7702792    3637.7306         3846 
  544000   0.27182312   -7.7757721    3638.4728         3808 
  545000   0.26891147   -7.7728374    3640.0545         3813 
  546000   0.27615104   -7.7781274    3642.4704         3829 
  547000   0.27163481   -7.7780234    3627.4724         3820 
  548000    0.2700441   -7.7838289     3635.449         3860 
  549000   0.26667788   -7.7791628    3631.3872         3853 
  550000   0.26306631   -7.7840131    3638.0424         3832 
  551000   0.26743204   -7.7790807    3632.7754         3844 
  552000   0.26408318   -7.7907692    3630.0564         3841 
  553000   0.27538971   -7.7918428    3631.2684         3860 
  554000   0.27152367   -7.7908008    3636.3637         3859 
  555000   0.26714395   -7.8088782    3626.5666         3861 
  556000   0.27001072   -7.8179403    3631.1219         3864 
  557000    0.2717602   -7.8153895    3627.3427         3905 
  558000   0.27221478   -7.8069169    3623.4044         3882 
  559000   0.26832533   -7.8298179    3619.4666         3913 
  560000   0.27150629   -7.8330682    3625.8409         3896 
  561000   0.27130999   -7.8276802    3621.9371         3896 
  562000   0.27126011   -7.8428789    3625.1984         3901 
  563000   0.27450536   -7.8383919    3621.2757         3910 
  564000   0.26940255   -7.8417002    3619.1728         3889 
  565000   0.26676491   -7.8344467    3616.0995         3907 
  566000   0.27302204   -7.8405533    3623.0625         3913 
  567000    0.2673568   -7.8410703    3621.8897         3908 
  568000   0.26651297   -7.8357288    3616.2714         3919 
  569000   0.26802082   -7.8433466    3617.3363         3917 
  570000   0.27152392   -7.8358362    3623.3728         3919 
  571000   0.27311955   -7.8445671    3621.2595         3898 
  572000   0.27502935   -7.8435752    3616.9553         3910 
  573000   0.27595532   -7.8408982    3619.2125         3914 
  574000   0.27342733   -7.8451228    3623.0696         3911 
  575000   0.26868903    -7.847675    3624.4605         3894 
  576000   0.27158091   -7.8507956    3621.9921         3926 
  577000   0.26887866   -7.8366189    3614.0952         3932 
  578000   0.27067028   -7.8482298    3619.4438         3929 
  579000   0.26648188   -7.8533973    3617.7011         3927 
  580000   0.26989153   -7.8389942    3618.9014         3918 
  581000   0.27443587   -7.8557391    3617.1846         3935 
  582000   0.26693684   -7.8460643    3614.7015         3944 
  583000   0.26871284   -7.8517284    3620.1178         3938 
  584000   0.26536421    -7.850829    3620.9213         3928 
  585000   0.26442679    -7.847289    3617.7029         3926 
  586000   0.27406979   -7.8374264    3612.1175         3955 
  587000   0.27060261   -7.8494499    3617.0968         3933 
  588000   0.27273697   -7.8509831    3615.3556         3938 
  589000   0.27009281   -7.8574146    3621.6072         3926 
  590000   0.27026382   -7.8536355    3615.3318         3931 
  591000   0.27178628    -7.842859     3611.647         3941 
  592000   0.27101384   -7.8521865    3616.9997         3939 
  593000   0.26658487     -7.84996    3617.6198         3936 
  594000   0.27116128   -7.8490211    3622.7455         3937 
  595000   0.26477203    -7.850276    3613.9392         3928 
  596000    0.2697775   -7.8593086    3620.7518         3939 
  597000   0.27445296   -7.8517554    3619.8073         3929 
  598000    0.2726244   -7.8555939    3614.4565         3932 
  599000   0.26954021   -7.8552339    3621.0736         3931 
  600000   0.26596359   -7.8548566      3617.87         3932 
  601000   0.26286107    -7.851817    3621.3192         3931 
  602000   0.27482908   -7.8514162    3621.4173         3941 
  603000   0.27322439   -7.8485047    3617.3998         3931 
  604000   0.27316583   -7.8383064    3616.8087         3926 
  605000   0.26014301   -7.8379826    3619.0568         3937 
  606000   0.27880681   -7.8524839    3618.8817         3926 
  607000   0.27197871   -7.8531146    3622.7245         3926 
  608000   0.27026722   -7.8551408    3616.9051         3933 
  609000   0.27122105   -7.8539097    3616.8789         3928 
  610000   0.26561916   -7.8613628    3614.8781         3933 
  611000   0.27456433   -7.8466698    3615.7048         3937 
  612000   0.27034852   -7.8446569    3616.2629         3935 
  613000   0.27120696   -7.8427946     3617.664         3944 
  614000   0.27149731   -7.8538283    3612.7578         3943 
  615000   0.26742182   -7.8548318    3618.6665         3939 
  616000   0.27344663   -7.8623049    3622.9798         3935 
  617000   0.27148623   -7.8527544    3620.3612         3936 
  618000   0.27282561     -7.84362    3615.2084         3947 
  619000   0.27993813     -7.85203    3613.8304         3930 
  620000   0.26595223   -7.8439478    3613.6793         3933 
  621000    0.2722867   -7.8566482    3618.9541         3941 
  622000   0.26906334   -7.8493203    3614.6855         3941 
  623000   0.27119391   -7.8470021    3618.7572         3926 
  624000   0.27006664   -7.8587003     3618.603         3946 
  625000   0.26820113   -7.8582411      3619.31         3942 
  626000   0.26761787   -7.8445569    3611.5987         3943 
  627000    0.2742463    -7.848934    3614.0138         3930 
  628000   0.27015405   -7.8483103    3619.7646         3932 
  629000   0.27243023   -7.8541686    3617.9376         3932 
  630000   0.26077038    -7.840049    3617.4621         3933 
  631000    0.2667106   -7.8518572    3616.1121         3931 
  632000   0.27465944   -7.8420894    3615.9318         3937 
  633000   0.27315897   -7.8397039    3617.7729         3927 
  634000   0.27653041   -7.8487604    3616.8608         3919 
  635000   0.27264122     -7.85211    3619.6605         3935 
  636000   0.27198251   -7.8486644    3615.8976         3932 
  637000   0.27448298   -7.8495783    3618.1244         3923 
  638000   0.27272779   -7.8524227    3615.5922         3940 
  639000   0.26730717   -7.8501749    3616.9515         3929 
  640000   0.27147823   -7.8600152    3615.1358         3930 
  641000   0.27316954   -7.8505218    3612.3596         3945 
  642000   0.27472101     -7.84735    3615.2479         3940 
  643000     0.270408   -7.8491969    3617.7797         3932 
  644000   0.27064058   -7.8380551    3618.2095         3937 
  645000   0.27010794   -7.8458691    3617.7828         3941 
  646000   0.26566043   -7.8550665    3616.1833         3937 
  647000   0.27308202   -7.8550121    3616.8177         3929 
  648000   0.26732059   -7.8487489    3610.3099         3928 
  649000   0.27183459   -7.8527945    3611.4991         3931 
  650000   0.27059792   -7.8503898    3616.1222         3933 
  651000   0.27195695    -7.855378    3620.3739         3937 
  652000   0.26783572   -7.8457227    3613.4937         3927 
  653000   0.26792267   -7.8531878    3616.7478         3928 
  654000   0.27318557   -7.8495146    3615.7774         3941 
  655000   0.27099159     -7.85371    3619.5931         3933 
  656000   0.27176212   -7.8399988    3615.5191         3938 
  657000   0.26624274   -7.8535739    3621.4743         3939 
  658000   0.27051723   -7.8493262     3616.032         3936 
  659000      0.26673    -7.842387    3615.5561         3935 
  660000   0.27035694   -7.8465405    3613.7461         3942 
  661000   0.26808038   -7.8491686    3614.6282         3938 
  662000   0.27286445   -7.8538986     3620.406         3932 
  663000   0.27177842   -7.8428414    3616.6025         3928 
  664000   0.26677009   -7.8438498    3611.9696         3935 
  665000    0.2697718   -7.8473073    3619.2356         3923 
  666000    0.2709751   -7.8580244    3621.4949         3940 
  667000   0.27684872   -7.8449921    3618.5757         3937 
  668000    0.2640207   -7.8528399    3618.1132         3919 
  669000   0.26545747   -7.8563665    3613.6672         3934 
  670000   0.27120266   -7.8516468    3619.4607         3927 
  671000   0.26990326    -7.843242    3613.5825         3943 
  672000    0.2756389   -7.8569515    3616.1745         3933 
  673000   0.26832889   -7.8522137    3615.5749         3927 
  674000   0.27193543   -7.8459386    3618.2597         3939 
  675000    0.2708354    -7.855493    3613.6809         3943 
  676000   0.26956252    -7.842864    3605.9188         3931 
  677000   0.27540695   -7.8603651    3620.0157         3949 
  678000   0.27473028   -7.8543683    3615.8669         3942 
  679000   0.27177783    -7.853372    3617.2642         3940 
  680000   0.27412417   -7.8453006    3608.9903         3929 
  681000   0.27574071   -7.8452329    3615.2057         3935 
  682000   0.27186277   -7.8462697    3616.5965         3939 
  683000   0.26497325   -7.8466679    3615.9878         3935 
  684000   0.26916971   -7.8521631    3617.2945         3944 
  685000   0.26556728   -7.8474123     3616.193         3937 
  686000   0.26479543   -7.8405153    3612.6329         3936 
  687000   0.27201524   -7.8566433    3620.1211         3933 
  688000   0.27159401   -7.8515553    3616.7213         3923 
  689000   0.26972495   -7.8403434    3612.0357         3938 
  690000   0.26678859   -7.8512534     3615.502         3939 
  691000   0.26786661   -7.8521704    3618.6252         3929 
  692000   0.26809464   -7.8520561    3614.7171         3938 
  693000   0.27201724   -7.8566381    3614.7184         3929 
  694000   0.26887971     -7.85793    3620.6555         3928 
  695000   0.26701824   -7.8486684    3616.6558         3943 
  696000   0.26598388   -7.8482325    3611.9801         3940 
  697000   0.26790178   -7.8401697    3615.1814         3922 
  698000   0.26820709   -7.8446664    3617.0246         3936 
  699000   0.26929258   -7.8588541    3617.3249         3947 
  700000   0.27140059   -7.8545692    3619.6748         3930 
  701000   0.27406584   -7.8514603    3613.4608         3946 
  702000   0.27158915   -7.8511266    3617.7368         3938 
  703000   0.27154783   -7.8485302    3612.9303         3944 
  704000    0.2695241   -7.8488895    3615.8014         3950 
  705000   0.26951927   -7.8480769    3617.7959         3949 
  706000   0.26741235   -7.8554717    3615.5587         3933 
  707000   0.27221883   -7.8624628    3619.1556         3942 
  708000   0.26842112   -7.8530892    3618.7916         3934 
  709000   0.26835725   -7.8513933    3618.4188         3950 
  710000   0.27673058   -7.8611109    3619.4428         3934 
  711000   0.27476294   -7.8510232    3620.1289         3931 
  712000   0.27075558   -7.8512447    3613.1787         3949 
  713000   0.27040529   -7.8493047    3611.8702         3944 
  714000   0.26965463   -7.8594894    3619.7384         3932 
  715000   0.27399386   -7.8495731    3612.9422         3940 
  716000   0.26612383   -7.8592154    3616.9208         3923 
  717000    0.2635976   -7.8575638    3615.0925         3942 
  718000   0.27082956   -7.8531378    3612.6077         3935 
  719000   0.26903003   -7.8597055    3616.2098         3936 
  720000    0.2680934    -7.853282    3616.5638         3929 
  721000   0.26941989   -7.8561556    3616.0334         3937 
  722000    0.2726102   -7.8569721     3615.757         3938 
  723000    0.2720778   -7.8481204    3613.1857         3933 
  724000   0.26304738   -7.8643252    3616.1067         3932 
  725000   0.26988434   -7.8587753    3615.6885         3946 
  726000   0.27277567   -7.8613321    3621.0989         3930 
  727000   0.26708718   -7.8528201    3613.0539         3946 
  728000   0.27126187    -7.857899     3614.316         3932 
  729000   0.26877479   -7.8466777    3614.5038         3937 
  730000   0.26792485   -7.8657078    3618.8008         3942 
  731000   0.26662961   -7.8480984    3618.3057         3943 
  732000   0.27045912   -7.8529893    3612.3902         3925 
  733000   0.26809215   -7.8496121     3614.784         3920 
  734000   0.27614425   -7.8576472    3615.9236         3935 
  735000   0.27102314    -7.850793    3611.4676         3932 
  736000   0.27516589   -7.8460396    3612.8491         3937 
  737000   0.26950828   -7.8664592    3618.9405         3928 
  738000   0.26880941   -7.8528872    3615.4599         3940 
  739000   0.27161484   -7.8438724     3611.351         3934 
  740000   0.26568915    -7.846323    3619.1009         3937 
  741000   0.26882854   -7.8615067    3618.6355         3945 
  742000    0.2709424   -7.8509675    3612.8451         3943 
  743000   0.25867627   -7.8595699      3615.04         3921 
  744000   0.26853843   -7.8535868    3620.3737         3934 
  745000   0.27579976   -7.8435829    3619.8142         3958 
  746000    0.2710521   -7.8450619    3612.8751         3951 
  747000   0.26667867   -7.8642088    3623.7646         3936 
  748000    0.2599674   -7.8443774    3617.2215         3937 
  749000   0.27235021   -7.8610463    3613.1329         3936 
  750000   0.27016353   -7.8419745    3612.4101         3945 
  751000   0.27515824   -7.8528652    3610.1052         3945 
  752000   0.27107559   -7.8622713    3613.4763         3943 
  753000   0.27169208   -7.8633743    3617.7198         3944 
  754000   0.27207563   -7.8689502    3611.7111         3948 
  755000   0.26993941   -7.8680121    3613.5219         3931 
  756000   0.26412546   -7.8654546    3613.8548         3950 
  757000   0.26590594   -7.8563269    3610.6292         3944 
  758000   0.26820899   -7.8662841    3615.8682         3948 
  759000   0.27354105   -7.8736825    3620.8078         3937 
  760000   0.27059237   -7.8514211    3609.8739         3946 
  761000   0.27752432   -7.8638021    3615.9016         3943 
  762000   0.26955373   -7.8569678    3612.7432         3946 
  763000   0.26152069   -7.8641688    3614.0766         3949 
  764000   0.26771168    -7.858427     3608.477         3936 
  765000    0.2645279   -7.8763237     3621.265         3927 
  766000   0.27110738    -7.866058     3612.925         3948 
  767000   0.26910057   -7.8690916    3618.0209         3936 
  768000   0.27213125   -7.8605364    3608.8561         3946 
  769000   0.27250436    -7.865612     3618.786         3942 
  770000   0.27110925   -7.8707996    3622.0927         3939 
  771000    0.2715747   -7.8545091    3612.2314         3937 
  772000   0.26976992   -7.8672677     3618.866         3938 
  773000   0.26882585   -7.8636383    3607.8601         3936 
  774000   0.27152999   -7.8502187    3606.0989         3937 
  775000   0.26669074   -7.8659793    3616.3335         3932 
  776000   0.26931194   -7.8648541    3613.7119         3938 
  777000   0.27002056   -7.8543011    3614.6192         3937 
  778000   0.26761947    -7.872469    3613.4833         3944 
  779000   0.26806492   -7.8693189    3616.1445         3949 
  780000   0.27310646   -7.8651824     3614.469         3938 
  781000   0.27332138   -7.8749287    3620.0947         3939 
  782000   0.26959211   -7.8577142    3609.2303         3927 
  783000    0.2727677   -7.8600313     3612.809         3935 
  784000   0.26856696    -7.860159    3617.1419         3942 
  785000    0.2710452   -7.8521127    3615.2659         3937 
  786000   0.26261415   -7.8720797    3615.8218         3942 
  787000   0.26091972   -7.8606376    3609.2907         3932 
  788000   0.26963543   -7.8700705    3611.2984         3927 
  789000   0.26731208   -7.8752705    3618.0225         3940 
  790000   0.26423722   -7.8666414    3616.6693         3947 
  791000   0.26155011   -7.8684435    3616.8029         3930 
  792000   0.26754925   -7.8684472    3615.0285         3939 
  793000   0.26961482   -7.8660937    3609.2871         3939 
  794000    0.2682905   -7.8647614    3613.8495         3929 
  795000   0.26245862   -7.8613102    3612.3442         3941 
  796000    0.2736307     -7.86322    3614.9199         3947 
  797000   0.26637805   -7.8689338    3611.5806         3948 
  798000   0.26131177   -7.8629015    3610.1174         3936 
  799000   0.27568652   -7.8634754     3611.376         3941 
  800000   0.26818246   -7.8685966    3613.9624         3940 
  801000   0.26565002   -7.8597211    3611.7191         3943 
  802000   0.27179776   -7.8663644    3610.1066         3939 
  803000   0.27041186   -7.8674939     3613.877         3937 
  804000   0.26925516   -7.8754165    3616.7927         3942 
  805000   0.26697532   -7.8596892    3611.4694         3934 
  806000   0.27277208   -7.8577441     3605.149         3936 
  807000   0.27441772    -7.863856    3611.9121         3933 
  808000   0.26341631   -7.8671239    3617.4024         3944 
  809000   0.27576698   -7.8603079    3605.3252         3933 
  810000   0.26302717   -7.8675151     3608.858         3924 
  811000   0.27263826   -7.8648614    3612.4581         3933 
  812000   0.27454334   -7.8592022    3605.3823         3933 
  813000   0.27070358   -7.8784529     3614.088         3941 
  814000   0.26611833   -7.8677096    3609.8081         3941 
  815000   0.27210089   -7.8706265    3609.7665         3945 
  816000    0.2660474   -7.8736465    3616.5557         3933 
  817000   0.26940318   -7.8608741    3610.9246         3936 
  818000   0.26702757   -7.8544164     3609.387         3940 
  819000    0.2762188   -7.8737562     3613.538         3940 
  820000   0.26910325   -7.8655176    3612.7429         3938 
  821000   0.27342439   -7.8658644    3612.7003         3933 
  822000   0.26928134   -7.8743012    3618.6801         3941 
  823000   0.26775418   -7.8613884    3609.2684         3942 
  824000   0.27641719    -7.864039     3612.369         3936 
  825000   0.27005017    -7.862397    3613.4687         3925 
  826000   0.26954389    -7.851585    3610.1965         3940 
  827000   0.26778068   -7.8665719    3614.3491         3930 
  828000   0.27513644   -7.8751183    3617.7808         3925 
  829000   0.27321409   -7.8679986    3611.3148         3939 
  830000   0.27137826   -7.8725091    3613.7934         3938 
  831000    0.2697893   -7.8645379    3613.8722         3949 
  832000   0.27058361   -7.8615219    3609.2509         3946 
  833000   0.26754317    -7.856021    3613.6356         3945 
  834000   0.27069488   -7.8581663    3611.9533         3934 
  835000   0.27254791   -7.8724848    3614.5764         3926 
  836000   0.26605497   -7.8619138    3611.2419         3936 
  837000   0.27073625    -7.865264    3612.7973         3934 
  838000    0.2750088   -7.8631263    3609.2043         3941 
  839000   0.26961462   -7.8552199    3614.2399         3940 
  840000   0.27097028   -7.8699616    3609.2741         3953 
  841000   0.26958873   -7.8635344    3605.1404         3936 
  842000   0.27906317   -7.8551384    3608.2827         3946 
  843000   0.27232881   -7.8701036    3615.9951         3942 
  844000   0.27413266   -7.8627847    3610.1631         3946 
  845000   0.26755129   -7.8646539    3609.3405         3942 
  846000   0.26860149   -7.8694289     3607.909         3937 
  847000    0.2727447    -7.861542    3608.4613         3947 
  848000   0.27215124   -7.8608125    3609.6969         3935 
  849000   0.27123055    -7.863576    3616.4284         3945 
  850000   0.27736054   -7.8674769    3610.8592         3950 
  851000   0.27277494   -7.8589607    3607.9721         3943 
  852000   0.27615103   -7.8776565    3612.1506         3957 
  853000   0.27249881   -7.8664708    3612.2463         3940 
  854000   0.27307966   -7.8691123    3615.9349         3942 
  855000   0.26341636   -7.8658955    3609.8664         3949 
  856000   0.26506133   -7.8620301     3611.138         3951 
  857000   0.27817109   -7.8635021    3614.3011         3931 
  858000   0.26986136   -7.8685038    3614.0833         3930 
  859000   0.26601679   -7.8618344    3609.7755         3951 
  860000   0.27709685   -7.8640702    3615.0016         3943 
  861000   0.26868859   -7.8644863    3608.7375         3944 
  862000   0.26462762   -7.8684014    3614.9961         3952 
  863000   0.27426679   -7.8603882    3613.0213         3943 
  864000   0.27498384   -7.8681451    3609.4934         3939 
  865000   0.27129067   -7.8562809    3609.1751         3948 
  866000   0.26507718   -7.8605154    3609.6313         3949 
  867000   0.26741458   -7.8703509    3609.7772         3950 
  868000   0.27194599   -7.8703254    3610.1421         3955 
  869000   0.26931501   -7.8638883    3612.8981         3939 
  870000   0.26914734   -7.8755427     3617.264         3943 
  871000    0.2678774   -7.8779616    3607.7853         3951 
  872000   0.26534369   -7.8548318    3605.5984         3940 
  873000   0.26677893   -7.8658138    3612.1561         3939 
  874000   0.27182909   -7.8703242    3609.5779         3947 
  875000   0.26967441   -7.8670319    3613.1628         3935 
  876000   0.26831867   -7.8730722    3612.6696         3940 
  877000   0.27288009   -7.8769181    3613.2312         3946 
  878000   0.26974437   -7.8709818    3616.6981         3950 
  879000   0.27244724   -7.8701792    3620.8651         3951 
  880000   0.27044808    -7.873427    3612.9729         3949 
  881000   0.27322556   -7.8671418    3609.5377         3952 
  882000   0.27088078   -7.8698807    3615.2781         3949 
  883000   0.26467811   -7.8591161    3608.0021         3938 
  884000   0.26866574   -7.8720868    3610.8216         3954 
  885000    0.2733938   -7.8644465    3612.2088         3951 
  886000   0.27162794   -7.8702678    3615.0572         3940 
  887000   0.26915694   -7.8698253    3607.4017         3940 
  888000    0.2684923    -7.869739    3610.3489         3951 
  889000   0.26552377   -7.8675652    3606.3883         3951 
  890000   0.26849698   -7.8725853    3614.9526         3951 
  891000   0.26954204   -7.8750663    3612.7618         3941 
  892000   0.26911861   -7.8686703    3615.3909         3939 
  893000   0.27405939    -7.870196    3610.5172         3947 
  894000   0.26873518   -7.8685138    3614.2976         3945 
  895000   0.27396881   -7.8719706    3610.8085         3939 
  896000   0.27070391   -7.8636134    3614.5259         3950 
  897000   0.27037121   -7.8632252    3613.5497         3946 
  898000   0.27414761   -7.8643717    3615.9144         3947 
  899000   0.27246849   -7.8694671    3614.4139         3948 
  900000   0.27046813   -7.8670775    3612.5955         3956 
  901000   0.27135739   -7.8550564    3607.9598         3944 
  902000   0.26929087   -7.8615223    3610.7739         3951 
  903000   0.27449685   -7.8736746    3612.3404         3939 
  904000   0.26324708   -7.8737007    3614.4628         3959 
  905000   0.26436295   -7.8577171    3612.2442         3960 
  906000   0.27571228   -7.8611475    3610.8473         3948 
  907000   0.27234799   -7.8732185    3618.4214         3947 
  908000   0.27140485    -7.855343    3613.8464         3949 
  909000   0.26929862   -7.8707922    3613.9402         3948 
  910000   0.27080269   -7.8561603    3607.7863         3947 
  911000   0.27027905   -7.8620154    3611.4844         3951 
  912000   0.27046863    -7.859556    3614.5879         3948 
  913000   0.27029971   -7.8725502    3618.9425         3957 
  914000   0.26959413   -7.8643285    3612.3343         3949 
  915000   0.27602676   -7.8725892    3611.8338         3941 
  916000   0.27373437   -7.8579294    3608.0126         3936 
  917000   0.26306029   -7.8690736     3613.747         3938 
  918000    0.2715294   -7.8706736    3613.7406         3944 
  919000    0.2728088   -7.8649422    3610.4571         3949 
  920000   0.26892853   -7.8660457    3611.3399         3957 
  921000   0.26641866   -7.8572225    3608.4069         3944 
  922000   0.27547499    -7.863497    3614.5627         3945 
  923000   0.26743433   -7.8600308    3609.8138         3940 
  924000   0.27501673   -7.8740796    3611.9694         3955 
  925000   0.26817266   -7.8632221    3609.1611         3950 
  926000   0.27207247   -7.8659989    3610.1463         3940 
  927000   0.26620341    -7.867467    3613.7349         3948 
  928000   0.26993145    -7.866604    3617.0788         3945 
  929000   0.26820068   -7.8766304    3619.5158         3947 
  930000   0.27110854    -7.859841    3612.5753         3943 
  931000   0.27212606     -7.87048    3614.5071         3945 
  932000   0.26451458   -7.8714696    3607.4237         3948 
  933000   0.27322789   -7.8661736     3614.085         3941 
  934000    0.2694218   -7.8678851    3609.7039         3945 
  935000   0.26765183   -7.8644857     3609.443         3949 
  936000      0.26885   -7.8705439    3616.2666         3954 
  937000   0.26969902   -7.8699603    3613.0503         3943 
  938000    0.2655095   -7.8628029    3612.1739         3938 
  939000   0.26722913   -7.8578417    3612.1214         3946 
  940000    0.2735583   -7.8750435    3613.6597         3944 
  941000   0.27146808   -7.8668838    3616.4127         3927 
  942000    0.2674647    -7.860111     3616.188         3943 
  943000   0.27231622    -7.857918    3613.2876         3941 
  944000   0.27442274   -7.8691892    3619.0276         3945 
  945000   0.26630582   -7.8647212    3613.5156         3942 
  946000   0.27025422   -7.8660206     3609.423         3946 
  947000    0.2711079   -7.8593414    3611.9453         3951 
  948000   0.26782932   -7.8683092    3613.7611         3951 
  949000   0.27320514   -7.8646255    3612.2994         3952 
  950000   0.26562965   -7.8635359    3609.6064         3956 
  951000   0.27070111   -7.8707385    3611.8156         3944 
  952000   0.27172075   -7.8687256    3612.9894         3956 
  953000   0.26726571   -7.8629196    3612.1305         3953 
  954000   0.27217628    -7.871472    3612.1862         3947 
  955000   0.27261639   -7.8522016    3611.6862         3952 
  956000   0.27527406   -7.8659038    3614.8694         3953 
  957000    0.2656577   -7.8505748    3609.6556         3949 
  958000   0.27483813    -7.864004    3612.7139         3951 
  959000   0.27165303   -7.8682133     3612.979         3967 
  960000   0.26961288   -7.8639807    3612.3908         3947 
  961000   0.27230632   -7.8689131    3607.2859         3957 
  962000   0.26778575   -7.8705203    3612.7489         3944 
  963000    0.2712235   -7.8699747    3614.6999         3947 
  964000   0.26967556   -7.8596845    3607.4986         3945 
  965000   0.27008124   -7.8675835    3615.8732         3948 
  966000   0.27773058   -7.8799057     3615.908         3939 
  967000   0.26851155   -7.8589548    3608.6203         3935 
  968000   0.27605103   -7.8732203     3610.514         3948 
  969000    0.2675242   -7.8600212    3612.4318         3948 
  970000   0.27444726   -7.8644166    3609.2369         3958 
  971000   0.26566557   -7.8669549    3611.4304         3946 
  972000   0.26735644    -7.861476    3613.0569         3947 
  973000   0.26956945   -7.8730199    3609.5706         3948 
  974000   0.27318775   -7.8674962    3610.6991         3948 
  975000    0.2756103   -7.8577945    3611.3368         3947 
  976000   0.27205969   -7.8664128    3613.5903         3950 
  977000   0.26891272     -7.86579    3614.5431         3946 
  978000   0.27189487   -7.8662188    3614.8861         3952 
  979000   0.26758962   -7.8665464    3614.1538         3949 
  980000   0.26957685    -7.872886    3615.9624         3939 
  981000   0.26963323   -7.8678773    3616.7061         3950 
  982000   0.26493274   -7.8618221    3608.0758         3953 
  983000   0.26838194   -7.8583385    3610.2949         3942 
  984000   0.26510434   -7.8700223    3611.6025         3937 
  985000    0.2690763   -7.8706873    3618.3309         3943 
  986000   0.26873267   -7.8694682    3615.0955         3946 
  987000   0.26985684   -7.8649819    3617.6505         3942 
  988000   0.27157098   -7.8731767    3613.9587         3953 
  989000   0.27314615   -7.8659874    3611.5334         3944 
  990000   0.26695951   -7.8646865    3609.6227         3948 
  991000   0.27057623   -7.8706114    3613.5122         3963 
  992000   0.26935397   -7.8659563    3614.6742         3947 
  993000   0.26563195   -7.8717516    3614.1302         3945 
  994000   0.26455491   -7.8491679    3609.3471         3950 
  995000   0.27029751   -7.8664287    3609.9697         3941 
  996000   0.26553153   -7.8692093    3612.4086         3945 
  997000    0.2728967   -7.8620472    3604.8109         3950 
  998000   0.26451181   -7.8572743    3611.3137         3954 
  999000   0.26637014   -7.8669125    3613.3954         3957 
 1000000   0.27251292   -7.8639003    3610.6015         3937 
 1001000   0.27096504   -7.8692715    3614.9638         3957 
 1002000   0.26643646   -7.8669949    3611.1743         3946 
 1003000   0.27152435   -7.8596003    3611.7369         3947 
 1004000   0.27112542   -7.8623951    3608.9733         3956 
Loop time of 2129.7 on 48 procs for 1000000 steps with 4000 atoms

Performance: 81138.126 tau/day, 469.549 timesteps/s
99.4% CPU use with 48 MPI tasks x no OpenMP threads

MPI task timing breakdown:
Section |  min time  |  avg time  |  max time  |%varavg| %total
---------------------------------------------------------------
Pair    | 136.52     | 148.18     | 162.28     |  52.7 |  6.96
Neigh   | 7.0298     | 7.2951     | 7.6449     |   4.8 |  0.34
Comm    | 99.67      | 111.67     | 124.38     |  59.5 |  5.24
Output  | 2.4191     | 2.4201     | 2.4391     |   0.2 |  0.11
Modify  | 1824       | 1830.1     | 1840.2     |   8.4 | 85.93
Other   |            | 30.04      |            |       |  1.41

Nlocal:        83.3333 ave          89 max          79 min
Histogram: 3 5 6 7 5 5 7 2 5 3
Nghost:        1755.96 ave        1780 max        1742 min
Histogram: 5 4 12 10 6 3 5 1 1 1
Neighs:        10580.5 ave       11328 max        9837 min
Histogram: 2 5 5 7 9 4 1 10 1 4
FullNghs:      21160.1 ave       22688 max       19897 min
Histogram: 4 6 5 9 4 4 6 5 2 3

Total # of neighbors = 1015686
Ave neighs/atom = 253.92150
Neighbor list builds = 28971
Dangerous builds = 0

#clear
#
#next RN
#
#jump SELF
Total wall time: 0:35:30
